 Gaussian 09, Revision D.01,
 Gaussian 09:  ES64L-G09RevD.01 24-Apr-2013

 ----------------------------------------------------------------------
 # B3LYP/6-31G(d) EmpiricalDispersion=GD3BJ opt=calcfc freq=noraman nos
 ymm integral(ultrafinegrid)
 ----------------------------------------------------------------------

 -----------------------------------------------------------
 Candidate Structure: Conf:55 OPT and FREQ calc in gas phase
 -----------------------------------------------------------
 Symbolic Z-matrix:
 Charge =  1 Multiplicity = 1

 SCF Done:  E(RB3LYP) =  -796.488329116     A.U. after   14 cycles
 SCF Done:  E(RB3LYP) =  -796.495578633     A.U. after   15 cycles
 SCF Done:  E(RB3LYP) =  -796.491936624     A.U. after   15 cycles
 SCF Done:  E(RB3LYP) =  -796.495955853     A.U. after   11 cycles
 SCF Done:  E(RB3LYP) =  -796.496848885     A.U. after   15 cycles
 SCF Done:  E(RB3LYP) =  -796.496859190     A.U. after   14 cycles
 SCF Done:  E(RB3LYP) =  -796.497416099     A.U. after   12 cycles
 SCF Done:  E(RB3LYP) =  -796.497611943     A.U. after   12 cycles
 SCF Done:  E(RB3LYP) =  -796.497726791     A.U. after   12 cycles
 SCF Done:  E(RB3LYP) =  -796.497773806     A.U. after   13 cycles
 SCF Done:  E(RB3LYP) =  -796.497790980     A.U. after   11 cycles
 SCF Done:  E(RB3LYP) =  -796.497801436     A.U. after   10 cycles
 SCF Done:  E(RB3LYP) =  -796.497802324     A.U. after   10 cycles
 SCF Done:  E(RB3LYP) =  -796.497803049     A.U. after    9 cycles
 SCF Done:  E(RB3LYP) =  -796.497803145     A.U. after    7 cycles
 SCF Done:  E(RB3LYP) =  -796.497803206     A.U. after    8 cycles
 SCF Done:  E(RB3LYP) =  -796.497803210     A.U. after    6 cycles
 Optimization completed.
    -- Stationary point found.
 Normal termination of Gaussian 09 at Tue Jul 27 02:00:33 2021.

 --------------------------------------------------------------------
 #N Geom=AllCheck Guess=TCheck SCRF=Check GenChk RB3LYP/6-31G(d) Freq
 --------------------------------------------------------------------

 Structure from the checkpoint file:  "conf-55.chk"
 -----------------------------------------------------------
 Candidate Structure: Conf:55 OPT and FREQ calc in gas phase
 -----------------------------------------------------------
 Charge =  1 Multiplicity = 1

                          Input orientation:
 ---------------------------------------------------------------------
 Center     Atomic      Atomic             Coordinates (Angstroms)
 Number     Number       Type             X           Y           Z
 ---------------------------------------------------------------------
      1          8           0        1.432608    0.700468    1.078137
      2          6           0        1.533067    0.107424    0.007373
      3          7           0        0.526236   -0.522213   -0.619378
      4          6           0       -0.801292   -0.644217   -0.040507
      5          6           0       -1.480112   -1.799404   -0.798136
      6          8           0       -2.672769   -2.190599   -0.354004
      7          8           0       -0.949446   -2.317145   -1.757552
      8          6           0       -1.601182    0.683116   -0.133669
      9          6           0       -2.932214    0.587198    0.545149
     10          6           0       -3.295865    0.191987    1.819476
     11          7           0       -4.665261    0.221742    1.972809
     12          6           0       -5.137354    0.628803    0.815427
     13          7           0       -4.133003    0.857241   -0.085826
     14          6           0        2.891929    0.069836   -0.725158
     15          6           0        3.972962    0.207163    0.335635
     16          7           0        5.332541    0.491596   -0.296448
     17          1           0        0.662298   -1.093064   -1.450753
     18          1           0       -0.702396   -0.910044    1.018496
     19          1           0       -2.968596   -1.626629    0.393994
     20          1           0       -1.722805    0.947516   -1.190257
     21          1           0       -0.982652    1.458897    0.329130
     22          1           0       -2.646549   -0.082795    2.641013
     23          1           0       -6.180501    0.770406    0.568792
     24          1           0       -4.245377    1.163576   -1.042493
     25          1           0        3.007661   -0.847933   -1.311956
     26          1           0        2.921414    0.920023   -1.420711
     27          1           0        3.742427    1.036682    1.004840
     28          1           0        4.095697   -0.701412    0.927980
     29          1           0        5.623269   -0.264132   -0.928810
     30          1           0        5.310824    1.358816   -0.847282
     31          1           0        6.064277    0.597097    0.417458
 ---------------------------------------------------------------------

 SCF Done:  E(RB3LYP) =  -796.497803210     A.U. after    1 cycles

 Alpha  occ. eigenvalues --  -19.28976 -19.24978 -19.24014 -14.66590 -14.48849
 Alpha  occ. eigenvalues --  -14.48341 -14.39828 -10.43161 -10.42954 -10.42444
 Alpha  occ. eigenvalues --  -10.37160 -10.35818 -10.32607 -10.31937 -10.31461
 Alpha  occ. eigenvalues --  -10.29022  -1.20496  -1.20300  -1.17040  -1.12283
 Alpha  occ. eigenvalues --   -1.10341  -1.05567  -0.96428  -0.95935  -0.90935
 Alpha  occ. eigenvalues --   -0.85480  -0.82640  -0.79018  -0.78594  -0.77191
 Alpha  occ. eigenvalues --   -0.72437  -0.70789  -0.70363  -0.69103  -0.67678
 Alpha  occ. eigenvalues --   -0.66765  -0.64654  -0.62929  -0.60032  -0.59810
 Alpha  occ. eigenvalues --   -0.57787  -0.56830  -0.55863  -0.54742  -0.53740
 Alpha  occ. eigenvalues --   -0.53262  -0.52251  -0.51608  -0.50457  -0.50147
 Alpha  occ. eigenvalues --   -0.49493  -0.47937  -0.47227  -0.41511  -0.39311
 Alpha  occ. eigenvalues --   -0.38684  -0.37898  -0.36969  -0.34999  -0.31800
 Alpha virt. eigenvalues --   -0.16819  -0.11870  -0.09972  -0.09866  -0.09276
 Alpha virt. eigenvalues --   -0.06935  -0.06312  -0.03658  -0.03312  -0.02320
 Alpha virt. eigenvalues --   -0.01428  -0.01277   0.00769   0.01630   0.02480

 Mulliken charges:
               1
     1  O   -0.513448
     2  C    0.646198
     3  N   -0.619883
     4  C   -0.085548
     5  C    0.617795
     6  O   -0.556166
     7  O   -0.459293
     8  C   -0.337854
     9  C    0.259100
    10  C   -0.104377
    11  N   -0.396635
    12  C    0.216171
    13  N   -0.588426
    14  C   -0.405360
    15  C   -0.207423
    16  N   -0.733220
    17  H    0.365885
    18  H    0.204408
    19  H    0.441597
    20  H    0.163724
    21  H    0.209858
    22  H    0.157212
    23  H    0.186981
    24  H    0.346948
    25  H    0.192766
    26  H    0.200118
    27  H    0.264285
    28  H    0.238901
    29  H    0.429870
    30  H    0.428783
    31  H    0.437030
 Sum of Mulliken charges =   1.00000

 Dipole moment (field-independent basis, Debye):
    X=             19.9754    Y=              3.9004    Z=             -3.9041  Tot=             20.7237
 Quadrupole moment (field-independent basis, Debye-Ang):
   XX=             42.4642   YY=            -94.4506   ZZ=            -95.2283
   XY=             -0.5665   XZ=              1.5589   YZ=            -10.7612

  Exact polarizability: 169.304   1.285  89.775 -11.212   4.987 110.568
 Approx polarizability: 205.181   2.489 138.535 -13.868   7.691 195.552

                      1                      2                      3
                      A                      A                      A
 Frequencies --     20.2363                27.5698                38.4143
 Red. masses --      4.0402                 3.4995                 2.0032
 Frc consts  --      0.0010                 0.0016                 0.0017
 IR Inten    --      6.8315                 4.9555                10.1546

                      4                      5                      6
                      A                      A                      A
 Frequencies --     47.1091                68.0885                85.8721
 Red. masses --      4.7788                 7.6113                 5.2832
 Frc consts  --      0.0062                 0.0208                 0.0230
 IR Inten    --      0.9302                12.8802                 8.4812

                      7                      8                      9
                      A                      A                      A
 Frequencies --     92.7168               114.5262               118.3604
 Red. masses --      5.4538                 5.1245                 4.8434
 Frc consts  --      0.0276                 0.0396                 0.0400
 IR Inten    --      4.9320                 5.3830                 7.7759

                     10                     11                     12
                      A                      A                      A
 Frequencies --    197.2513               224.4253               243.2041
 Red. masses --      5.0855                 1.6280                 1.9021
 Frc consts  --      0.1166                 0.0483                 0.0663
 IR Inten    --      4.0207                18.7505                18.4701

                     13                     14                     15
                      A                      A                      A
 Frequencies --    276.4547               322.7953               329.6299
 Red. masses --      5.4463                 2.3464                 7.4360
 Frc consts  --      0.2452                 0.1440                 0.4760
 IR Inten    --      6.2677                 5.3608                 0.5663

                     16                     17                     18
                      A                      A                      A
 Frequencies --    350.6501               379.3023               398.8967
 Red. masses --      5.4472                 3.7193                 4.4365
 Frc consts  --      0.3946                 0.3153                 0.4159
 IR Inten    --     13.9805                14.5223                17.0467

                     19                     20                     21
                      A                      A                      A
 Frequencies --    537.7345               547.2317               579.6053
 Red. masses --      1.4356                 3.3125                 2.5686
 Frc consts  --      0.2446                 0.5845                 0.5084
 IR Inten    --     87.2681                18.6796                41.5136

                     22                     23                     24
                      A                      A                      A
 Frequencies --    622.6456               658.8794               667.0840
 Red. masses --      3.8951                 1.5861                 3.0523
 Frc consts  --      0.8897                 0.4057                 0.8003
 IR Inten    --     24.7846                 7.2188                17.2819

                     25                     26                     27
                      A                      A                      A
 Frequencies --    677.6357               687.6134               720.3169
 Red. masses --      1.9977                 1.5415                 3.9649
 Frc consts  --      0.5405                 0.4294                 1.2121
 IR Inten    --     14.9657                69.5490                 7.0460

                     28                     29                     30
                      A                      A                      A
 Frequencies --    738.9845               763.8813               799.6121
 Red. masses --      2.9203                 3.4386                 1.3352
 Frc consts  --      0.9396                 1.1822                 0.5030
 IR Inten    --      2.4626                 0.6617                10.8067

                     31                     32                     33
                      A                      A                      A
 Frequencies --    823.0126               827.2472               851.8199
 Red. masses --      1.9241                 1.7283                 1.4041
 Frc consts  --      0.7679                 0.6969                 0.6003
 IR Inten    --      5.8079                17.3523                33.5725

                     34                     35                     36
                      A                      A                      A
 Frequencies --    891.7602               925.8285               939.6488
 Red. masses --      2.8206                 1.2666                 5.9876
 Frc consts  --      1.3215                 0.6396                 3.1148
 IR Inten    --     37.4810                 5.3916                13.8489

                     37                     38                     39
                      A                      A                      A
 Frequencies --    944.0150               991.6301              1019.4758
 Red. masses --      3.5613                 2.0770                 2.9572
 Frc consts  --      1.8699                 1.2033                 1.8109
 IR Inten    --     39.1096                28.5563                 5.5380

                     40                     41                     42
                      A                      A                      A
 Frequencies --   1032.0372              1045.1130              1099.4394
 Red. masses --      3.1831                 3.9273                 1.6524
 Frc consts  --      1.9975                 2.5274                 1.1768
 IR Inten    --     13.7308                 4.4058                16.5010

                     43                     44                     45
                      A                      A                      A
 Frequencies --   1121.1058              1129.0635              1158.5531
 Red. masses --      1.6365                 2.2460                 2.1098
 Frc consts  --      1.2119                 1.6869                 1.6685
 IR Inten    --     15.7186                43.4250                13.8447

                     46                     47                     48
                      A                      A                      A
 Frequencies --   1164.0919              1180.8329              1241.7163
 Red. masses --      2.7763                 1.3618                 1.6835
 Frc consts  --      2.2167                 1.1188                 1.5293
 IR Inten    --      2.3478                 0.6797                10.5526

                     49                     50                     51
                      A                      A                      A
 Frequencies --   1250.6208              1269.6217              1291.0157
 Red. masses --      1.7237                 1.9069                 1.4697
 Frc consts  --      1.5885                 1.8111                 1.4432
 IR Inten    --      3.1113                11.7759                 0.7777

                     52                     53                     54
                      A                      A                      A
 Frequencies --   1301.2992              1319.7734              1333.6864
 Red. masses --      1.3069                 1.3359                 1.3086
 Frc consts  --      1.3039                 1.3710                 1.3714
 IR Inten    --      2.8047                 9.1168                13.3814

                     55                     56                     57
                      A                      A                      A
 Frequencies --   1344.3686              1365.6254              1379.3060
 Red. masses --      1.3867                 1.4006                 1.4707
 Frc consts  --      1.4767                 1.5389                 1.6486
 IR Inten    --     37.9676                27.5359               116.9471

                     58                     59                     60
                      A                      A                      A
 Frequencies --   1414.2515              1415.6596              1432.5127
 Red. masses --      1.3865                 2.5287                 2.2845
 Frc consts  --      1.6339                 2.9859                 2.7622
 IR Inten    --     10.7936                62.3177               233.4382

                     61                     62                     63
                      A                      A                      A
 Frequencies --   1446.4943              1502.0674              1504.8478
 Red. masses --      3.2596                 3.2238                 1.1135
 Frc consts  --      4.0183                 4.2855                 1.4857
 IR Inten    --     20.2849                19.8752                 0.6778

                     64                     65                     66
                      A                      A                      A
 Frequencies --   1517.3901              1523.4257              1543.7316
 Red. masses --      1.2093                 1.0761                 1.2129
 Frc consts  --      1.6405                 1.4715                 1.7030
 IR Inten    --     13.2162                13.0364               288.1571

                     67                     68                     69
                      A                      A                      A
 Frequencies --   1556.2137              1609.4892              1697.4383
 Red. masses --      2.3340                 3.9904                 1.0431
 Frc consts  --      3.3303                 6.0904                 1.7708
 IR Inten    --    249.4682                11.1124                57.3261

                     70                     71                     72
                      A                      A                      A
 Frequencies --   1701.3918              1778.2304              1850.7247
 Red. masses --      1.0447                10.0770                 9.0146
 Frc consts  --      1.7817                18.7740                18.1919
 IR Inten    --     46.8013               274.6516               266.3178

                     73                     74                     75
                      A                      A                      A
 Frequencies --   3047.2805              3063.5023              3075.8112
 Red. masses --      1.0636                 1.0644                 1.0795
 Frc consts  --      5.8190                 5.8858                 6.0170
 IR Inten    --      3.9625                 5.3887                13.7263

                     76                     77                     78
                      A                      A                      A
 Frequencies --   3105.9088              3112.2419              3130.3409
 Red. masses --      1.1009                 1.1049                 1.0604
 Frc consts  --      6.2573                 6.3056                 6.1222
 IR Inten    --      6.2450                 4.1742                 2.4274

                     79                     80                     81
                      A                      A                      A
 Frequencies --   3195.4913              3251.8586              3280.1850
 Red. masses --      1.1115                 1.0962                 1.0985
 Frc consts  --      6.6869                 6.8297                 6.9640
 IR Inten    --      2.4702                 3.9438                 0.4818

                     82                     83                     84
                      A                      A                      A
 Frequencies --   3391.7546              3481.8085              3482.9949
 Red. masses --      1.0307                 1.0938                 1.0940
 Frc consts  --      6.9860                 7.8129                 7.8197
 IR Inten    --     53.5385                93.1287                88.8567

                     85                     86                     87
                      A                      A                      A
 Frequencies --   3522.7959              3529.7295              3638.6859
 Red. masses --      1.0735                 1.0714                 1.0814
 Frc consts  --      7.8495                 7.8648                 8.4357
 IR Inten    --    123.0121               397.9531                55.9377

 - Thermochemistry -
 -------------------
 Temperature   298.150 Kelvin.  Pressure   1.00000 Atm.
 Atom     1 has atomic number  8 and mass  15.99491

 Molecular mass:   227.11442 amu.
 Principal axes and moments of inertia in atomic units:
                           1         2         3
     Eigenvalues --  1595.170928142.742749133.82662
           X            0.99372   0.04970   0.10028
           Y            0.02389   0.78115  -0.62389
           Z           -0.10934   0.62237   0.77505
 This molecule is an asymmetric top.
 Rotational symmetry number  1.
 Warning -- assumption of classical behavior for rotation
           may cause significant error
 Rotational temperatures (Kelvin)      0.05430     0.01064     0.00948
 Rotational constants (GHZ):           1.13138     0.22164     0.19759
 Zero-point vibrational energy     684160.4 (Joules/Mol)
                                  163.51827 (Kcal/Mol)
 Warning -- explicit consideration of  21 degrees of freedom as
           vibrations may cause significant error
 Vibrational temperatures:     29.12    39.67    55.27    67.78    97.96
          (Kelvin)            123.55   133.40   164.78   170.29   283.80
                              322.90   349.92   397.76   464.43   474.26
                              504.51   545.73   573.92   773.68   787.34
                              833.92   895.85   947.98   959.78   974.97
                              989.32  1036.37  1063.23  1099.05  1150.46
                             1184.13  1190.22  1225.58  1283.04  1332.06
                             1351.94  1358.23  1426.73  1466.80  1484.87
                             1503.68  1581.85  1613.02  1624.47  1666.90
                             1674.87  1698.95  1786.55  1799.36  1826.70
                             1857.48  1872.28  1898.86  1918.87  1934.24
                             1964.83  1984.51  2034.79  2036.82  2061.06
                             2081.18  2161.14  2165.14  2183.18  2191.87
                             2221.08  2239.04  2315.69  2442.23  2447.92
                             2558.47  2662.78  4384.35  4407.69  4425.40
                             4468.70  4477.82  4503.86  4597.59  4678.69
                             4719.45  4879.97  5009.54  5011.25  5068.51
                             5078.49  5235.25

 Zero-point correction=                           0.260583 (Hartree/Particle)
 Thermal correction to Energy=                    0.276842
 Thermal correction to Enthalpy=                  0.277786
 Thermal correction to Gibbs Free Energy=         0.213305
 Sum of electronic and zero-point Energies=           -796.237220
 Sum of electronic and thermal Energies=              -796.220961
 Sum of electronic and thermal Enthalpies=            -796.220017
 Sum of electronic and thermal Free Energies=         -796.284499

                     E (Thermal)             CV                S
                      KCal/Mol        Cal/Mol-Kelvin    Cal/Mol-Kelvin
 Total                  173.721             58.378            135.712
 Electronic               0.000              0.000              0.000
 Translational            0.889              2.981             42.163
 Rotational               0.889              2.981             33.139
 Vibrational            171.943             52.416             60.410
 Vibration     1          0.593              1.986              6.611
 Vibration     2          0.593              1.984              5.997
 Vibration     3          0.594              1.982              5.339
 Vibration     4          0.595              1.979              4.935
 Vibration     5          0.598              1.969              4.208
 Vibration     6          0.601              1.959              3.752
 Vibration     7          0.602              1.954              3.602
 Vibration     8          0.607              1.937              3.191
 Vibration     9          0.609              1.934              3.127
 Vibration    10          0.637              1.844              2.159
 Vibration    11          0.649              1.804              1.923
 Vibration    12          0.659              1.774              1.779
 Vibration    13          0.678              1.717              1.556
 Vibration    14          0.708              1.630              1.296
 Vibration    15          0.712              1.616              1.262
 Vibration    16          0.728              1.574              1.163
 Vibration    17          0.749              1.514              1.042
 Vibration    18          0.765              1.472              0.967
 Vibration    19          0.893              1.167              0.570
 Vibration    20          0.902              1.146              0.550
 Vibration    21          0.936              1.075              0.486

 Optimization completed.
    -- Stationary point found.
 Normal termination of Gaussian 09 at Tue Jul 27 02:15:57 2021.
