 Gaussian 09, Revision D.01,
 Gaussian 09:  ES64L-G09RevD.01 24-Apr-2013

 ----------------------------------------------------------------------
 # B3LYP/6-31G(d) EmpiricalDispersion=GD3BJ opt=calcfc freq=noraman nos
 ymm integral(ultrafinegrid)
 ----------------------------------------------------------------------

 ------------------------------------------------------------
 Candidate Structure: Conf:318 OPT and FREQ calc in gas phase
 ------------------------------------------------------------
 Symbolic Z-matrix:
 Charge =  1 Multiplicity = 1

 SCF Done:  E(RB3LYP) =  -796.484783064     A.U. after   15 cycles
 SCF Done:  E(RB3LYP) =  -796.491910811     A.U. after   15 cycles
 SCF Done:  E(RB3LYP) =  -796.494109354     A.U. after   16 cycles
 SCF Done:  E(RB3LYP) =  -796.470826349     A.U. after   15 cycles
 SCF Done:  E(RB3LYP) =  -796.495075821     A.U. after   11 cycles
 SCF Done:  E(RB3LYP) =  -796.275914519     A.U. after   16 cycles
 SCF Done:  E(RB3LYP) =  -796.495306927     A.U. after   11 cycles
 SCF Done:  E(RB3LYP) =  -796.486604651     A.U. after   14 cycles
 SCF Done:  E(RB3LYP) =  -796.495766547     A.U. after   11 cycles
 SCF Done:  E(RB3LYP) =  -796.301904225     A.U. after   16 cycles
 SCF Done:  E(RB3LYP) =  -796.499407496     A.U. after   12 cycles
 SCF Done:  E(RB3LYP) =  -796.500479382     A.U. after   10 cycles
 SCF Done:  E(RB3LYP) =  -796.500647623     A.U. after   12 cycles
 SCF Done:  E(RB3LYP) =  -796.500745567     A.U. after   12 cycles
 SCF Done:  E(RB3LYP) =  -796.500806040     A.U. after   11 cycles
 SCF Done:  E(RB3LYP) =  -796.500815375     A.U. after   10 cycles
 SCF Done:  E(RB3LYP) =  -796.500816426     A.U. after    8 cycles
 SCF Done:  E(RB3LYP) =  -796.500816600     A.U. after    8 cycles
 SCF Done:  E(RB3LYP) =  -796.500816638     A.U. after    7 cycles
 Optimization completed.
    -- Stationary point found.
 Normal termination of Gaussian 09 at Tue Jul 27 02:26:17 2021.

 --------------------------------------------------------------------
 #N Geom=AllCheck Guess=TCheck SCRF=Check GenChk RB3LYP/6-31G(d) Freq
 --------------------------------------------------------------------

 Structure from the checkpoint file:  "conf-318.chk"
 ------------------------------------------------------------
 Candidate Structure: Conf:318 OPT and FREQ calc in gas phase
 ------------------------------------------------------------
 Charge =  1 Multiplicity = 1

                          Input orientation:
 ---------------------------------------------------------------------
 Center     Atomic      Atomic             Coordinates (Angstroms)
 Number     Number       Type             X           Y           Z
 ---------------------------------------------------------------------
      1          8           0        0.833372    0.328942    1.920215
      2          6           0        0.959139   -0.540227    1.066779
      3          7           0        0.073133   -1.530021    0.822386
      4          6           0       -1.303124   -1.515237    1.284450
      5          6           0       -2.040231   -2.533978    0.395776
      6          8           0       -3.277878   -2.875931    0.775987
      7          8           0       -1.546153   -2.988220   -0.610229
      8          6           0       -1.986376   -0.113755    1.208682
      9          6           0       -1.594032    0.686393    0.006021
     10          6           0       -1.188174    0.360202   -1.270101
     11          7           0       -0.796776    1.489452   -1.966333
     12          6           0       -0.988087    2.496797   -1.133500
     13          7           0       -1.458952    2.061694    0.070298
     14          6           0        2.172825   -0.513832    0.118618
     15          6           0        2.184066    0.878983   -0.498892
     16          7           0        3.358687    1.043195   -1.459626
     17          1           0        0.198284   -2.127379    0.010081
     18          1           0       -1.358171   -1.853551    2.327179
     19          1           0       -3.514121   -2.483423    1.634069
     20          1           0       -3.073422   -0.261610    1.253662
     21          1           0       -1.700148    0.440520    2.105398
     22          1           0       -1.153923   -0.620571   -1.722969
     23          1           0       -0.816603    3.542668   -1.348622
     24          1           0       -1.673318    2.636963    0.873764
     25          1           0        2.105551   -1.288297   -0.653456
     26          1           0        3.078863   -0.687911    0.711081
     27          1           0        2.291480    1.641905    0.272676
     28          1           0        1.288440    1.078809   -1.093492
     29          1           0        4.261160    0.892175   -0.992743
     30          1           0        3.370026    1.983802   -1.872558
     31          1           0        3.294416    0.371687   -2.234399
 ---------------------------------------------------------------------

 SCF Done:  E(RB3LYP) =  -796.500816638     A.U. after    1 cycles

 Alpha  occ. eigenvalues --  -19.31640 -19.25917 -19.24577 -14.65192 -14.50416
 Alpha  occ. eigenvalues --  -14.48741 -14.42682 -10.44282 -10.42520 -10.41420
 Alpha  occ. eigenvalues --  -10.37343 -10.35998 -10.35204 -10.33563 -10.32935
 Alpha  occ. eigenvalues --  -10.30678  -1.22465  -1.19110  -1.16742  -1.14336
 Alpha  occ. eigenvalues --   -1.12534  -1.05815  -0.98221  -0.95323  -0.91661
 Alpha  occ. eigenvalues --   -0.86115  -0.82759  -0.79338  -0.77678  -0.76957
 Alpha  occ. eigenvalues --   -0.74271  -0.72551  -0.70906  -0.69847  -0.68002
 Alpha  occ. eigenvalues --   -0.67083  -0.64963  -0.63095  -0.61212  -0.59579
 Alpha  occ. eigenvalues --   -0.58095  -0.57045  -0.56835  -0.55846  -0.55524
 Alpha  occ. eigenvalues --   -0.54058  -0.52993  -0.51860  -0.51649  -0.51383
 Alpha  occ. eigenvalues --   -0.51193  -0.49337  -0.48773  -0.43499  -0.40018
 Alpha  occ. eigenvalues --   -0.39581  -0.38698  -0.38287  -0.37921  -0.33743
 Alpha virt. eigenvalues --   -0.15518  -0.12026  -0.11140  -0.09122  -0.08597
 Alpha virt. eigenvalues --   -0.08343  -0.06175  -0.05822  -0.03866  -0.02641
 Alpha virt. eigenvalues --   -0.02051  -0.01181  -0.00103   0.01019   0.02746

 Mulliken charges:
               1
     1  O   -0.517585
     2  C    0.642895
     3  N   -0.607842
     4  C   -0.055637
     5  C    0.624437
     6  O   -0.539404
     7  O   -0.444054
     8  C   -0.386356
     9  C    0.346927
    10  C   -0.126314
    11  N   -0.439128
    12  C    0.187656
    13  N   -0.584141
    14  C   -0.387778
    15  C   -0.231646
    16  N   -0.731269
    17  H    0.365199
    18  H    0.198932
    19  H    0.429971
    20  H    0.178946
    21  H    0.204123
    22  H    0.166653
    23  H    0.177960
    24  H    0.353156
    25  H    0.176351
    26  H    0.202010
    27  H    0.243560
    28  H    0.263935
    29  H    0.424641
    30  H    0.434317
    31  H    0.429486
 Sum of Mulliken charges =   1.00000

 Dipole moment (field-independent basis, Debye):
    X=              9.7891    Y=              4.5426    Z=             -0.7688  Tot=             10.8191
 Quadrupole moment (field-independent basis, Debye-Ang):
   XX=            -31.1634   YY=            -77.5288   ZZ=            -84.6544
   XY=              9.4034   XZ=            -36.1275   YZ=            -11.2263

  Exact polarizability: 117.501  13.938 123.167 -18.271  -3.829 110.564
 Approx polarizability: 157.972  14.057 190.158 -30.604  16.774 192.522

                      1                      2                      3
                      A                      A                      A
 Frequencies --     43.9372                51.6647                59.1437
 Red. masses --      4.2253                 4.9188                 3.3551
 Frc consts  --      0.0048                 0.0077                 0.0069
 IR Inten    --     12.9027                13.1979                 2.8470

                      4                      5                      6
                      A                      A                      A
 Frequencies --     63.2365                81.3847                98.8996
 Red. masses --      2.8532                 4.6872                 6.7623
 Frc consts  --      0.0067                 0.0183                 0.0390
 IR Inten    --     10.7198                 6.3304                 6.2799

                      7                      8                      9
                      A                      A                      A
 Frequencies --    127.8991               154.5076               165.4429
 Red. masses --      3.0832                 4.7101                 6.3544
 Frc consts  --      0.0297                 0.0662                 0.1025
 IR Inten    --     11.2675                14.0962                27.3943

                     10                     11                     12
                      A                      A                      A
 Frequencies --    201.3329               215.8718               229.3379
 Red. masses --      4.2885                 5.2316                 1.1512
 Frc consts  --      0.1024                 0.1436                 0.0357
 IR Inten    --      4.7825                 3.7193                 0.0562

                     13                     14                     15
                      A                      A                      A
 Frequencies --    288.1650               308.2689               320.5812
 Red. masses --      4.8621                 3.2170                 4.9891
 Frc consts  --      0.2379                 0.1801                 0.3021
 IR Inten    --      0.8054                 4.1829                10.5349

                     16                     17                     18
                      A                      A                      A
 Frequencies --    335.7362               378.7739               455.8665
 Red. masses --      3.7276                 3.5063                 2.6273
 Frc consts  --      0.2476                 0.2964                 0.3217
 IR Inten    --     10.6049                23.9698                54.4709

                     19                     20                     21
                      A                      A                      A
 Frequencies --    509.5636               548.2358               559.5494
 Red. masses --      1.4678                 2.9422                 1.5173
 Frc consts  --      0.2246                 0.5210                 0.2799
 IR Inten    --     52.0698                27.7201                85.5413

                     22                     23                     24
                      A                      A                      A
 Frequencies --    624.8012               627.6445               661.2570
 Red. masses --      4.0878                 2.8135                 2.4092
 Frc consts  --      0.9402                 0.6530                 0.6207
 IR Inten    --     39.6213                60.8977                13.4383

                     25                     26                     27
                      A                      A                      A
 Frequencies --    686.9318               688.1646               708.2821
 Red. masses --      3.5063                 2.0203                 3.1945
 Frc consts  --      0.9748                 0.5637                 0.9442
 IR Inten    --      1.7688                30.4255                 1.0240

                     28                     29                     30
                      A                      A                      A
 Frequencies --    737.6825               798.6748               803.5688
 Red. masses --      6.5169                 2.3449                 1.6753
 Frc consts  --      2.0895                 0.8813                 0.6374
 IR Inten    --      8.1897                 6.7877                11.0621

                     31                     32                     33
                      A                      A                      A
 Frequencies --    807.1053               847.8120               875.4456
 Red. masses --      1.1914                 2.6633                 1.4360
 Frc consts  --      0.4573                 1.1279                 0.6484
 IR Inten    --      7.1315                 6.5795                19.2752

                     34                     35                     36
                      A                      A                      A
 Frequencies --    891.4409               926.1770               933.6594
 Red. masses --      2.8943                 2.8958                 1.4588
 Frc consts  --      1.3551                 1.4635                 0.7493
 IR Inten    --     19.5833                 0.9345                11.2471

                     37                     38                     39
                      A                      A                      A
 Frequencies --    952.4381               958.0871               985.6245
 Red. masses --      4.0465                 3.3727                 2.2497
 Frc consts  --      2.1627                 1.8241                 1.2877
 IR Inten    --     25.5448                 4.3432                35.6753

                     40                     41                     42
                      A                      A                      A
 Frequencies --   1030.6057              1047.3750              1090.6117
 Red. masses --      3.4409                 2.6766                 1.6012
 Frc consts  --      2.1533                 1.7300                 1.1221
 IR Inten    --      7.4130                 4.1928                 5.8242

                     43                     44                     45
                      A                      A                      A
 Frequencies --   1137.7012              1141.4772              1153.2375
 Red. masses --      1.5385                 2.0216                 2.4147
 Frc consts  --      1.1733                 1.5519                 1.8921
 IR Inten    --     18.8954                16.6719                24.3729

                     46                     47                     48
                      A                      A                      A
 Frequencies --   1164.1995              1201.8959              1229.3706
 Red. masses --      2.8420                 1.6154                 1.7132
 Frc consts  --      2.2695                 1.3749                 1.5256
 IR Inten    --      0.7092                11.3904                12.9084

                     49                     50                     51
                      A                      A                      A
 Frequencies --   1257.5177              1275.9922              1283.0124
 Red. masses --      1.3812                 1.7308                 1.3858
 Frc consts  --      1.2868                 1.6603                 1.3440
 IR Inten    --     24.8094                18.0326                15.6277

                     52                     53                     54
                      A                      A                      A
 Frequencies --   1300.8470              1309.3551              1320.6891
 Red. masses --      1.4827                 1.3984                 1.6051
 Frc consts  --      1.4782                 1.4126                 1.6495
 IR Inten    --     30.9244                17.2033               247.1650

                     55                     56                     57
                      A                      A                      A
 Frequencies --   1346.4532              1368.6084              1374.1177
 Red. masses --      1.3656                 1.9960                 1.5807
 Frc consts  --      1.4587                 2.2027                 1.7585
 IR Inten    --     59.4251                92.4363                 3.1799

                     58                     59                     60
                      A                      A                      A
 Frequencies --   1412.3860              1434.8673              1440.9675
 Red. masses --      2.0041                 1.8316                 1.4501
 Frc consts  --      2.3554                 2.2218                 1.7740
 IR Inten    --    174.5186                20.5166                25.4857

                     61                     62                     63
                      A                      A                      A
 Frequencies --   1448.4376              1499.1091              1507.1785
 Red. masses --      2.3420                 1.5990                 1.1114
 Frc consts  --      2.8950                 2.1172                 1.4874
 IR Inten    --     11.8200                28.2770                 5.2514

                     64                     65                     66
                      A                      A                      A
 Frequencies --   1516.7114              1538.2478              1539.5356
 Red. masses --      1.8727                 1.1524                 1.0890
 Frc consts  --      2.5381                 1.6066                 1.5208
 IR Inten    --      1.6186               117.5622                81.1519

                     67                     68                     69
                      A                      A                      A
 Frequencies --   1567.8951              1620.2934              1695.2681
 Red. masses --      1.9474                 4.0371                 1.0431
 Frc consts  --      2.8207                 6.2447                 1.7663
 IR Inten    --    224.5791                20.0387                53.0935

                     70                     71                     72
                      A                      A                      A
 Frequencies --   1700.7747              1791.1135              1859.4447
 Red. masses --      1.0443                 9.3999                 9.1266
 Frc consts  --      1.7798                17.7673                18.5919
 IR Inten    --     40.7032               224.2078               129.4350

                     73                     74                     75
                      A                      A                      A
 Frequencies --   3047.5482              3055.5326              3061.4248
 Red. masses --      1.0715                 1.0831                 1.0586
 Frc consts  --      5.8632                 5.9579                 5.8459
 IR Inten    --     10.2777                31.2627                10.7178

                     76                     77                     78
                      A                      A                      A
 Frequencies --   3105.4533              3112.2109              3127.2921
 Red. masses --      1.0722                 1.0985                 1.0929
 Frc consts  --      6.0921                 6.2687                 6.2974
 IR Inten    --     55.2851                 6.7550                 2.0955

                     79                     80                     81
                      A                      A                      A
 Frequencies --   3187.2595              3271.7664              3275.0500
 Red. masses --      1.1088                 1.0951                 1.1003
 Frc consts  --      6.6366                 6.9066                 6.9537
 IR Inten    --     16.2381                 0.3713                 0.6296

                     82                     83                     84
                      A                      A                      A
 Frequencies --   3393.2604              3484.7722              3486.8460
 Red. masses --      1.0304                 1.0938                 1.0941
 Frc consts  --      6.9899                 7.8259                 7.8375
 IR Inten    --     46.1790                80.5381                87.1060

                     85                     86                     87
                      A                      A                      A
 Frequencies --   3539.3125              3635.9865              3719.7969
 Red. masses --      1.0772                 1.0815                 1.0663
 Frc consts  --      7.9506                 8.4244                 8.6929
 IR Inten    --    108.9043                64.7470                52.3854

 - Thermochemistry -
 -------------------
 Temperature   298.150 Kelvin.  Pressure   1.00000 Atm.
 Atom     1 has atomic number  8 and mass  15.99491

 Molecular mass:   227.11442 amu.
 Principal axes and moments of inertia in atomic units:
                           1         2         3
     Eigenvalues --  2468.274804460.471755370.29958
           X            0.74227  -0.67002  -0.00997
           Y            0.62217   0.68358   0.38162
           Z           -0.24888  -0.28947   0.92427
 This molecule is an asymmetric top.
 Rotational symmetry number  1.
 Warning -- assumption of classical behavior for rotation
           may cause significant error
 Rotational temperatures (Kelvin)      0.03509     0.01942     0.01613
 Rotational constants (GHZ):           0.73118     0.40461     0.33606
 Zero-point vibrational energy     686782.1 (Joules/Mol)
                                  164.14487 (Kcal/Mol)
 Warning -- explicit consideration of  21 degrees of freedom as
           vibrations may cause significant error
 Vibrational temperatures:     63.22    74.33    85.09    90.98   117.09
          (Kelvin)            142.29   184.02   222.30   238.04   289.67
                              310.59   329.97   414.60   443.53   461.24
                              483.05   544.97   655.89   733.15   788.79
                              805.07   898.95   903.04   951.40   988.34
                              990.11  1019.06  1061.36  1149.11  1156.15
                             1161.24  1219.81  1259.57  1282.58  1332.56
                             1343.33  1370.34  1378.47  1418.09  1482.81
                             1506.94  1569.14  1636.90  1642.33  1659.25
                             1675.02  1729.26  1768.79  1809.29  1835.87
                             1845.97  1871.63  1883.87  1900.17  1937.24
                             1969.12  1977.05  2032.11  2064.45  2073.23
                             2083.98  2156.88  2168.49  2182.21  2213.19
                             2215.05  2255.85  2331.24  2439.11  2447.03
                             2577.01  2675.32  4384.74  4396.22  4404.70
                             4468.05  4477.77  4499.47  4585.75  4707.34
                             4712.06  4882.14  5013.80  5016.79  5092.27
                             5231.37  5351.95

 Zero-point correction=                           0.261581 (Hartree/Particle)
 Thermal correction to Energy=                    0.277430
 Thermal correction to Enthalpy=                  0.278374
 Thermal correction to Gibbs Free Energy=         0.217306
 Sum of electronic and zero-point Energies=           -796.239235
 Sum of electronic and thermal Energies=              -796.223386
 Sum of electronic and thermal Enthalpies=            -796.222442
 Sum of electronic and thermal Free Energies=         -796.283510

                     E (Thermal)             CV                S
                      KCal/Mol        Cal/Mol-Kelvin    Cal/Mol-Kelvin
 Total                  174.090             58.295            128.528
 Electronic               0.000              0.000              0.000
 Translational            0.889              2.981             42.163
 Rotational               0.889              2.981             32.447
 Vibrational            172.313             52.333             53.918
 Vibration     1          0.595              1.980              5.073
 Vibration     2          0.596              1.977              4.753
 Vibration     3          0.597              1.974              4.486
 Vibration     4          0.597              1.972              4.354
 Vibration     5          0.600              1.962              3.857
 Vibration     6          0.604              1.950              3.476
 Vibration     7          0.611              1.925              2.977
 Vibration     8          0.620              1.898              2.616
 Vibration     9          0.624              1.885              2.487
 Vibration    10          0.638              1.838              2.121
 Vibration    11          0.645              1.817              1.993
 Vibration    12          0.652              1.796              1.884
 Vibration    13          0.685              1.696              1.485
 Vibration    14          0.698              1.658              1.372
 Vibration    15          0.706              1.634              1.307
 Vibration    16          0.717              1.604              1.232
 Vibration    17          0.749              1.515              1.044
 Vibration    18          0.814              1.348              0.778
 Vibration    19          0.865              1.229              0.635
 Vibration    20          0.903              1.144              0.548
 Vibration    21          0.915              1.119              0.525

 Optimization completed.
    -- Stationary point found.
 Normal termination of Gaussian 09 at Tue Jul 27 02:45:17 2021.
