 Gaussian 09, Revision D.01,
 Gaussian 09:  ES64L-G09RevD.01 24-Apr-2013

 ----------------------------------------------------------------------
 # B3LYP/6-31G(d) EmpiricalDispersion=GD3BJ opt=calcfc freq=noraman nos
 ymm integral(ultrafinegrid)
 ----------------------------------------------------------------------

 ------------------------------------------------------------
 Candidate Structure: Conf:862 OPT and FREQ calc in gas phase
 ------------------------------------------------------------
 Symbolic Z-matrix:
 Charge =  1 Multiplicity = 1

 SCF Done:  E(RB3LYP) =  -796.531728855     A.U. after   15 cycles
 SCF Done:  E(RB3LYP) =  -796.452595115     A.U. after   16 cycles
 SCF Done:  E(RB3LYP) =  -796.539712979     A.U. after   12 cycles
 SCF Done:  E(RB3LYP) =  -796.542389017     A.U. after   13 cycles
 SCF Done:  E(RB3LYP) =  -796.538922347     A.U. after   14 cycles
 SCF Done:  E(RB3LYP) =  -796.543736369     A.U. after   11 cycles
 SCF Done:  E(RB3LYP) =  -796.545213061     A.U. after   12 cycles
 SCF Done:  E(RB3LYP) =  -796.545341572     A.U. after   12 cycles
 SCF Done:  E(RB3LYP) =  -796.545410334     A.U. after   11 cycles
 SCF Done:  E(RB3LYP) =  -796.545459115     A.U. after   11 cycles
 SCF Done:  E(RB3LYP) =  -796.545507069     A.U. after   10 cycles
 SCF Done:  E(RB3LYP) =  -796.545625507     A.U. after   12 cycles
 SCF Done:  E(RB3LYP) =  -796.545660418     A.U. after   11 cycles
 SCF Done:  E(RB3LYP) =  -796.545683256     A.U. after   11 cycles
 SCF Done:  E(RB3LYP) =  -796.545684902     A.U. after    8 cycles
 SCF Done:  E(RB3LYP) =  -796.545685059     A.U. after    8 cycles
 Optimization completed.
    -- Stationary point found.
 Normal termination of Gaussian 09 at Tue Jul 27 02:09:03 2021.

 --------------------------------------------------------------------
 #N Geom=AllCheck Guess=TCheck SCRF=Check GenChk RB3LYP/6-31G(d) Freq
 --------------------------------------------------------------------

 Structure from the checkpoint file:  "conf-862.chk"
 ------------------------------------------------------------
 Candidate Structure: Conf:862 OPT and FREQ calc in gas phase
 ------------------------------------------------------------
 Charge =  1 Multiplicity = 1

                          Input orientation:
 ---------------------------------------------------------------------
 Center     Atomic      Atomic             Coordinates (Angstroms)
 Number     Number       Type             X           Y           Z
 ---------------------------------------------------------------------
      1          8           0       -0.734885    1.779521   -0.158810
      2          6           0        0.328375    1.237092    0.172929
      3          7           0        0.486019    0.580046    1.339303
      4          6           0       -0.636891    0.177739    2.164859
      5          6           0       -0.182986    0.195063    3.614720
      6          8           0       -1.225961    0.199780    4.453951
      7          8           0        0.980579    0.138860    3.945735
      8          6           0       -1.140615   -1.281388    1.809191
      9          6           0       -0.885576   -1.603701    0.373388
     10          6           0       -1.390411   -1.070444   -0.786339
     11          7           0       -0.612733   -1.430107   -1.872745
     12          6           0        0.334581   -2.220229   -1.388252
     13          7           0        0.214975   -2.342843   -0.039253
     14          6           0        1.523915    1.181641   -0.781668
     15          6           0        1.204182    1.759661   -2.162061
     16          7           0       -0.116576    1.238938   -2.672545
     17          1           0        1.400808    0.265595    1.642545
     18          1           0       -1.447161    0.888341    2.002186
     19          1           0       -0.879134    0.154349    5.366743
     20          1           0       -2.203189   -1.347140    2.055997
     21          1           0       -0.622976   -2.008019    2.445390
     22          1           0       -2.234040   -0.403968   -0.889219
     23          1           0        1.099435   -2.722826   -1.963322
     24          1           0        0.780444   -2.936738    0.553706
     25          1           0        1.843737    0.138116   -0.872811
     26          1           0        2.372561    1.737792   -0.366358
     27          1           0        1.979669    1.497340   -2.883161
     28          1           0        1.107095    2.846124   -2.123042
     29          1           0       -0.195440    0.183864   -2.660333
     30          1           0       -0.335386    1.591889   -3.607579
     31          1           0       -0.812314    1.575862   -1.974948
 ---------------------------------------------------------------------

 SCF Done:  E(RB3LYP) =  -796.545685059     A.U. after    1 cycles

 Alpha  occ. eigenvalues --  -19.31863 -19.26812 -19.26365 -14.58078 -14.53217
 Alpha  occ. eigenvalues --  -14.50343 -14.46502 -10.44534 -10.44205 -10.40229
 Alpha  occ. eigenvalues --  -10.38347 -10.37392 -10.35783 -10.35760 -10.33972
 Alpha  occ. eigenvalues --  -10.33409  -1.22954  -1.18748  -1.15467  -1.14210
 Alpha  occ. eigenvalues --   -1.13125  -1.07148  -1.01227  -0.94575  -0.92391
 Alpha  occ. eigenvalues --   -0.88028  -0.82324  -0.80319  -0.75749  -0.74860
 Alpha  occ. eigenvalues --   -0.73390  -0.72670  -0.71863  -0.71050  -0.67736
 Alpha  occ. eigenvalues --   -0.65779  -0.63663  -0.62325  -0.61477  -0.60730
 Alpha  occ. eigenvalues --   -0.59379  -0.58583  -0.58178  -0.57121  -0.55510
 Alpha  occ. eigenvalues --   -0.55115  -0.54760  -0.53844  -0.53614  -0.52921
 Alpha  occ. eigenvalues --   -0.52100  -0.50008  -0.49809  -0.44026  -0.43144
 Alpha  occ. eigenvalues --   -0.42016  -0.41243  -0.40045  -0.39876  -0.36033
 Alpha virt. eigenvalues --   -0.13320  -0.12567  -0.10905  -0.09186  -0.07971
 Alpha virt. eigenvalues --   -0.05545  -0.03958  -0.03328  -0.02846  -0.01918
 Alpha virt. eigenvalues --   -0.01741  -0.00147   0.00018   0.00788   0.01379

 Mulliken charges:
               1
     1  O   -0.553599
     2  C    0.653233
     3  N   -0.594625
     4  C   -0.026468
     5  C    0.585826
     6  O   -0.550163
     7  O   -0.451902
     8  C   -0.378966
     9  C    0.326504
    10  C   -0.062658
    11  N   -0.489492
    12  C    0.213653
    13  N   -0.591941
    14  C   -0.400612
    15  C   -0.187295
    16  N   -0.768769
    17  H    0.358167
    18  H    0.226696
    19  H    0.437689
    20  H    0.216939
    21  H    0.178169
    22  H    0.172249
    23  H    0.200025
    24  H    0.361499
    25  H    0.197129
    26  H    0.225426
    27  H    0.217091
    28  H    0.226745
    29  H    0.422342
    30  H    0.405691
    31  H    0.431416
 Sum of Mulliken charges =   1.00000

 Dipole moment (field-independent basis, Debye):
    X=              2.4150    Y=              0.2302    Z=             -3.1596  Tot=              3.9835
 Quadrupole moment (field-independent basis, Debye-Ang):
   XX=            -83.5528   YY=            -73.9925   ZZ=            -49.8625
   XY=             -0.6695   XZ=            -10.7590   YZ=            -16.2843

  Exact polarizability: 106.905  -5.370 100.465  -8.048  -9.137 148.265
 Approx polarizability: 187.492 -26.691 148.883   0.520 -16.725 205.920

                      1                      2                      3
                      A                      A                      A
 Frequencies --     36.5474                52.9106                92.4374
 Red. masses --      4.8288                 8.4833                 4.4956
 Frc consts  --      0.0038                 0.0140                 0.0226
 IR Inten    --      2.9788                 1.1133                 0.1289

                      4                      5                      6
                      A                      A                      A
 Frequencies --    110.2602               113.5536               131.4456
 Red. masses --      4.4496                 5.1064                 3.8294
 Frc consts  --      0.0319                 0.0388                 0.0390
 IR Inten    --      9.5316                 3.9800                 8.6595

                      7                      8                      9
                      A                      A                      A
 Frequencies --    147.9042               159.9350               192.2421
 Red. masses --      4.1769                 5.5734                 3.5593
 Frc consts  --      0.0538                 0.0840                 0.0775
 IR Inten    --     10.0299                 7.4114                 8.6113

                     10                     11                     12
                      A                      A                      A
 Frequencies --    219.1301               265.2995               308.3196
 Red. masses --      2.5833                 4.8876                 5.7042
 Frc consts  --      0.0731                 0.2027                 0.3195
 IR Inten    --     33.6248                33.5664                 2.4605

                     13                     14                     15
                      A                      A                      A
 Frequencies --    314.0064               340.4516               365.7972
 Red. masses --      2.3805                 4.4446                 4.6356
 Frc consts  --      0.1383                 0.3035                 0.3655
 IR Inten    --      4.4239                 5.5059                49.1902

                     16                     17                     18
                      A                      A                      A
 Frequencies --    415.4666               442.4350               476.4538
 Red. masses --      3.4262                 2.3325                 1.2106
 Frc consts  --      0.3484                 0.2690                 0.1619
 IR Inten    --     10.8258                15.2432                 1.0432

                     19                     20                     21
                      A                      A                      A
 Frequencies --    524.4685               553.0460               593.3219
 Red. masses --      1.9281                 3.5995                 1.7476
 Frc consts  --      0.3125                 0.6487                 0.3625
 IR Inten    --     99.4113                21.4092               105.1958

                     22                     23                     24
                      A                      A                      A
 Frequencies --    623.9879               632.1962               638.7195
 Red. masses --      1.9086                 1.4936                 2.5893
 Frc consts  --      0.4378                 0.3517                 0.6224
 IR Inten    --      6.9559                57.1403                80.1004

                     25                     26                     27
                      A                      A                      A
 Frequencies --    686.2044               691.7340               692.6806
 Red. masses --      2.6078                 3.1415                 2.5874
 Frc consts  --      0.7235                 0.8857                 0.7314
 IR Inten    --     60.2323                 4.9623                 4.8923

                     28                     29                     30
                      A                      A                      A
 Frequencies --    724.0447               774.2158               805.2080
 Red. masses --      2.9833                 4.0342                 1.3897
 Frc consts  --      0.9215                 1.4247                 0.5309
 IR Inten    --     11.7116                26.4773                13.8555

                     31                     32                     33
                      A                      A                      A
 Frequencies --    844.5789               859.2031               867.8267
 Red. masses --      1.9387                 2.0149                 1.9476
 Frc consts  --      0.8148                 0.8764                 0.8642
 IR Inten    --     16.1813                16.0933                15.0465

                     34                     35                     36
                      A                      A                      A
 Frequencies --    885.5835               938.0634               953.3534
 Red. masses --      2.3459                 2.6177                 5.3206
 Frc consts  --      1.0840                 1.3571                 2.8492
 IR Inten    --      3.9862                11.9846                11.3716

                     37                     38                     39
                      A                      A                      A
 Frequencies --    965.7904               994.7658              1004.4865
 Red. masses --      3.5210                 1.5108                 3.0043
 Frc consts  --      1.9350                 0.8808                 1.7860
 IR Inten    --      1.4098                 2.0749                15.8322

                     40                     41                     42
                      A                      A                      A
 Frequencies --   1037.8587              1052.5751              1114.1699
 Red. masses --      3.3129                 3.0345                 2.2232
 Frc consts  --      2.1025                 1.9808                 1.6260
 IR Inten    --      4.8953                12.8850                12.9407

                     43                     44                     45
                      A                      A                      A
 Frequencies --   1139.8868              1145.1819              1146.4243
 Red. masses --      1.5025                 1.5269                 2.2133
 Frc consts  --      1.1503                 1.1798                 1.7139
 IR Inten    --     98.9630                10.4637                15.9414

                     46                     47                     48
                      A                      A                      A
 Frequencies --   1160.1064              1179.2502              1218.0092
 Red. masses --      1.3964                 1.8199                 1.8605
 Frc consts  --      1.1072                 1.4911                 1.6263
 IR Inten    --     41.1539               145.3771                49.8266

                     49                     50                     51
                      A                      A                      A
 Frequencies --   1258.8030              1266.4038              1290.9885
 Red. masses --      1.5862                 1.8812                 1.4341
 Frc consts  --      1.4809                 1.7775                 1.4083
 IR Inten    --     11.5073                10.9448                 9.1599

                     52                     53                     54
                      A                      A                      A
 Frequencies --   1297.9565              1310.6252              1352.8018
 Red. masses --      1.3260                 1.5887                 1.6916
 Frc consts  --      1.3162                 1.6078                 1.8240
 IR Inten    --     11.5918                12.1548                 1.7458

                     55                     56                     57
                      A                      A                      A
 Frequencies --   1353.6717              1365.9773              1404.1575
 Red. masses --      1.2995                 1.2145                 1.5444
 Frc consts  --      1.4030                 1.3351                 1.7941
 IR Inten    --      6.5708                24.2509                38.6299

                     58                     59                     60
                      A                      A                      A
 Frequencies --   1408.5424              1435.2926              1441.2013
 Red. masses --      2.4139                 1.3567                 2.6711
 Frc consts  --      2.8217                 1.6467                 3.2689
 IR Inten    --      5.6518                 7.2165               170.3700

                     61                     62                     63
                      A                      A                      A
 Frequencies --   1452.7626              1490.8225              1508.1824
 Red. masses --      2.7144                 1.1002                 1.5630
 Frc consts  --      3.3753                 1.4407                 2.0947
 IR Inten    --     27.0209                17.5487                20.3730

                     64                     65                     66
                      A                      A                      A
 Frequencies --   1514.7559              1525.1211              1537.5086
 Red. masses --      1.7547                 1.1012                 1.2260
 Frc consts  --      2.3721                 1.5092                 1.7075
 IR Inten    --      0.8327                21.3832               256.9580

                     67                     68                     69
                      A                      A                      A
 Frequencies --   1574.1952              1631.0724              1669.7519
 Red. masses --      2.2462                 4.2167                 1.1260
 Frc consts  --      3.2796                 6.6095                 1.8496
 IR Inten    --    181.9382                17.0650                44.2885

                     70                     71                     72
                      A                      A                      A
 Frequencies --   1733.6432              1749.9037              1846.9608
 Red. masses --      1.7749                 1.6541                10.1465
 Frc consts  --      3.1431                 2.9842                20.3930
 IR Inten    --    294.5072                28.7696               237.5864

                     73                     74                     75
                      A                      A                      A
 Frequencies --   2912.3216              3072.6756              3074.8125
 Red. masses --      1.0821                 1.0667                 1.0612
 Frc consts  --      5.4074                 5.9337                 5.9112
 IR Inten    --    876.7911                10.8469                 3.4309

                     76                     77                     78
                      A                      A                      A
 Frequencies --   3113.7716              3123.7365              3133.5603
 Red. masses --      1.0948                 1.0680                 1.0981
 Frc consts  --      6.2541                 6.1400                 6.3529
 IR Inten    --      1.8908                 6.0122                 1.4384

                     79                     80                     81
                      A                      A                      A
 Frequencies --   3158.1224              3177.5568              3203.7392
 Red. masses --      1.0871                 1.1094                 1.0705
 Frc consts  --      6.3883                 6.5997                 6.4735
 IR Inten    --      2.9590                14.3420               222.1220

                     82                     83                     84
                      A                      A                      A
 Frequencies --   3280.6646              3284.3697              3506.8694
 Red. masses --      1.0959                 1.1010                 1.0794
 Frc consts  --      6.9495                 6.9974                 7.8209
 IR Inten    --      0.1698                 2.9382               110.4400

                     85                     86                     87
                      A                      A                      A
 Frequencies --   3588.5416              3629.5790              3670.8308
 Red. masses --      1.0777                 1.0817                 1.0643
 Frc consts  --      8.1770                 8.3963                 8.4497
 IR Inten    --     68.6181                76.2444               109.2206

 - Thermochemistry -
 -------------------
 Temperature   298.150 Kelvin.  Pressure   1.00000 Atm.
 Atom     1 has atomic number  8 and mass  15.99491

 Molecular mass:   227.11442 amu.
 Principal axes and moments of inertia in atomic units:
                           1         2         3
     Eigenvalues --  2140.172184571.687285608.99131
           X           -0.09972   0.28913   0.95208
           Y           -0.04349   0.95467  -0.29448
           Z            0.99406   0.07077   0.08262
 This molecule is an asymmetric top.
 Rotational symmetry number  1.
 Warning -- assumption of classical behavior for rotation
           may cause significant error
 Rotational temperatures (Kelvin)      0.04047     0.01895     0.01544
 Rotational constants (GHZ):           0.84327     0.39476     0.32176
 Zero-point vibrational energy     687755.8 (Joules/Mol)
                                  164.37758 (Kcal/Mol)
 Warning -- explicit consideration of  21 degrees of freedom as
           vibrations may cause significant error
 Vibrational temperatures:     52.58    76.13   133.00   158.64   163.38
          (Kelvin)            189.12   212.80   230.11   276.59   315.28
                              381.71   443.60   451.78   489.83   526.30
                              597.76   636.56   685.51   754.59   795.71
                              853.66   897.78   909.59   918.97   987.29
                              995.25   996.61  1041.74  1113.92  1158.51
                             1215.16  1236.20  1248.61  1274.16  1349.66
                             1371.66  1389.56  1431.24  1445.23  1493.25
                             1514.42  1603.04  1640.04  1647.66  1649.45
                             1669.13  1696.68  1752.44  1811.13  1822.07
                             1857.44  1867.47  1885.69  1946.38  1947.63
                             1965.33  2020.27  2026.58  2065.06  2073.56
                             2090.20  2144.96  2169.94  2179.39  2194.31
                             2212.13  2264.91  2346.75  2402.40  2494.32
                             2517.72  2657.36  4190.18  4420.89  4423.96
                             4480.02  4494.35  4508.49  4543.83  4571.79
                             4609.46  4720.14  4725.47  5045.60  5163.10
                             5222.15  5281.50

 Zero-point correction=                           0.261952 (Hartree/Particle)
 Thermal correction to Energy=                    0.276922
 Thermal correction to Enthalpy=                  0.277866
 Thermal correction to Gibbs Free Energy=         0.219562
 Sum of electronic and zero-point Energies=           -796.283733
 Sum of electronic and thermal Energies=              -796.268763
 Sum of electronic and thermal Enthalpies=            -796.267819
 Sum of electronic and thermal Free Energies=         -796.326123

                     E (Thermal)             CV                S
                      KCal/Mol        Cal/Mol-Kelvin    Cal/Mol-Kelvin
 Total                  173.771             57.143            122.711
 Electronic               0.000              0.000              0.000
 Translational            0.889              2.981             42.163
 Rotational               0.889              2.981             32.373
 Vibrational            171.994             51.182             48.175
 Vibration     1          0.594              1.982              5.438
 Vibration     2          0.596              1.976              4.706
 Vibration     3          0.602              1.955              3.608
 Vibration     4          0.606              1.941              3.264
 Vibration     5          0.607              1.938              3.207
 Vibration     6          0.612              1.922              2.925
 Vibration     7          0.617              1.905              2.699
 Vibration     8          0.622              1.891              2.551
 Vibration     9          0.634              1.851              2.206
 Vibration    10          0.647              1.812              1.966
 Vibration    11          0.671              1.737              1.627
 Vibration    12          0.698              1.658              1.371
 Vibration    13          0.702              1.647              1.341
 Vibration    14          0.720              1.595              1.210
 Vibration    15          0.739              1.543              1.097
 Vibration    16          0.779              1.437              0.908
 Vibration    17          0.802              1.378              0.819
 Vibration    18          0.833              1.302              0.720
 Vibration    19          0.879              1.196              0.600
 Vibration    20          0.908              1.133              0.538
 Vibration    21          0.951              1.046              0.461

 Optimization completed.
    -- Stationary point found.
 Normal termination of Gaussian 09 at Tue Jul 27 02:28:43 2021.
