 Gaussian 09, Revision D.01,
 Gaussian 09:  ES64L-G09RevD.01 24-Apr-2013

 ----------------------------------------------------------------------
 # B3LYP/6-31G(d) EmpiricalDispersion=GD3BJ opt=calcfc freq=noraman nos
 ymm integral(ultrafinegrid)
 ----------------------------------------------------------------------

 ------------------------------------------------------------
 Candidate Structure: Conf:628 OPT and FREQ calc in gas phase
 ------------------------------------------------------------
 Symbolic Z-matrix:
 Charge =  1 Multiplicity = 1

 SCF Done:  E(RB3LYP) =  -796.516430959     A.U. after   14 cycles
 SCF Done:  E(RB3LYP) =  -796.523206869     A.U. after   12 cycles
 SCF Done:  E(RB3LYP) =  -796.524570001     A.U. after   13 cycles
 SCF Done:  E(RB3LYP) =  -796.525102001     A.U. after   11 cycles
 SCF Done:  E(RB3LYP) =  -796.525219492     A.U. after   12 cycles
 SCF Done:  E(RB3LYP) =  -796.525233113     A.U. after   10 cycles
 SCF Done:  E(RB3LYP) =  -796.525234580     A.U. after    9 cycles
 SCF Done:  E(RB3LYP) =  -796.525234768     A.U. after    8 cycles
 SCF Done:  E(RB3LYP) =  -796.525234818     A.U. after    7 cycles
 Optimization completed.
    -- Stationary point found.
 Normal termination of Gaussian 09 at Tue Jul 27 01:51:11 2021.

 --------------------------------------------------------------------
 #N Geom=AllCheck Guess=TCheck SCRF=Check GenChk RB3LYP/6-31G(d) Freq
 --------------------------------------------------------------------

 Structure from the checkpoint file:  "conf-628.chk"
 ------------------------------------------------------------
 Candidate Structure: Conf:628 OPT and FREQ calc in gas phase
 ------------------------------------------------------------
 Charge =  1 Multiplicity = 1

                          Input orientation:
 ---------------------------------------------------------------------
 Center     Atomic      Atomic             Coordinates (Angstroms)
 Number     Number       Type             X           Y           Z
 ---------------------------------------------------------------------
      1          8           0       -1.388463   -0.036540   -0.855028
      2          6           0       -1.518391   -0.203481    0.379058
      3          7           0       -0.477043   -0.379537    1.187012
      4          6           0        0.902133   -0.417474    0.704003
      5          6           0        1.711073   -0.987383    1.860560
      6          8           0        3.013515   -1.120713    1.562185
      7          8           0        1.235396   -1.266900    2.939509
      8          6           0        1.420391    0.984659    0.241434
      9          6           0        2.343112    0.930598   -0.926919
     10          6           0        2.145448    1.292853   -2.240184
     11          7           0        3.270287    1.056066   -2.993939
     12          6           0        4.148738    0.549171   -2.154423
     13          7           0        3.642670    0.453648   -0.888279
     14          6           0       -2.908895   -0.175524    1.015139
     15          6           0       -3.966670   -0.749787    0.067522
     16          7           0       -3.916611   -0.003641   -1.247990
     17          1           0       -0.594842   -0.589941    2.175168
     18          1           0        0.958656   -1.099171   -0.150798
     19          1           0        3.458563   -1.480227    2.355056
     20          1           0        0.545719    1.561012   -0.067151
     21          1           0        1.860711    1.509952    1.098061
     22          1           0        1.251724    1.719399   -2.676617
     23          1           0        5.155194    0.239143   -2.400453
     24          1           0        4.095531    0.055062   -0.078652
     25          1           0       -2.935409   -0.744908    1.948831
     26          1           0       -3.151640    0.863774    1.274417
     27          1           0       -3.754851   -1.794802   -0.168850
     28          1           0       -4.973124   -0.677086    0.481966
     29          1           0       -4.319299    0.935888   -1.176816
     30          1           0       -2.855301    0.077205   -1.439990
     31          1           0       -4.398302   -0.501033   -2.002438
 ---------------------------------------------------------------------

 SCF Done:  E(RB3LYP) =  -796.525234818     A.U. after    1 cycles

 Alpha  occ. eigenvalues --  -19.33406 -19.29057 -19.27805 -14.61111 -14.51961
 Alpha  occ. eigenvalues --  -14.46751 -14.38450 -10.45860 -10.45853 -10.42560
 Alpha  occ. eigenvalues --  -10.37821 -10.37606 -10.31869 -10.31396 -10.30210
 Alpha  occ. eigenvalues --  -10.27547  -1.24435  -1.20776  -1.15828  -1.15510
 Alpha  occ. eigenvalues --   -1.08922  -1.08411  -0.96248  -0.94633  -0.91766
 Alpha  occ. eigenvalues --   -0.85399  -0.83001  -0.78130  -0.76966  -0.75379
 Alpha  occ. eigenvalues --   -0.74263  -0.72573  -0.69235  -0.67924  -0.66853
 Alpha  occ. eigenvalues --   -0.65976  -0.64132  -0.62411  -0.61647  -0.61038
 Alpha  occ. eigenvalues --   -0.60245  -0.58747  -0.57884  -0.56233  -0.55918
 Alpha  occ. eigenvalues --   -0.54937  -0.54195  -0.52217  -0.51247  -0.49914
 Alpha  occ. eigenvalues --   -0.49176  -0.49061  -0.48133  -0.45440  -0.43155
 Alpha  occ. eigenvalues --   -0.41751  -0.41433  -0.35506  -0.33811  -0.30410
 Alpha virt. eigenvalues --   -0.14687  -0.12604  -0.12353  -0.07518  -0.05947
 Alpha virt. eigenvalues --   -0.05556  -0.05294  -0.04059  -0.01985  -0.01502
 Alpha virt. eigenvalues --   -0.01054  -0.00336   0.00436   0.01051   0.01662

 Mulliken charges:
               1
     1  O   -0.568096
     2  C    0.660533
     3  N   -0.606677
     4  C   -0.027615
     5  C    0.595830
     6  O   -0.568290
     7  O   -0.452343
     8  C   -0.376731
     9  C    0.315844
    10  C   -0.063212
    11  N   -0.412558
    12  C    0.213508
    13  N   -0.606179
    14  C   -0.402525
    15  C   -0.198706
    16  N   -0.752678
    17  H    0.376952
    18  H    0.226588
    19  H    0.442500
    20  H    0.188609
    21  H    0.180204
    22  H    0.132138
    23  H    0.173900
    24  H    0.346249
    25  H    0.219425
    26  H    0.218081
    27  H    0.232992
    28  H    0.230705
    29  H    0.409105
    30  H    0.454537
    31  H    0.417911
 Sum of Mulliken charges =   1.00000

 Dipole moment (field-independent basis, Debye):
    X=            -12.1545    Y=             -2.1700    Z=              2.7200  Tot=             12.6428
 Quadrupole moment (field-independent basis, Debye-Ang):
   XX=             -4.0240   YY=            -87.5632   ZZ=            -93.4453
   XY=             -6.4175   XZ=             25.8299   YZ=              2.4295

  Exact polarizability: 155.687  -6.310  80.885  -5.725 -16.143 131.796
 Approx polarizability: 198.314 -16.119 122.278  -5.718 -22.942 214.686

                      1                      2                      3
                      A                      A                      A
 Frequencies --     23.4479                30.1957                46.7731
 Red. masses --      4.9078                 3.9976                 4.9462
 Frc consts  --      0.0016                 0.0021                 0.0064
 IR Inten    --      4.1532                10.9370                 2.2592

                      4                      5                      6
                      A                      A                      A
 Frequencies --     59.6593                74.3706                99.9081
 Red. masses --      4.9798                 5.3181                 5.6988
 Frc consts  --      0.0104                 0.0173                 0.0335
 IR Inten    --      5.4492                 2.4015                 6.2202

                      7                      8                      9
                      A                      A                      A
 Frequencies --    120.4967               130.1443               190.7897
 Red. masses --      5.0534                 5.5199                 5.0671
 Frc consts  --      0.0432                 0.0551                 0.1087
 IR Inten    --      2.7924                 0.4180                 7.2316

                     10                     11                     12
                      A                      A                      A
 Frequencies --    210.4734               262.5566               288.6229
 Red. masses --      2.2105                 5.1559                 4.1945
 Frc consts  --      0.0577                 0.2094                 0.2059
 IR Inten    --     20.0839                48.6780                 2.6416

                     13                     14                     15
                      A                      A                      A
 Frequencies --    324.5023               348.0391               387.2416
 Red. masses --      2.0624                 5.8934                 2.9576
 Frc consts  --      0.1280                 0.4206                 0.2613
 IR Inten    --      8.6947                 0.2445                 8.8229

                     16                     17                     18
                      A                      A                      A
 Frequencies --    391.5367               401.8192               446.5589
 Red. masses --      1.7935                 2.7612                 2.3676
 Frc consts  --      0.1620                 0.2627                 0.2782
 IR Inten    --     48.4632                83.8725                 4.0452

                     19                     20                     21
                      A                      A                      A
 Frequencies --    536.5061               543.9666               588.6695
 Red. masses --      1.5839                 2.7581                 2.5200
 Frc consts  --      0.2686                 0.4808                 0.5145
 IR Inten    --     68.2354                66.3873                 5.5335

                     22                     23                     24
                      A                      A                      A
 Frequencies --    606.7014               644.2411               669.0595
 Red. masses --      2.2512                 2.8889                 2.1813
 Frc consts  --      0.4882                 0.7064                 0.5753
 IR Inten    --     31.5895                76.5747               125.4216

                     25                     26                     27
                      A                      A                      A
 Frequencies --    671.0113               682.4577               732.1369
 Red. masses --      1.2864                 2.5412                 2.9448
 Frc consts  --      0.3413                 0.6973                 0.9300
 IR Inten    --      3.1081                 0.8164                10.0756

                     28                     29                     30
                      A                      A                      A
 Frequencies --    736.9614               773.9974               814.1686
 Red. masses --      2.9637                 3.9358                 1.3763
 Frc consts  --      0.9484                 1.3892                 0.5375
 IR Inten    --     45.4022                 8.6568                17.2726

                     31                     32                     33
                      A                      A                      A
 Frequencies --    828.2406               845.2939               856.8310
 Red. masses --      2.6313                 1.4105                 2.6325
 Frc consts  --      1.0635                 0.5938                 1.1387
 IR Inten    --      6.1098                15.9649                29.9341

                     34                     35                     36
                      A                      A                      A
 Frequencies --    891.8932               938.7626               954.2125
 Red. masses --      1.9968                 5.8949                 2.3073
 Frc consts  --      0.9359                 3.0608                 1.2378
 IR Inten    --     91.4472                12.7560                 3.3237

                     37                     38                     39
                      A                      A                      A
 Frequencies --    958.4071              1008.1192              1010.3013
 Red. masses --      1.4159                 3.5386                 3.6583
 Frc consts  --      0.7663                 2.1189                 2.2000
 IR Inten    --      4.5248                 1.5675                 3.5948

                     40                     41                     42
                      A                      A                      A
 Frequencies --   1031.2806              1039.0301              1111.3728
 Red. masses --      3.6319                 3.2005                 2.6396
 Frc consts  --      2.2758                 2.0358                 1.9209
 IR Inten    --     26.7025                11.7502                 5.8272

                     43                     44                     45
                      A                      A                      A
 Frequencies --   1125.5981              1139.3352              1146.4332
 Red. masses --      1.5973                 1.4927                 1.5396
 Frc consts  --      1.1923                 1.1416                 1.1922
 IR Inten    --     33.9998               123.6271                55.7359

                     46                     47                     48
                      A                      A                      A
 Frequencies --   1161.9860              1200.6250              1210.1448
 Red. masses --      2.0086                 1.2846                 2.4582
 Frc consts  --      1.5979                 1.0910                 2.1210
 IR Inten    --     18.2366                 7.1968               181.6304

                     49                     50                     51
                      A                      A                      A
 Frequencies --   1262.9583              1281.6103              1288.9575
 Red. masses --      1.4664                 1.7678                 1.6513
 Frc consts  --      1.3781                 1.7108                 1.6164
 IR Inten    --     12.8332                 6.9720                 4.4943

                     52                     53                     54
                      A                      A                      A
 Frequencies --   1302.4110              1322.0266              1339.7839
 Red. masses --      1.3143                 1.3124                 1.3396
 Frc consts  --      1.3135                 1.3514                 1.4168
 IR Inten    --     13.5253                 0.6487                 5.9873

                     55                     56                     57
                      A                      A                      A
 Frequencies --   1343.6663              1377.4152              1396.0416
 Red. masses --      1.2496                 1.5330                 1.6240
 Frc consts  --      1.3293                 1.7137                 1.8648
 IR Inten    --     50.8919                41.1925                11.2548

                     58                     59                     60
                      A                      A                      A
 Frequencies --   1406.7042              1415.8551              1447.1396
 Red. masses --      3.1731                 1.2834                 2.5251
 Frc consts  --      3.6995                 1.5159                 3.1157
 IR Inten    --     35.1667                60.3335                63.6876

                     61                     62                     63
                      A                      A                      A
 Frequencies --   1449.5141              1490.8688              1491.2332
 Red. masses --      2.7290                 1.2427                 1.1117
 Frc consts  --      3.3783                 1.6274                 1.4565
 IR Inten    --     18.2209               521.3653                83.1410

                     64                     65                     66
                      A                      A                      A
 Frequencies --   1502.1931              1515.7095              1529.6978
 Red. masses --      1.1894                 2.9766                 1.0781
 Frc consts  --      1.5813                 4.0290                 1.4864
 IR Inten    --      7.9228                23.0853                43.9721

                     67                     68                     69
                      A                      A                      A
 Frequencies --   1584.9376              1623.7344              1661.0066
 Red. masses --      2.8111                 4.4264                 1.1710
 Frc consts  --      4.1606                 6.8760                 1.9036
 IR Inten    --    239.8173                 3.1577                38.2565

                     70                     71                     72
                      A                      A                      A
 Frequencies --   1705.7348              1736.3813              1840.3427
 Red. masses --      1.0961                 2.9835                 9.6460
 Frc consts  --      1.8791                 5.2999                19.2485
 IR Inten    --     87.4041               120.0163               278.6933

                     73                     74                     75
                      A                      A                      A
 Frequencies --   2597.8780              3056.3547              3061.4191
 Red. masses --      1.0898                 1.0698                 1.0685
 Frc consts  --      4.3335                 5.8880                 5.9004
 IR Inten    --   1182.0930                19.8731                 1.1403

                     76                     77                     78
                      A                      A                      A
 Frequencies --   3094.9174              3118.4557              3129.5576
 Red. masses --      1.0840                 1.0659                 1.0911
 Frc consts  --      6.1176                 6.1074                 6.2965
 IR Inten    --      3.7279                 1.6378                 1.0856

                     79                     80                     81
                      A                      A                      A
 Frequencies --   3135.3353              3178.3059              3254.8378
 Red. masses --      1.0947                 1.1115                 1.0964
 Frc consts  --      6.3402                 6.6153                 6.8434
 IR Inten    --      5.0730                 0.5934                 7.7132

                     82                     83                     84
                      A                      A                      A
 Frequencies --   3274.0722              3453.0250              3523.7305
 Red. masses --      1.0981                 1.0530                 1.0952
 Frc consts  --      6.9351                 7.3975                 8.0123
 IR Inten    --      0.7477                85.1539                76.9751

                     85                     86                     87
                      A                      A                      A
 Frequencies --   3539.0644              3656.5580              3668.1337
 Red. masses --      1.0786                 1.0808                 1.0643
 Frc consts  --      7.9596                 8.5141                 8.4375
 IR Inten    --    132.6890                85.8081               105.4133

 - Thermochemistry -
 -------------------
 Temperature   298.150 Kelvin.  Pressure   1.00000 Atm.
 Atom     1 has atomic number  8 and mass  15.99491

 Molecular mass:   227.11442 amu.
 Principal axes and moments of inertia in atomic units:
                           1         2         3
     Eigenvalues --  2503.388735915.633638102.47523
           X            0.97791   0.20470  -0.04225
           Y            0.11768  -0.37214   0.92069
           Z           -0.17275   0.90532   0.38801
 This molecule is an asymmetric top.
 Rotational symmetry number  1.
 Warning -- assumption of classical behavior for rotation
           may cause significant error
 Rotational temperatures (Kelvin)      0.03460     0.01464     0.01069
 Rotational constants (GHZ):           0.72092     0.30508     0.22274
 Zero-point vibrational energy     683979.5 (Joules/Mol)
                                  163.47503 (Kcal/Mol)
 Warning -- explicit consideration of  22 degrees of freedom as
           vibrations may cause significant error
 Vibrational temperatures:     33.74    43.44    67.30    85.84   107.00
          (Kelvin)            143.75   173.37   187.25   274.50   302.82
                              377.76   415.26   466.89   500.75   557.15
                              563.33   578.13   642.50   771.91   782.65
                              846.96   872.91   926.92   962.63   965.43
                              981.90  1053.38  1060.32  1113.61  1171.41
                             1191.65  1216.19  1232.79  1283.23  1350.67
                             1372.90  1378.93  1450.46  1453.60  1483.78
                             1494.93  1599.02  1619.48  1639.25  1649.46
                             1671.84  1727.43  1741.13  1817.11  1843.95
                             1854.52  1873.88  1902.10  1927.65  1933.23
                             1981.79  2008.59  2023.93  2037.10  2082.11
                             2085.52  2145.02  2145.55  2161.32  2180.77
                             2200.89  2280.37  2336.19  2389.82  2454.17
                             2498.26  2647.84  3737.76  4397.41  4404.69
                             4452.89  4486.76  4502.73  4511.04  4572.87
                             4682.98  4710.65  4968.13  5069.86  5091.92
                             5260.96  5277.62

 Zero-point correction=                           0.260514 (Hartree/Particle)
 Thermal correction to Energy=                    0.276063
 Thermal correction to Enthalpy=                  0.277007
 Thermal correction to Gibbs Free Energy=         0.215009
 Sum of electronic and zero-point Energies=           -796.264721
 Sum of electronic and thermal Energies=              -796.249172
 Sum of electronic and thermal Enthalpies=            -796.248228
 Sum of electronic and thermal Free Energies=         -796.310226

                     E (Thermal)             CV                S
                      KCal/Mol        Cal/Mol-Kelvin    Cal/Mol-Kelvin
 Total                  173.232             57.478            130.486
 Electronic               0.000              0.000              0.000
 Translational            0.889              2.981             42.163
 Rotational               0.889              2.981             33.150
 Vibrational            171.455             51.517             55.172
 Vibration     1          0.593              1.985              6.318
 Vibration     2          0.594              1.984              5.817
 Vibration     3          0.595              1.979              4.949
 Vibration     4          0.597              1.974              4.468
 Vibration     5          0.599              1.966              4.034
 Vibration     6          0.604              1.949              3.456
 Vibration     7          0.609              1.932              3.092
 Vibration     8          0.612              1.923              2.944
 Vibration     9          0.634              1.853              2.220
 Vibration    10          0.643              1.825              2.040
 Vibration    11          0.670              1.741              1.645
 Vibration    12          0.685              1.695              1.482
 Vibration    13          0.709              1.626              1.287
 Vibration    14          0.726              1.579              1.175
 Vibration    15          0.756              1.497              1.011
 Vibration    16          0.759              1.488              0.994
 Vibration    17          0.767              1.466              0.956
 Vibration    18          0.806              1.368              0.806
 Vibration    19          0.892              1.169              0.573
 Vibration    20          0.899              1.153              0.557
 Vibration    21          0.946              1.056              0.470
 Vibration    22          0.965              1.018              0.438

 Optimization completed.
    -- Stationary point found.
 Normal termination of Gaussian 09 at Tue Jul 27 02:07:17 2021.
