 Gaussian 09, Revision D.01,
 Gaussian 09:  ES64L-G09RevD.01 24-Apr-2013

 ----------------------------------------------------------------------
 # B3LYP/6-31G(d) EmpiricalDispersion=GD3BJ opt=calcfc freq=noraman nos
 ymm integral(ultrafinegrid)
 ----------------------------------------------------------------------

 ------------------------------------------------------------
 Candidate Structure: Conf:342 OPT and FREQ calc in gas phase
 ------------------------------------------------------------
 Symbolic Z-matrix:
 Charge =  1 Multiplicity = 1

 SCF Done:  E(RB3LYP) =  -796.489062477     A.U. after   17 cycles
 SCF Done:  E(RB3LYP) =  -796.495442226     A.U. after   13 cycles
 SCF Done:  E(RB3LYP) =  -796.496431414     A.U. after   13 cycles
 SCF Done:  E(RB3LYP) =  -796.496962905     A.U. after   12 cycles
 SCF Done:  E(RB3LYP) =  -796.497420639     A.U. after   11 cycles
 SCF Done:  E(RB3LYP) =  -796.498200699     A.U. after   14 cycles
 SCF Done:  E(RB3LYP) =  -796.498365949     A.U. after   12 cycles
 SCF Done:  E(RB3LYP) =  -796.498488825     A.U. after   11 cycles
 SCF Done:  E(RB3LYP) =  -796.498495883     A.U. after   10 cycles
 SCF Done:  E(RB3LYP) =  -796.498502759     A.U. after   10 cycles
 SCF Done:  E(RB3LYP) =  -796.498503420     A.U. after    9 cycles
 SCF Done:  E(RB3LYP) =  -796.498503522     A.U. after    8 cycles
 SCF Done:  E(RB3LYP) =  -796.498503531     A.U. after    7 cycles
 Optimization completed.
    -- Stationary point found.
 Normal termination of Gaussian 09 at Tue Jul 27 01:56:22 2021.

 --------------------------------------------------------------------
 #N Geom=AllCheck Guess=TCheck SCRF=Check GenChk RB3LYP/6-31G(d) Freq
 --------------------------------------------------------------------

 Structure from the checkpoint file:  "conf-342.chk"
 ------------------------------------------------------------
 Candidate Structure: Conf:342 OPT and FREQ calc in gas phase
 ------------------------------------------------------------
 Charge =  1 Multiplicity = 1

                          Input orientation:
 ---------------------------------------------------------------------
 Center     Atomic      Atomic             Coordinates (Angstroms)
 Number     Number       Type             X           Y           Z
 ---------------------------------------------------------------------
      1          8           0        1.017169   -1.197101    0.144709
      2          6           0        1.391842   -0.081462   -0.214681
      3          7           0        0.573452    0.932519   -0.535115
      4          6           0       -0.864438    0.750586   -0.639014
      5          6           0       -1.382279    1.948270   -1.452611
      6          8           0       -2.696596    2.016505   -1.649149
      7          8           0       -0.621346    2.786036   -1.886825
      8          6           0       -1.550280    0.628632    0.752688
      9          6           0       -2.899984   -0.001810    0.662784
     10          6           0       -4.186565    0.499982    0.705761
     11          7           0       -5.113147   -0.504758    0.531177
     12          6           0       -4.411420   -1.605507    0.382149
     13          7           0       -3.065652   -1.360361    0.443237
     14          6           0        2.898387    0.227629   -0.329353
     15          6           0        3.634927   -0.732215    0.591608
     16          7           0        5.136953   -0.703617    0.322967
     17          1           0        0.906778    1.801233   -0.949312
     18          1           0       -1.064279   -0.170320   -1.201267
     19          1           0       -3.176763    1.311336   -1.160700
     20          1           0       -1.628749    1.617338    1.215032
     21          1           0       -0.894039    0.022874    1.384940
     22          1           0       -4.491325    1.523587    0.884143
     23          1           0       -4.813250   -2.597335    0.225759
     24          1           0       -2.321338   -2.043029    0.390351
     25          1           0        3.107049    1.274079   -0.081666
     26          1           0        3.194486    0.065013   -1.375263
     27          1           0        3.293123   -1.754710    0.429119
     28          1           0        3.507864   -0.481103    1.646169
     29          1           0        5.344901   -0.965740   -0.648764
     30          1           0        5.532529    0.232089    0.476897
     31          1           0        5.641718   -1.357698    0.934220
 ---------------------------------------------------------------------

 SCF Done:  E(RB3LYP) =  -796.498503531     A.U. after    1 cycles

 Alpha  occ. eigenvalues --  -19.28909 -19.25584 -19.23956 -14.66926 -14.49156
 Alpha  occ. eigenvalues --  -14.48334 -14.39834 -10.43590 -10.43415 -10.42444
 Alpha  occ. eigenvalues --  -10.37531 -10.35879 -10.32869 -10.31915 -10.31420
 Alpha  occ. eigenvalues --  -10.29131  -1.20834  -1.20234  -1.17502  -1.12228
 Alpha  occ. eigenvalues --   -1.10383  -1.05880  -0.96827  -0.96058  -0.90925
 Alpha  occ. eigenvalues --   -0.85823  -0.82970  -0.79343  -0.78879  -0.77314
 Alpha  occ. eigenvalues --   -0.72652  -0.70819  -0.70266  -0.69448  -0.68206
 Alpha  occ. eigenvalues --   -0.66916  -0.64838  -0.63299  -0.60422  -0.59868
 Alpha  occ. eigenvalues --   -0.58027  -0.57044  -0.56348  -0.54641  -0.54274
 Alpha  occ. eigenvalues --   -0.53511  -0.52548  -0.51331  -0.50304  -0.50099
 Alpha  occ. eigenvalues --   -0.49620  -0.48353  -0.46976  -0.41425  -0.39852
 Alpha  occ. eigenvalues --   -0.39135  -0.38011  -0.36891  -0.35024  -0.32080
 Alpha virt. eigenvalues --   -0.17127  -0.12232  -0.10306  -0.10113  -0.09292
 Alpha virt. eigenvalues --   -0.07249  -0.06833  -0.03934  -0.03412  -0.02607
 Alpha virt. eigenvalues --   -0.01842  -0.01260   0.00919   0.01541   0.02038

 Mulliken charges:
               1
     1  O   -0.527993
     2  C    0.648404
     3  N   -0.616434
     4  C   -0.072766
     5  C    0.615580
     6  O   -0.557657
     7  O   -0.456974
     8  C   -0.361902
     9  C    0.263433
    10  C   -0.097100
    11  N   -0.396800
    12  C    0.220621
    13  N   -0.594060
    14  C   -0.407761
    15  C   -0.205868
    16  N   -0.733335
    17  H    0.368460
    18  H    0.196929
    19  H    0.432971
    20  H    0.191379
    21  H    0.190674
    22  H    0.171299
    23  H    0.183868
    24  H    0.347824
    25  H    0.196441
    26  H    0.202823
    27  H    0.261740
    28  H    0.238629
    29  H    0.429793
    30  H    0.430517
    31  H    0.437266
 Sum of Mulliken charges =   1.00000

 Dipole moment (field-independent basis, Debye):
    X=             21.7852    Y=             -4.5798    Z=              2.3051  Tot=             22.3804
 Quadrupole moment (field-independent basis, Debye-Ang):
   XX=             13.8574   YY=            -88.6216   ZZ=            -92.1640
   XY=             -5.8068   XZ=              5.6580   YZ=              6.7980

  Exact polarizability: 166.495   3.424 121.153  -2.224 -10.636  83.068
 Approx polarizability: 215.450   6.410 201.507  -3.586 -14.033 125.302

                      1                      2                      3
                      A                      A                      A
 Frequencies --     18.7794                24.1032                40.0024
 Red. masses --      2.3004                 4.3566                 2.8527
 Frc consts  --      0.0005                 0.0015                 0.0027
 IR Inten    --      1.1323                 1.8722                 9.1731

                      4                      5                      6
                      A                      A                      A
 Frequencies --     60.8227                73.5334                87.2646
 Red. masses --      5.1634                 4.2549                 6.4265
 Frc consts  --      0.0113                 0.0136                 0.0288
 IR Inten    --      1.9354                 5.5878                12.1379

                      7                      8                      9
                      A                      A                      A
 Frequencies --    102.6885               112.3949               147.3663
 Red. masses --      7.9422                 6.1393                 4.1332
 Frc consts  --      0.0493                 0.0457                 0.0529
 IR Inten    --      3.1991                10.2980                 8.9944

                     10                     11                     12
                      A                      A                      A
 Frequencies --    193.6051               216.7659               236.7264
 Red. masses --      5.0206                 2.8518                 1.2934
 Frc consts  --      0.1109                 0.0789                 0.0427
 IR Inten    --      0.9625                27.0437                 4.6265

                     13                     14                     15
                      A                      A                      A
 Frequencies --    276.1723               334.2415               337.6773
 Red. masses --      5.7605                 2.1380                 6.9934
 Frc consts  --      0.2589                 0.1407                 0.4698
 IR Inten    --     12.5009                 2.6365                 4.6513

                     16                     17                     18
                      A                      A                      A
 Frequencies --    350.6457               381.0396               385.8332
 Red. masses --      5.2836                 3.6899                 4.5529
 Frc consts  --      0.3828                 0.3157                 0.3993
 IR Inten    --      5.7945                21.6556                12.4823

                     19                     20                     21
                      A                      A                      A
 Frequencies --    540.8859               550.7611               588.0955
 Red. masses --      1.9002                 2.3810                 2.5312
 Frc consts  --      0.3275                 0.4255                 0.5158
 IR Inten    --     68.7091                15.1943                11.7187

                     22                     23                     24
                      A                      A                      A
 Frequencies --    620.4708               663.1532               665.3982
 Red. masses --      3.6555                 1.6699                 1.9893
 Frc consts  --      0.8292                 0.4327                 0.5189
 IR Inten    --     50.1214                13.6411                84.4631

                     25                     26                     27
                      A                      A                      A
 Frequencies --    673.3450               688.3650               723.8576
 Red. masses --      2.3031                 2.7158                 2.0122
 Frc consts  --      0.6152                 0.7582                 0.6212
 IR Inten    --     12.8248                 9.5430                58.3984

                     28                     29                     30
                      A                      A                      A
 Frequencies --    744.0869               773.5433               800.6000
 Red. masses --      2.7618                 4.0587                 1.3318
 Frc consts  --      0.9009                 1.4309                 0.5029
 IR Inten    --      2.4055                 1.2033                 8.4618

                     31                     32                     33
                      A                      A                      A
 Frequencies --    826.7909               832.8517               859.9374
 Red. masses --      1.6702                 2.2659                 1.2742
 Frc consts  --      0.6727                 0.9260                 0.5552
 IR Inten    --     13.8765                 3.0674                 9.8630

                     34                     35                     36
                      A                      A                      A
 Frequencies --    891.7098               926.1523               937.3960
 Red. masses --      2.8159                 1.2711                 5.5466
 Frc consts  --      1.3192                 0.6424                 2.8716
 IR Inten    --     40.3225                 5.3833                 4.2209

                     37                     38                     39
                      A                      A                      A
 Frequencies --    942.2178               991.3644              1008.8146
 Red. masses --      3.5580                 2.0618                 3.4660
 Frc consts  --      1.8610                 1.1939                 2.0783
 IR Inten    --     34.2140                12.7326                37.8614

                     40                     41                     42
                      A                      A                      A
 Frequencies --   1034.3347              1036.6697              1105.2787
 Red. masses --      3.8018                 3.2282                 1.6215
 Frc consts  --      2.3964                 2.0441                 1.1671
 IR Inten    --      9.4451                 2.0803                16.1599

                     43                     44                     45
                      A                      A                      A
 Frequencies --   1114.7945              1130.2165              1158.1754
 Red. masses --      1.6374                 2.2365                 2.0534
 Frc consts  --      1.1989                 1.6832                 1.6228
 IR Inten    --     19.1243                34.3496                13.9053

                     46                     47                     48
                      A                      A                      A
 Frequencies --   1165.3026              1183.6774              1246.2684
 Red. masses --      2.3867                 1.4760                 1.6292
 Frc consts  --      1.9096                 1.2185                 1.4909
 IR Inten    --      4.7777                 3.4417                12.6613

                     49                     50                     51
                      A                      A                      A
 Frequencies --   1251.4041              1271.3500              1292.2475
 Red. masses --      1.7032                 2.2337                 1.3740
 Frc consts  --      1.5715                 2.1272                 1.3518
 IR Inten    --      6.4403                18.7270                 1.4033

                     52                     53                     54
                      A                      A                      A
 Frequencies --   1302.2683              1320.2878              1334.8786
 Red. masses --      1.3086                 1.3010                 1.2351
 Frc consts  --      1.3075                 1.3361                 1.2967
 IR Inten    --      4.0424                20.0905                 7.0457

                     55                     56                     57
                      A                      A                      A
 Frequencies --   1341.8484              1362.2156              1377.8767
 Red. masses --      1.3786                 1.4595                 1.7754
 Frc consts  --      1.4625                 1.5957                 1.9860
 IR Inten    --      8.4524               104.0455                89.8052

                     58                     59                     60
                      A                      A                      A
 Frequencies --   1399.0343              1414.3084              1431.0741
 Red. masses --      2.2933                 1.3666                 2.3394
 Frc consts  --      2.6447                 1.6105                 2.8228
 IR Inten    --      4.6349                11.5822               225.1782

                     61                     62                     63
                      A                      A                      A
 Frequencies --   1441.9236              1505.1236              1510.6662
 Red. masses --      2.8643                 1.1147                 1.1028
 Frc consts  --      3.5087                 1.4878                 1.4828
 IR Inten    --     23.2133                 0.5270                11.4198

                     64                     65                     66
                      A                      A                      A
 Frequencies --   1516.2363              1522.8415              1544.4312
 Red. masses --      3.9244                 1.0765                 1.2679
 Frc consts  --      5.3157                 1.4709                 1.7818
 IR Inten    --     32.4012                12.1415               344.2228

                     67                     68                     69
                      A                      A                      A
 Frequencies --   1553.9158              1615.7925              1697.3914
 Red. masses --      2.2375                 4.2998                 1.0430
 Frc consts  --      3.1833                 6.6141                 1.7704
 IR Inten    --    176.0829                 7.6487                58.0238

                     70                     71                     72
                      A                      A                      A
 Frequencies --   1701.3917              1769.6446              1850.7466
 Red. masses --      1.0449                 9.8958                 9.2115
 Frc consts  --      1.7821                18.2588                18.5897
 IR Inten    --     46.8058               244.3095               286.4940

                     73                     74                     75
                      A                      A                      A
 Frequencies --   3045.4140              3058.0509              3080.1601
 Red. masses --      1.0644                 1.0828                 1.0608
 Frc consts  --      5.8164                 5.9662                 5.9298
 IR Inten    --      3.5331                 6.8923                12.3003

                     76                     77                     78
                      A                      A                      A
 Frequencies --   3106.4383              3126.9668              3131.5730
 Red. masses --      1.1000                 1.1055                 1.0605
 Frc consts  --      6.2543                 6.3688                 6.1277
 IR Inten    --      5.0278                 3.6326                 1.8991

                     79                     80                     81
                      A                      A                      A
 Frequencies --   3196.6888              3254.4137              3276.5325
 Red. masses --      1.1113                 1.0966                 1.0984
 Frc consts  --      6.6909                 6.8431                 6.9478
 IR Inten    --      1.9714                 1.8877                 0.5917

                     82                     83                     84
                      A                      A                      A
 Frequencies --   3391.3058              3480.9051              3482.3126
 Red. masses --      1.0308                 1.0938                 1.0941
 Frc consts  --      6.9846                 7.8086                 7.8168
 IR Inten    --     55.0357                92.1668                91.0545

                     85                     86                     87
                      A                      A                      A
 Frequencies --   3508.4893              3516.3688              3630.4555
 Red. masses --      1.0696                 1.0760                 1.0813
 Frc consts  --      7.7573                 7.8385                 8.3972
 IR Inten    --    255.1070               365.5545                50.6375

 - Thermochemistry -
 -------------------
 Temperature   298.150 Kelvin.  Pressure   1.00000 Atm.
 Atom     1 has atomic number  8 and mass  15.99491

 Molecular mass:   227.11442 amu.
 Principal axes and moments of inertia in atomic units:
                           1         2         3
     Eigenvalues --  1963.098787348.999368944.03076
           X            0.99896   0.03572   0.02850
           Y           -0.04540   0.84618   0.53096
           Z           -0.00515  -0.53170   0.84692
 This molecule is an asymmetric top.
 Rotational symmetry number  1.
 Warning -- assumption of classical behavior for rotation
           may cause significant error
 Rotational temperatures (Kelvin)      0.04412     0.01179     0.00968
 Rotational constants (GHZ):           0.91933     0.24558     0.20178
 Zero-point vibrational energy     684378.5 (Joules/Mol)
                                  163.57039 (Kcal/Mol)
 Warning -- explicit consideration of  22 degrees of freedom as
           vibrations may cause significant error
 Vibrational temperatures:     27.02    34.68    57.55    87.51   105.80
          (Kelvin)            125.55   147.75   161.71   212.03   278.55
                              311.88   340.60   397.35   480.90   485.84
                              504.50   548.23   555.13   778.21   792.42
                              846.14   892.72   954.13   957.36   968.79
                              990.40  1041.47  1070.57  1112.95  1151.88
                             1189.57  1198.29  1237.26  1282.97  1332.52
                             1348.70  1355.64  1426.35  1451.46  1488.18
                             1491.53  1590.25  1603.94  1626.13  1666.35
                             1676.61  1703.05  1793.10  1800.49  1829.19
                             1859.25  1873.67  1899.60  1920.59  1930.62
                             1959.92  1982.45  2012.90  2034.87  2058.99
                             2074.60  2165.53  2173.51  2181.52  2191.03
                             2222.09  2235.74  2324.76  2442.16  2447.92
                             2546.12  2662.81  4381.67  4399.85  4431.66
                             4469.47  4499.00  4505.63  4599.32  4682.37
                             4714.19  4879.33  5008.24  5010.26  5047.93
                             5059.26  5223.41

 Zero-point correction=                           0.260666 (Hartree/Particle)
 Thermal correction to Energy=                    0.276822
 Thermal correction to Enthalpy=                  0.277766
 Thermal correction to Gibbs Free Energy=         0.213669
 Sum of electronic and zero-point Energies=           -796.237838
 Sum of electronic and thermal Energies=              -796.221681
 Sum of electronic and thermal Enthalpies=            -796.220737
 Sum of electronic and thermal Free Energies=         -796.284835

                     E (Thermal)             CV                S
                      KCal/Mol        Cal/Mol-Kelvin    Cal/Mol-Kelvin
 Total                  173.709             58.283            134.905
 Electronic               0.000              0.000              0.000
 Translational            0.889              2.981             42.163
 Rotational               0.889              2.981             33.223
 Vibrational            171.931             52.321             59.519
 Vibration     1          0.593              1.986              6.759
 Vibration     2          0.593              1.985              6.264
 Vibration     3          0.594              1.981              5.259
 Vibration     4          0.597              1.973              4.430
 Vibration     5          0.599              1.966              4.056
 Vibration     6          0.601              1.958              3.720
 Vibration     7          0.605              1.947              3.403
 Vibration     8          0.607              1.939              3.227
 Vibration     9          0.617              1.906              2.706
 Vibration    10          0.635              1.849              2.193
 Vibration    11          0.646              1.816              1.986
 Vibration    12          0.656              1.785              1.827
 Vibration    13          0.678              1.717              1.557
 Vibration    14          0.716              1.607              1.240
 Vibration    15          0.718              1.600              1.223
 Vibration    16          0.728              1.574              1.163
 Vibration    17          0.751              1.511              1.035
 Vibration    18          0.755              1.500              1.016
 Vibration    19          0.896              1.160              0.563
 Vibration    20          0.906              1.138              0.543
 Vibration    21          0.945              1.057              0.471
 Vibration    22          0.981              0.989              0.416

 Optimization completed on the basis of negligible forces.
    -- Stationary point found.
 Normal termination of Gaussian 09 at Tue Jul 27 02:11:57 2021.
