 Gaussian 09, Revision D.01,
 Gaussian 09:  ES64L-G09RevD.01 24-Apr-2013

 ----------------------------------------------------------------------
 # B3LYP/6-31G(d) EmpiricalDispersion=GD3BJ opt=calcfc freq=noraman nos
 ymm integral(ultrafinegrid)
 ----------------------------------------------------------------------

 ------------------------------------------------------------
 Candidate Structure: Conf:661 OPT and FREQ calc in gas phase
 ------------------------------------------------------------
 Symbolic Z-matrix:
 Charge =  1 Multiplicity = 1

 SCF Done:  E(RB3LYP) =  -796.498278488     A.U. after   15 cycles
 SCF Done:  E(RB3LYP) =  -796.482109371     A.U. after   15 cycles
 SCF Done:  E(RB3LYP) =  -796.506157784     A.U. after   12 cycles
 SCF Done:  E(RB3LYP) =  -796.509437164     A.U. after   13 cycles
 SCF Done:  E(RB3LYP) =  -796.513172844     A.U. after   15 cycles
 SCF Done:  E(RB3LYP) =  -796.516116893     A.U. after   13 cycles
 SCF Done:  E(RB3LYP) =  -796.518175811     A.U. after   13 cycles
 SCF Done:  E(RB3LYP) =  -796.518323552     A.U. after   14 cycles
 SCF Done:  E(RB3LYP) =  -796.518716337     A.U. after   13 cycles
 SCF Done:  E(RB3LYP) =  -796.518991555     A.U. after   12 cycles
 SCF Done:  E(RB3LYP) =  -796.519086922     A.U. after   12 cycles
 SCF Done:  E(RB3LYP) =  -796.519097538     A.U. after   11 cycles
 SCF Done:  E(RB3LYP) =  -796.519111079     A.U. after   10 cycles
 SCF Done:  E(RB3LYP) =  -796.519115654     A.U. after    9 cycles
 SCF Done:  E(RB3LYP) =  -796.519116657     A.U. after    8 cycles
 SCF Done:  E(RB3LYP) =  -796.519117041     A.U. after    8 cycles
 SCF Done:  E(RB3LYP) =  -796.519117371     A.U. after    8 cycles
 SCF Done:  E(RB3LYP) =  -796.519117556     A.U. after    8 cycles
 SCF Done:  E(RB3LYP) =  -796.519117619     A.U. after    7 cycles
 Optimization completed.
    -- Stationary point found.
 Normal termination of Gaussian 09 at Tue Jul 27 02:09:01 2021.

 --------------------------------------------------------------------
 #N Geom=AllCheck Guess=TCheck SCRF=Check GenChk RB3LYP/6-31G(d) Freq
 --------------------------------------------------------------------

 Structure from the checkpoint file:  "conf-661.chk"
 ------------------------------------------------------------
 Candidate Structure: Conf:661 OPT and FREQ calc in gas phase
 ------------------------------------------------------------
 Charge =  1 Multiplicity = 1

                          Input orientation:
 ---------------------------------------------------------------------
 Center     Atomic      Atomic             Coordinates (Angstroms)
 Number     Number       Type             X           Y           Z
 ---------------------------------------------------------------------
      1          8           0        2.122433    1.131508    0.949300
      2          6           0        1.418070    0.969014   -0.038436
      3          7           0        0.192562    0.376575    0.034676
      4          6           0       -0.255531   -0.141115    1.304119
      5          6           0        0.766678   -1.179589    1.790956
      6          8           0        0.782218   -1.448332    3.091445
      7          8           0        1.480268   -1.823711    1.039158
      8          6           0       -1.639084   -0.843467    1.131964
      9          6           0       -2.599310   -0.023875    0.340906
     10          6           0       -2.927719   -0.071849   -0.998888
     11          7           0       -3.779565    0.953663   -1.337056
     12          6           0       -3.972878    1.625805   -0.223869
     13          7           0       -3.271714    1.087080    0.822353
     14          6           0        1.976855    1.158751   -1.443698
     15          6           0        3.124516    0.156747   -1.587785
     16          7           0        2.628412   -1.263495   -1.375285
     17          1           0       -0.496187    0.456322   -0.708469
     18          1           0       -0.327988    0.666709    2.044157
     19          1           0        0.224901   -0.830088    3.595498
     20          1           0       -2.028338   -1.096591    2.124591
     21          1           0       -1.481138   -1.789686    0.604131
     22          1           0       -2.627076   -0.817827   -1.724504
     23          1           0       -4.603189    2.497097   -0.109502
     24          1           0       -3.303377    1.403264    1.781957
     25          1           0        2.397512    2.163107   -1.544343
     26          1           0        1.222933    1.022635   -2.227252
     27          1           0        3.869835    0.336425   -0.811771
     28          1           0        3.593415    0.194409   -2.572434
     29          1           0        3.408646   -1.928915   -1.392437
     30          1           0        2.128713   -1.397228   -0.445739
     31          1           0        1.974723   -1.543237   -2.113737
 ---------------------------------------------------------------------

 SCF Done:  E(RB3LYP) =  -796.519117619     A.U. after    1 cycles

 Alpha  occ. eigenvalues --  -19.34495 -19.29288 -19.26305 -14.61173 -14.50926
 Alpha  occ. eigenvalues --  -14.50637 -14.42051 -10.47549 -10.43619 -10.41355
 Alpha  occ. eigenvalues --  -10.39210 -10.35945 -10.35003 -10.34989 -10.34228
 Alpha  occ. eigenvalues --  -10.31458  -1.25623  -1.18905  -1.17039  -1.15569
 Alpha  occ. eigenvalues --   -1.12630  -1.07726  -0.98318  -0.95388  -0.92952
 Alpha  occ. eigenvalues --   -0.87028  -0.82635  -0.79730  -0.77375  -0.75173
 Alpha  occ. eigenvalues --   -0.74100  -0.73419  -0.72675  -0.70721  -0.68009
 Alpha  occ. eigenvalues --   -0.66209  -0.65573  -0.64720  -0.64459  -0.60427
 Alpha  occ. eigenvalues --   -0.59317  -0.58575  -0.57586  -0.56919  -0.55968
 Alpha  occ. eigenvalues --   -0.55294  -0.53896  -0.53404  -0.52663  -0.51992
 Alpha  occ. eigenvalues --   -0.51911  -0.51486  -0.49987  -0.46523  -0.43573
 Alpha  occ. eigenvalues --   -0.40982  -0.40154  -0.39257  -0.37287  -0.34290
 Alpha virt. eigenvalues --   -0.14735  -0.13422  -0.12010  -0.09330  -0.07411
 Alpha virt. eigenvalues --   -0.07028  -0.05808  -0.04596  -0.03836  -0.02331
 Alpha virt. eigenvalues --   -0.01205  -0.00615   0.00203   0.00725   0.01447

 Mulliken charges:
               1
     1  O   -0.483778
     2  C    0.570683
     3  N   -0.616273
     4  C   -0.051340
     5  C    0.676880
     6  O   -0.524418
     7  O   -0.501152
     8  C   -0.398132
     9  C    0.313409
    10  C   -0.091051
    11  N   -0.398235
    12  C    0.221379
    13  N   -0.603575
    14  C   -0.367436
    15  C   -0.198307
    16  N   -0.776746
    17  H    0.355505
    18  H    0.183334
    19  H    0.439541
    20  H    0.183542
    21  H    0.197887
    22  H    0.147514
    23  H    0.192099
    24  H    0.346284
    25  H    0.234540
    26  H    0.178382
    27  H    0.251341
    28  H    0.221545
    29  H    0.420376
    30  H    0.472219
    31  H    0.403981
 Sum of Mulliken charges =   1.00000

 Dipole moment (field-independent basis, Debye):
    X=              4.5822    Y=             -1.5363    Z=             -1.4627  Tot=              5.0494
 Quadrupole moment (field-independent basis, Debye-Ang):
   XX=            -62.7703   YY=            -82.5182   ZZ=            -67.0834
   XY=            -12.5130   XZ=            -37.2578   YZ=              9.7914

  Exact polarizability: 135.370 -16.765 103.352  -1.396  -3.187 126.844
 Approx polarizability: 178.515 -21.906 158.603   9.900   6.317 207.819

                      1                      2                      3
                      A                      A                      A
 Frequencies --     27.5247                36.4243                60.6100
 Red. masses --      3.7981                 4.3505                 6.7811
 Frc consts  --      0.0017                 0.0034                 0.0147
 IR Inten    --     10.8437                 2.3268                10.9474

                      4                      5                      6
                      A                      A                      A
 Frequencies --     70.8644                77.7585               113.7167
 Red. masses --      4.2291                 5.7140                 4.5974
 Frc consts  --      0.0125                 0.0204                 0.0350
 IR Inten    --      6.9982                 5.1995                 2.0020

                      7                      8                      9
                      A                      A                      A
 Frequencies --    150.3242               158.6303               176.2416
 Red. masses --      5.3688                 6.1421                 6.7945
 Frc consts  --      0.0715                 0.0911                 0.1243
 IR Inten    --     20.1631                 3.8556                14.0290

                     10                     11                     12
                      A                      A                      A
 Frequencies --    237.1861               252.4230               281.6165
 Red. masses --      4.1560                 2.6096                 5.8275
 Frc consts  --      0.1378                 0.0980                 0.2723
 IR Inten    --     72.4977                 8.6703                 6.7267

                     13                     14                     15
                      A                      A                      A
 Frequencies --    319.4650               332.0738               346.6208
 Red. masses --      3.1625                 1.2009                 3.1750
 Frc consts  --      0.1902                 0.0780                 0.2248
 IR Inten    --     10.4008                 0.6490                 6.3989

                     16                     17                     18
                      A                      A                      A
 Frequencies --    382.0283               423.5009               444.3025
 Red. masses --      3.5468                 3.8127                 2.4679
 Frc consts  --      0.3050                 0.4029                 0.2870
 IR Inten    --     14.9970                40.2201                 1.7816

                     19                     20                     21
                      A                      A                      A
 Frequencies --    517.1869               523.2541               541.2362
 Red. masses --      1.3244                 1.4016                 1.1955
 Frc consts  --      0.2087                 0.2261                 0.2063
 IR Inten    --      6.7084                68.5461               124.8066

                     22                     23                     24
                      A                      A                      A
 Frequencies --    549.1209               634.2690               656.8418
 Red. masses --      2.3756                 4.5768                 3.2917
 Frc consts  --      0.4220                 1.0848                 0.8367
 IR Inten    --     22.7247                 5.9558                 5.7480

                     25                     26                     27
                      A                      A                      A
 Frequencies --    678.8513               695.6078               716.3252
 Red. masses --      3.0942                 3.6649                 4.6438
 Frc consts  --      0.8401                 1.0448                 1.4039
 IR Inten    --      2.6971                10.5758                11.6903

                     28                     29                     30
                      A                      A                      A
 Frequencies --    747.0529               780.2442               830.9575
 Red. masses --      2.5990                 5.5555                 1.3579
 Frc consts  --      0.8546                 1.9927                 0.5524
 IR Inten    --      2.8705                 2.6774                24.2327

                     31                     32                     33
                      A                      A                      A
 Frequencies --    841.6752               846.8001               867.6013
 Red. masses --      1.4484                 2.9962                 2.3601
 Frc consts  --      0.6045                 1.2659                 1.0467
 IR Inten    --     15.3703                 0.5231                 6.3676

                     34                     35                     36
                      A                      A                      A
 Frequencies --    882.3130               935.6521               942.1114
 Red. masses --      2.1099                 6.0162                 2.5261
 Frc consts  --      0.9677                 3.1031                 1.3210
 IR Inten    --     15.9271                 9.8933                 7.0484

                     37                     38                     39
                      A                      A                      A
 Frequencies --    960.0145               966.0175              1011.8085
 Red. masses --      1.3469                 3.1761                 2.8124
 Frc consts  --      0.7314                 1.7463                 1.6964
 IR Inten    --      9.7762                 4.2718                12.2002

                     40                     41                     42
                      A                      A                      A
 Frequencies --   1020.4930              1049.4716              1101.8349
 Red. masses --      3.5073                 2.9472                 1.5322
 Frc consts  --      2.1520                 1.9125                 1.0960
 IR Inten    --     13.8656                 5.7918                 3.8566

                     43                     44                     45
                      A                      A                      A
 Frequencies --   1118.2981              1128.0575              1152.7366
 Red. masses --      1.6695                 1.3523                 1.8847
 Frc consts  --      1.2301                 1.0139                 1.4755
 IR Inten    --     21.4747                 4.4290                27.2148

                     46                     47                     48
                      A                      A                      A
 Frequencies --   1162.0544              1206.9828              1221.4463
 Red. masses --      2.0715                 1.6215                 1.6278
 Frc consts  --      1.6481                 1.3918                 1.4309
 IR Inten    --     11.6782                11.5124                32.4172

                     49                     50                     51
                      A                      A                      A
 Frequencies --   1252.0267              1274.8950              1287.9268
 Red. masses --      1.6430                 1.8355                 1.5447
 Frc consts  --      1.5174                 1.7578                 1.5097
 IR Inten    --     75.2400                 5.1382                 6.2259

                     52                     53                     54
                      A                      A                      A
 Frequencies --   1295.7432              1315.3881              1344.3027
 Red. masses --      1.5102                 1.4191                 1.3779
 Frc consts  --      1.4939                 1.4467                 1.4671
 IR Inten    --     46.6518                70.2769               103.5331

                     55                     56                     57
                      A                      A                      A
 Frequencies --   1358.0139              1368.8351              1395.5340
 Red. masses --      1.5936                 1.5196                 1.4343
 Frc consts  --      1.7316                 1.6776                 1.6458
 IR Inten    --    148.6208                20.2636                 2.2675

                     58                     59                     60
                      A                      A                      A
 Frequencies --   1407.6116              1419.9875              1420.4567
 Red. masses --      3.1994                 1.3199                 2.0414
 Frc consts  --      3.7350                 1.5680                 2.4268
 IR Inten    --      7.3028                 9.6878               155.8231

                     61                     62                     63
                      A                      A                      A
 Frequencies --   1442.8144              1501.2343              1502.3858
 Red. masses --      2.8851                 1.0990                 1.3699
 Frc consts  --      3.5386                 1.4594                 1.8218
 IR Inten    --     27.6160                14.7978                15.7452

                     64                     65                     66
                      A                      A                      A
 Frequencies --   1516.9197              1519.6342              1533.4963
 Red. masses --      2.3625                 1.0790                 2.2268
 Frc consts  --      3.2029                 1.4681                 3.0852
 IR Inten    --     52.7764                16.2710               318.6717

                     67                     68                     69
                      A                      A                      A
 Frequencies --   1608.6584              1615.9985              1699.1977
 Red. masses --      1.1552                 4.2115                 1.0534
 Frc consts  --      1.7613                 6.4799                 1.7921
 IR Inten    --    109.1167                 7.8736                54.8769

                     70                     71                     72
                      A                      A                      A
 Frequencies --   1713.3076              1780.2046              1808.6101
 Red. masses --      1.0492                 8.0805                 8.6982
 Frc consts  --      1.8146                15.0878                16.7637
 IR Inten    --     36.1418               206.2294               391.0266

                     73                     74                     75
                      A                      A                      A
 Frequencies --   2841.8425              3046.1712              3068.0752
 Red. masses --      1.0861                 1.0850                 1.0616
 Frc consts  --      5.1679                 5.9319                 5.8875
 IR Inten    --   1251.1767                12.3727                13.1197

                     76                     77                     78
                      A                      A                      A
 Frequencies --   3078.5907              3114.9747              3124.7315
 Red. masses --      1.0648                 1.1037                 1.0612
 Frc consts  --      5.9459                 6.3094                 6.1047
 IR Inten    --      7.6196                 6.7712                 1.9842

                     79                     80                     81
                      A                      A                      A
 Frequencies --   3141.3523              3188.9371              3244.2888
 Red. masses --      1.1000                 1.1121                 1.0963
 Frc consts  --      6.3953                 6.6633                 6.7986
 IR Inten    --      2.1832                 0.3212                 4.6638

                     82                     83                     84
                      A                      A                      A
 Frequencies --   3279.1799              3444.1434              3508.5246
 Red. masses --      1.0986                 1.0544                 1.0931
 Frc consts  --      6.9604                 7.3692                 7.9282
 IR Inten    --      0.5899                78.5229                65.8426

                     85                     86                     87
                      A                      A                      A
 Frequencies --   3529.0175              3636.7461              3720.2277
 Red. masses --      1.0792                 1.0813                 1.0663
 Frc consts  --      7.9188                 8.4258                 8.6952
 IR Inten    --    198.2932                52.9048                65.5812

 - Thermochemistry -
 -------------------
 Temperature   298.150 Kelvin.  Pressure   1.00000 Atm.
 Atom     1 has atomic number  8 and mass  15.99491

 Molecular mass:   227.11442 amu.
 Principal axes and moments of inertia in atomic units:
                           1         2         3
     Eigenvalues --  2361.330125240.155306416.38803
           X            0.98113  -0.09751   0.16697
           Y           -0.19309  -0.44862   0.87262
           Z            0.01018   0.88839   0.45898
 This molecule is an asymmetric top.
 Rotational symmetry number  1.
 Warning -- assumption of classical behavior for rotation
           may cause significant error
 Rotational temperatures (Kelvin)      0.03668     0.01653     0.01350
 Rotational constants (GHZ):           0.76429     0.34441     0.28127
 Zero-point vibrational energy     685027.2 (Joules/Mol)
                                  163.72544 (Kcal/Mol)
 Warning -- explicit consideration of  22 degrees of freedom as
           vibrations may cause significant error
 Vibrational temperatures:     39.60    52.41    87.20   101.96   111.88
          (Kelvin)            163.61   216.28   228.23   253.57   341.26
                              363.18   405.18   459.64   477.78   498.71
                              549.65   609.32   639.25   744.12   752.84
                              778.72   790.06   912.57   945.05   976.71
                             1000.82  1030.63  1074.84  1122.60  1195.56
                             1210.98  1218.35  1248.28  1269.45  1346.19
                             1355.49  1381.24  1389.88  1455.76  1468.26
                             1509.95  1585.29  1608.98  1623.02  1658.53
                             1671.94  1736.58  1757.39  1801.38  1834.29
                             1853.04  1864.28  1892.55  1934.15  1953.88
                             1969.45  2007.86  2025.24  2043.04  2043.72
                             2075.89  2159.94  2161.60  2182.51  2186.41
                             2206.36  2314.50  2325.06  2444.76  2465.06
                             2561.31  2602.18  4088.77  4382.76  4414.27
                             4429.40  4481.75  4495.79  4519.70  4588.16
                             4667.80  4718.00  4955.35  5047.98  5077.46
                             5232.46  5352.57

 Zero-point correction=                           0.260913 (Hartree/Particle)
 Thermal correction to Energy=                    0.276410
 Thermal correction to Enthalpy=                  0.277354
 Thermal correction to Gibbs Free Energy=         0.216550
 Sum of electronic and zero-point Energies=           -796.258205
 Sum of electronic and thermal Energies=              -796.242708
 Sum of electronic and thermal Enthalpies=            -796.241764
 Sum of electronic and thermal Free Energies=         -796.302568

                     E (Thermal)             CV                S
                      KCal/Mol        Cal/Mol-Kelvin    Cal/Mol-Kelvin
 Total                  173.450             57.840            127.972
 Electronic               0.000              0.000              0.000
 Translational            0.889              2.981             42.163
 Rotational               0.889              2.981             32.740
 Vibrational            171.672             51.878             53.069
 Vibration     1          0.593              1.984              6.000
 Vibration     2          0.594              1.982              5.445
 Vibration     3          0.597              1.973              4.437
 Vibration     4          0.598              1.968              4.129
 Vibration     5          0.599              1.964              3.947
 Vibration     6          0.607              1.938              3.204
 Vibration     7          0.618              1.902              2.668
 Vibration     8          0.621              1.893              2.566
 Vibration     9          0.628              1.872              2.368
 Vibration    10          0.656              1.784              1.824
 Vibration    11          0.664              1.759              1.714
 Vibration    12          0.681              1.708              1.524
 Vibration    13          0.705              1.636              1.313
 Vibration    14          0.714              1.611              1.250
 Vibration    15          0.725              1.582              1.182
 Vibration    16          0.751              1.509              1.031
 Vibration    17          0.786              1.419              0.880
 Vibration    18          0.804              1.373              0.813
 Vibration    19          0.872              1.212              0.617
 Vibration    20          0.878              1.199              0.602
 Vibration    21          0.896              1.159              0.563
 Vibration    22          0.904              1.142              0.546

 Normal termination of Gaussian 09 at Tue Jul 27 02:27:08 2021.
