 Gaussian 09, Revision D.01,
 Gaussian 09:  ES64L-G09RevD.01 24-Apr-2013

 ----------------------------------------------------------------------
 # B3LYP/6-31G(d) EmpiricalDispersion=GD3BJ opt=calcfc freq=noraman nos
 ymm integral(ultrafinegrid)
 ----------------------------------------------------------------------

 ------------------------------------------------------------
 Candidate Structure: Conf:301 OPT and FREQ calc in gas phase
 ------------------------------------------------------------
 Symbolic Z-matrix:
 Charge =  1 Multiplicity = 1

 SCF Done:  E(RB3LYP) =  -796.532858002     A.U. after   14 cycles
 SCF Done:  E(RB3LYP) =  -792.656184592     A.U. after   19 cycles
 SCF Done:  E(RB3LYP) =  -796.515920056     A.U. after   15 cycles
 SCF Done:  E(RB3LYP) =  -796.540625698     A.U. after   12 cycles
 SCF Done:  E(RB3LYP) =  -796.538830019     A.U. after   13 cycles
 SCF Done:  E(RB3LYP) =  -796.542849801     A.U. after   11 cycles
 SCF Done:  E(RB3LYP) =  -796.547410451     A.U. after   13 cycles
 SCF Done:  E(RB3LYP) =  -796.548152153     A.U. after   13 cycles
 SCF Done:  E(RB3LYP) =  -796.548430076     A.U. after   12 cycles
 SCF Done:  E(RB3LYP) =  -796.549097063     A.U. after   12 cycles
 SCF Done:  E(RB3LYP) =  -796.549244464     A.U. after   11 cycles
 SCF Done:  E(RB3LYP) =  -796.549257125     A.U. after   11 cycles
 SCF Done:  E(RB3LYP) =  -796.549266735     A.U. after    9 cycles
 SCF Done:  E(RB3LYP) =  -796.549267207     A.U. after    8 cycles
 SCF Done:  E(RB3LYP) =  -796.549267300     A.U. after    7 cycles
 Optimization completed.
    -- Stationary point found.
 Normal termination of Gaussian 09 at Tue Jul 27 02:07:20 2021.

 --------------------------------------------------------------------
 #N Geom=AllCheck Guess=TCheck SCRF=Check GenChk RB3LYP/6-31G(d) Freq
 --------------------------------------------------------------------

 Structure from the checkpoint file:  "conf-301.chk"
 ------------------------------------------------------------
 Candidate Structure: Conf:301 OPT and FREQ calc in gas phase
 ------------------------------------------------------------
 Charge =  1 Multiplicity = 1

                          Input orientation:
 ---------------------------------------------------------------------
 Center     Atomic      Atomic             Coordinates (Angstroms)
 Number     Number       Type             X           Y           Z
 ---------------------------------------------------------------------
      1          8           0       -0.047380   -0.270958   -1.657142
      2          6           0        0.399952    0.680854   -0.998372
      3          7           0       -0.380429    1.479245   -0.246748
      4          6           0       -1.743090    1.135049    0.105915
      5          6           0       -2.482426    2.431563    0.399952
      6          8           0       -3.807534    2.239849    0.438518
      7          8           0       -1.922056    3.480293    0.626154
      8          6           0       -1.788185    0.223369    1.388335
      9          6           0       -0.858968   -0.933518    1.265294
     10          6           0        0.499573   -1.012201    1.473249
     11          7           0        1.009552   -2.184588    0.950918
     12          6           0       -0.036534   -2.832462    0.456743
     13          7           0       -1.178987   -2.116812    0.626333
     14          6           0        1.900398    0.980347   -0.934100
     15          6           0        2.751067   -0.020573   -1.718331
     16          7           0        2.289517   -1.434499   -1.471343
     17          1           0       -0.011703    2.317351    0.190539
     18          1           0       -2.204885    0.612548   -0.733522
     19          1           0       -4.227381    3.089458    0.677907
     20          1           0       -1.490382    0.829838    2.249838
     21          1           0       -2.824241   -0.088193    1.553773
     22          1           0        1.135326   -0.291754    1.968897
     23          1           0       -0.018616   -3.809772   -0.005058
     24          1           0       -2.103541   -2.398259    0.328015
     25          1           0        2.204339    0.992021    0.117785
     26          1           0        2.103854    1.982564   -1.329129
     27          1           0        2.658232    0.139501   -2.794355
     28          1           0        3.802555    0.056574   -1.438357
     29          1           0        2.853248   -2.118722   -1.981955
     30          1           0        1.295355   -1.438580   -1.792081
     31          1           0        2.223562   -1.719949   -0.461996
 ---------------------------------------------------------------------

 SCF Done:  E(RB3LYP) =  -796.549267300     A.U. after    1 cycles

 Alpha  occ. eigenvalues --  -19.32027 -19.26989 -19.26553 -14.58228 -14.52493
 Alpha  occ. eigenvalues --  -14.50286 -14.45759 -10.44697 -10.44293 -10.40312
 Alpha  occ. eigenvalues --  -10.37719 -10.37542 -10.35806 -10.35356 -10.33787
 Alpha  occ. eigenvalues --  -10.33093  -1.23118  -1.18843  -1.14867  -1.14401
 Alpha  occ. eigenvalues --   -1.13286  -1.07196  -1.00659  -0.94598  -0.92437
 Alpha  occ. eigenvalues --   -0.87852  -0.82362  -0.80193  -0.75269  -0.74830
 Alpha  occ. eigenvalues --   -0.73134  -0.72507  -0.72077  -0.71064  -0.67561
 Alpha  occ. eigenvalues --   -0.65681  -0.63732  -0.62585  -0.61138  -0.60649
 Alpha  occ. eigenvalues --   -0.59598  -0.58656  -0.58014  -0.56680  -0.55405
 Alpha  occ. eigenvalues --   -0.54987  -0.54561  -0.53887  -0.53500  -0.52902
 Alpha  occ. eigenvalues --   -0.52269  -0.50206  -0.49691  -0.44158  -0.42678
 Alpha  occ. eigenvalues --   -0.41321  -0.41213  -0.40190  -0.39820  -0.35776
 Alpha virt. eigenvalues --   -0.13070  -0.12482  -0.10420  -0.09454  -0.08032
 Alpha virt. eigenvalues --   -0.05112  -0.03984  -0.03304  -0.03037  -0.01878
 Alpha virt. eigenvalues --   -0.01487   0.00592   0.00849   0.01143   0.01606

 Mulliken charges:
               1
     1  O   -0.561317
     2  C    0.656345
     3  N   -0.593240
     4  C   -0.044518
     5  C    0.599790
     6  O   -0.556128
     7  O   -0.448208
     8  C   -0.371674
     9  C    0.351469
    10  C   -0.091011
    11  N   -0.484535
    12  C    0.214417
    13  N   -0.576981
    14  C   -0.400973
    15  C   -0.187493
    16  N   -0.765868
    17  H    0.365431
    18  H    0.215295
    19  H    0.439025
    20  H    0.193892
    21  H    0.197643
    22  H    0.159690
    23  H    0.194187
    24  H    0.361610
    25  H    0.203188
    26  H    0.225190
    27  H    0.224204
    28  H    0.221459
    29  H    0.403834
    30  H    0.433510
    31  H    0.421769
 Sum of Mulliken charges =   1.00000

 Dipole moment (field-independent basis, Debye):
    X=              2.6765    Y=             -2.3350    Z=             -3.2285  Tot=              4.7999
 Quadrupole moment (field-independent basis, Debye-Ang):
   XX=            -48.7804   YY=            -71.9212   ZZ=            -82.7522
   XY=             -6.7978   XZ=            -19.7551   YZ=              8.7160

  Exact polarizability: 136.489 -13.375 130.989 -14.122  12.308  91.003
 Approx polarizability: 202.867  -2.430 199.343  -2.285  32.116 142.237

                      1                      2                      3
                      A                      A                      A
 Frequencies --     55.8736                68.3225                99.9910
 Red. masses --     10.7942                 4.7236                 4.9626
 Frc consts  --      0.0199                 0.0130                 0.0292
 IR Inten    --      1.4371                 0.3101                 3.8710

                      4                      5                      6
                      A                      A                      A
 Frequencies --    110.6532               114.4226               132.1046
 Red. masses --      3.8969                 4.9387                 3.3278
 Frc consts  --      0.0281                 0.0381                 0.0342
 IR Inten    --      5.0755                 1.3856                11.5134

                      7                      8                      9
                      A                      A                      A
 Frequencies --    155.1800               159.2047               182.9639
 Red. masses --      4.9939                 5.0613                 3.4157
 Frc consts  --      0.0709                 0.0756                 0.0674
 IR Inten    --      6.1500                 8.7024                 6.3830

                     10                     11                     12
                      A                      A                      A
 Frequencies --    215.6221               266.7690               309.3891
 Red. masses --      2.7642                 5.1063                 5.5788
 Frc consts  --      0.0757                 0.2141                 0.3146
 IR Inten    --     37.0479                39.6626                 1.1396

                     13                     14                     15
                      A                      A                      A
 Frequencies --    316.5611               347.6700               372.7457
 Red. masses --      3.5085                 3.0664                 3.3577
 Frc consts  --      0.2071                 0.2184                 0.2749
 IR Inten    --      2.1989                 1.1633                54.3204

                     16                     17                     18
                      A                      A                      A
 Frequencies --    404.4868               426.2608               448.1260
 Red. masses --      2.0934                 2.0879                 1.8732
 Frc consts  --      0.2018                 0.2235                 0.2216
 IR Inten    --     12.3347                 6.2940                 3.2224

                     19                     20                     21
                      A                      A                      A
 Frequencies --    534.3284               552.7587               586.7594
 Red. masses --      2.1018                 3.5660                 1.5413
 Frc consts  --      0.3536                 0.6419                 0.3126
 IR Inten    --     67.4470                18.7790               119.6908

                     22                     23                     24
                      A                      A                      A
 Frequencies --    615.6528               623.1407               637.9232
 Red. masses --      1.5072                 1.6106                 3.2012
 Frc consts  --      0.3366                 0.3685                 0.7675
 IR Inten    --     49.8608                15.2585                76.4400

                     25                     26                     27
                      A                      A                      A
 Frequencies --    684.8017               691.6630               696.8540
 Red. masses --      2.3679                 3.1156                 3.0986
 Frc consts  --      0.6543                 0.8782                 0.8866
 IR Inten    --     70.0502                25.0265                 1.1416

                     28                     29                     30
                      A                      A                      A
 Frequencies --    722.1987               774.6214               809.6636
 Red. masses --      3.2960                 4.0928                 1.3920
 Frc consts  --      1.0129                 1.4469                 0.5376
 IR Inten    --      4.6111                18.8806                 9.0158

                     31                     32                     33
                      A                      A                      A
 Frequencies --    839.7193               857.2434               869.5812
 Red. masses --      1.4093                 2.1701                 2.4801
 Frc consts  --      0.5855                 0.9396                 1.1049
 IR Inten    --     30.2880                10.0535                24.0454

                     34                     35                     36
                      A                      A                      A
 Frequencies --    886.6014               931.0860               950.7670
 Red. masses --      2.3482                 2.5889                 5.6147
 Frc consts  --      1.0875                 1.3223                 2.9904
 IR Inten    --      0.0444                15.6457                14.3405

                     37                     38                     39
                      A                      A                      A
 Frequencies --    979.1216               985.1726              1007.0811
 Red. masses --      1.6393                 2.6318                 3.0262
 Frc consts  --      0.9259                 1.5050                 1.8083
 IR Inten    --      7.9034                 9.6509                10.4491

                     40                     41                     42
                      A                      A                      A
 Frequencies --   1037.9568              1055.0655              1109.5463
 Red. masses --      3.4808                 2.8813                 2.0955
 Frc consts  --      2.2095                 1.8897                 1.5200
 IR Inten    --      5.0086                18.8947                 6.4499

                     43                     44                     45
                      A                      A                      A
 Frequencies --   1138.8785              1143.8502              1146.3596
 Red. masses --      1.4167                 1.6012                 1.7968
 Frc consts  --      1.0827                 1.2343                 1.3912
 IR Inten    --     50.3939                39.1519                52.8736

                     46                     47                     48
                      A                      A                      A
 Frequencies --   1157.6943              1184.6144              1217.6486
 Red. masses --      1.6701                 1.9510                 1.7689
 Frc consts  --      1.3188                 1.6131                 1.5452
 IR Inten    --      7.4892               201.1628                 8.9564

                     49                     50                     51
                      A                      A                      A
 Frequencies --   1261.3112              1270.8978              1292.2567
 Red. masses --      1.5305                 1.6660                 1.5468
 Frc consts  --      1.4345                 1.5854                 1.5219
 IR Inten    --     14.9603                30.9227                 0.4340

                     52                     53                     54
                      A                      A                      A
 Frequencies --   1295.5639              1300.5818              1343.9699
 Red. masses --      1.5168                 1.5258                 1.3281
 Frc consts  --      1.5000                 1.5207                 1.4134
 IR Inten    --      0.6381                10.5504                24.3709

                     55                     56                     57
                      A                      A                      A
 Frequencies --   1355.1513              1366.5709              1401.0252
 Red. masses --      1.4060                 1.2607                 1.8201
 Frc consts  --      1.5213                 1.3871                 2.1049
 IR Inten    --     33.3962                 3.4990                39.0912

                     58                     59                     60
                      A                      A                      A
 Frequencies --   1406.4600              1436.3134              1438.8799
 Red. masses --      2.5653                 1.4277                 2.4049
 Frc consts  --      2.9898                 1.7354                 2.9335
 IR Inten    --     10.4223                20.8538               135.9549

                     61                     62                     63
                      A                      A                      A
 Frequencies --   1451.4369              1492.2094              1508.1254
 Red. masses --      2.7959                 1.0933                 1.4055
 Frc consts  --      3.4703                 1.4343                 1.8835
 IR Inten    --     34.8825                19.3952                36.9502

                     64                     65                     66
                      A                      A                      A
 Frequencies --   1515.2091              1524.5508              1530.9902
 Red. masses --      1.7405                 1.2599                 1.1721
 Frc consts  --      2.3544                 1.7253                 1.6187
 IR Inten    --     45.1625                95.3707               109.8941

                     67                     68                     69
                      A                      A                      A
 Frequencies --   1576.4359              1625.7080              1669.8170
 Red. masses --      2.3270                 4.2237                 1.1420
 Frc consts  --      3.4072                 6.5770                 1.8762
 IR Inten    --    198.5731                 7.0605               135.8589

                     70                     71                     72
                      A                      A                      A
 Frequencies --   1722.3495              1743.3001              1849.4018
 Red. masses --      1.2089                 2.8291                10.1482
 Frc consts  --      2.1129                 5.0658                20.4504
 IR Inten    --    247.1248                58.2378               241.7143

                     73                     74                     75
                      A                      A                      A
 Frequencies --   3041.4953              3077.0143              3079.0027
 Red. masses --      1.0795                 1.0616                 1.0608
 Frc consts  --      5.8835                 5.9220                 5.9252
 IR Inten    --    569.7709                 9.2084                 6.0102

                     76                     77                     78
                      A                      A                      A
 Frequencies --   3114.2037              3122.2580              3124.4827
 Red. masses --      1.0881                 1.0749                 1.1018
 Frc consts  --      6.2177                 6.1737                 6.3373
 IR Inten    --      4.2012                20.8768                 1.5804

                     79                     80                     81
                      A                      A                      A
 Frequencies --   3142.7771              3149.0023              3178.1889
 Red. masses --      1.0890                 1.0687                 1.1092
 Frc consts  --      6.3373                 6.2439                 6.6009
 IR Inten    --      6.5281               277.6932                 5.4756

                     82                     83                     84
                      A                      A                      A
 Frequencies --   3265.5420              3280.0773              3506.3161
 Red. masses --      1.0968                 1.0992                 1.0794
 Frc consts  --      6.8911                 6.9675                 7.8186
 IR Inten    --      2.1762                 1.2011               104.5876

                     85                     86                     87
                      A                      A                      A
 Frequencies --   3576.6511              3636.7480              3672.3775
 Red. masses --      1.0779                 1.0819                 1.0643
 Frc consts  --      8.1243                 8.4304                 8.4571
 IR Inten    --     90.6760                78.9233               113.7574

 - Thermochemistry -
 -------------------
 Temperature   298.150 Kelvin.  Pressure   1.00000 Atm.
 Atom     1 has atomic number  8 and mass  15.99491

 Molecular mass:   227.11442 amu.
 Principal axes and moments of inertia in atomic units:
                           1         2         3
     Eigenvalues --  2160.529254499.841425860.19880
           X            0.73425   0.46898   0.49085
           Y           -0.64817   0.69927   0.30149
           Z           -0.20184  -0.53952   0.81742
 This molecule is an asymmetric top.
 Rotational symmetry number  1.
 Warning -- assumption of classical behavior for rotation
           may cause significant error
 Rotational temperatures (Kelvin)      0.04009     0.01925     0.01478
 Rotational constants (GHZ):           0.83532     0.40107     0.30797
 Zero-point vibrational energy     687609.6 (Joules/Mol)
                                  164.34264 (Kcal/Mol)
 Warning -- explicit consideration of  22 degrees of freedom as
           vibrations may cause significant error
 Vibrational temperatures:     80.39    98.30   143.86   159.21   164.63
          (Kelvin)            190.07   223.27   229.06   263.24   310.23
                              383.82   445.14   455.46   500.22   536.30
                              581.97   613.29   644.75   768.78   795.30
                              844.21   885.79   896.56   917.83   985.28
                              995.15  1002.62  1039.08  1114.51  1164.92
                             1208.17  1233.38  1251.13  1275.62  1339.62
                             1367.94  1408.74  1417.44  1448.96  1493.39
                             1518.00  1596.39  1638.59  1645.74  1649.35
                             1665.66  1704.39  1751.92  1814.74  1828.54
                             1859.27  1864.03  1871.24  1933.67  1949.76
                             1966.19  2015.76  2023.58  2066.53  2070.22
                             2088.29  2146.95  2169.85  2180.05  2193.49
                             2202.75  2268.14  2339.03  2402.49  2478.07
                             2508.22  2660.87  4376.03  4427.13  4429.99
                             4480.64  4492.23  4495.43  4521.75  4530.71
                             4572.70  4698.38  4719.29  5044.80  5146.00
                             5232.46  5283.73

 Zero-point correction=                           0.261897 (Hartree/Particle)
 Thermal correction to Energy=                    0.276818
 Thermal correction to Enthalpy=                  0.277762
 Thermal correction to Gibbs Free Energy=         0.220100
 Sum of electronic and zero-point Energies=           -796.287371
 Sum of electronic and thermal Energies=              -796.272449
 Sum of electronic and thermal Enthalpies=            -796.271505
 Sum of electronic and thermal Free Energies=         -796.329167

                     E (Thermal)             CV                S
                      KCal/Mol        Cal/Mol-Kelvin    Cal/Mol-Kelvin
 Total                  173.706             57.260            121.360
 Electronic               0.000              0.000              0.000
 Translational            0.889              2.981             42.163
 Rotational               0.889              2.981             32.410
 Vibrational            171.929             51.298             46.787
 Vibration     1          0.596              1.975              4.598
 Vibration     2          0.598              1.969              4.201
 Vibration     3          0.604              1.949              3.454
 Vibration     4          0.606              1.941              3.257
 Vibration     5          0.607              1.937              3.192
 Vibration     6          0.612              1.921              2.915
 Vibration     7          0.620              1.897              2.608
 Vibration     8          0.621              1.892              2.559
 Vibration     9          0.630              1.863              2.298
 Vibration    10          0.645              1.817              1.996
 Vibration    11          0.672              1.734              1.617
 Vibration    12          0.699              1.656              1.366
 Vibration    13          0.703              1.642              1.328
 Vibration    14          0.725              1.580              1.177
 Vibration    15          0.744              1.528              1.068
 Vibration    16          0.770              1.460              0.946
 Vibration    17          0.788              1.413              0.871
 Vibration    18          0.807              1.365              0.801
 Vibration    19          0.889              1.174              0.578
 Vibration    20          0.908              1.134              0.538
 Vibration    21          0.944              1.060              0.473
 Vibration    22          0.975              0.999              0.424

 Optimization completed.
    -- Stationary point found.
 Normal termination of Gaussian 09 at Tue Jul 27 02:27:07 2021.
