 Gaussian 09, Revision D.01,
 Gaussian 09:  ES64L-G09RevD.01 24-Apr-2013

 ----------------------------------------------------------------------
 # B3LYP/6-31G(d) EmpiricalDispersion=GD3BJ opt=calcfc freq=noraman nos
 ymm integral(ultrafinegrid)
 ----------------------------------------------------------------------

 ------------------------------------------------------------
 Candidate Structure: Conf:885 OPT and FREQ calc in gas phase
 ------------------------------------------------------------
 Symbolic Z-matrix:
 Charge =  1 Multiplicity = 1

 SCF Done:  E(RB3LYP) =  -796.508139372     A.U. after   14 cycles
 SCF Done:  E(RB3LYP) =  -796.514615317     A.U. after   15 cycles
 SCF Done:  E(RB3LYP) =  -796.514629573     A.U. after   15 cycles
 SCF Done:  E(RB3LYP) =  -796.516833584     A.U. after   15 cycles
 SCF Done:  E(RB3LYP) =  -794.525742194     A.U. after   17 cycles
 SCF Done:  E(RB3LYP) =  -796.444583303     A.U. after   14 cycles
 SCF Done:  E(RB3LYP) =  -796.517088395     A.U. after   11 cycles
 SCF Done:  E(RB3LYP) =  -796.517997764     A.U. after   15 cycles
 SCF Done:  E(RB3LYP) =  -796.506135516     A.U. after   15 cycles
 SCF Done:  E(RB3LYP) =  -796.518210280     A.U. after   10 cycles
 SCF Done:  E(RB3LYP) =  -796.523066875     A.U. after   12 cycles
 SCF Done:  E(RB3LYP) =  -796.523094224     A.U. after   11 cycles
 SCF Done:  E(RB3LYP) =  -796.523102195     A.U. after   10 cycles
 SCF Done:  E(RB3LYP) =  -796.523104391     A.U. after   10 cycles
 SCF Done:  E(RB3LYP) =  -796.523105345     A.U. after    9 cycles
 SCF Done:  E(RB3LYP) =  -796.523106254     A.U. after    8 cycles
 SCF Done:  E(RB3LYP) =  -796.523106431     A.U. after    8 cycles
 SCF Done:  E(RB3LYP) =  -796.523106463     A.U. after    7 cycles
 SCF Done:  E(RB3LYP) =  -796.523106472     A.U. after    7 cycles
 Optimization completed.
    -- Stationary point found.
 Normal termination of Gaussian 09 at Tue Jul 27 02:48:57 2021.

 --------------------------------------------------------------------
 #N Geom=AllCheck Guess=TCheck SCRF=Check GenChk RB3LYP/6-31G(d) Freq
 --------------------------------------------------------------------

 Structure from the checkpoint file:  "conf-885.chk"
 ------------------------------------------------------------
 Candidate Structure: Conf:885 OPT and FREQ calc in gas phase
 ------------------------------------------------------------
 Charge =  1 Multiplicity = 1

                          Input orientation:
 ---------------------------------------------------------------------
 Center     Atomic      Atomic             Coordinates (Angstroms)
 Number     Number       Type             X           Y           Z
 ---------------------------------------------------------------------
      1          8           0       -1.438349   -0.164237   -1.395986
      2          6           0       -1.525896   -1.079388   -0.576390
      3          7           0       -0.509524   -1.492130    0.223030
      4          6           0        0.677269   -0.683790    0.489049
      5          6           0        0.280298    0.550578    1.305462
      6          8           0        1.311809    1.033137    1.981426
      7          8           0       -0.839918    1.043170    1.364669
      8          6           0        1.473693   -0.319530   -0.808920
      9          6           0        2.695526    0.492660   -0.568326
     10          6           0        2.931262    1.837025   -0.743427
     11          7           0        4.192129    2.180469   -0.315914
     12          6           0        4.729110    1.060362    0.116582
     13          7           0        3.864850    0.005765   -0.003342
     14          6           0       -2.904688   -1.669297   -0.302294
     15          6           0       -3.682979   -0.670834    0.580251
     16          7           0       -3.345605    0.757376    0.199266
     17          1           0       -0.709543   -2.231291    0.883656
     18          1           0        1.332763   -1.280275    1.129019
     19          1           0        1.045418    1.858753    2.432535
     20          1           0        1.699245   -1.275665   -1.297105
     21          1           0        0.808160    0.227572   -1.475698
     22          1           0        2.257866    2.573814   -1.162561
     23          1           0        5.727992    0.947242    0.515405
     24          1           0        4.077775   -0.960063    0.202974
     25          1           0       -3.407900   -1.792883   -1.264332
     26          1           0       -2.888601   -2.638849    0.203960
     27          1           0       -4.759698   -0.805259    0.470307
     28          1           0       -3.417044   -0.767786    1.634325
     29          1           0       -4.059295    1.420858    0.513044
     30          1           0       -2.418267    1.007655    0.619784
     31          1           0       -3.197770    0.834918   -0.818449
 ---------------------------------------------------------------------

 SCF Done:  E(RB3LYP) =  -796.523106472     A.U. after    1 cycles

 Alpha  occ. eigenvalues --  -19.34362 -19.30091 -19.27248 -14.60646 -14.52047
 Alpha  occ. eigenvalues --  -14.47982 -14.39366 -10.47730 -10.44832 -10.42104
 Alpha  occ. eigenvalues --  -10.38983 -10.36517 -10.32378 -10.32136 -10.31099
 Alpha  occ. eigenvalues --  -10.28415  -1.26030  -1.19715  -1.16863  -1.15249
 Alpha  occ. eigenvalues --   -1.09859  -1.08356  -0.95866  -0.95259  -0.92091
 Alpha  occ. eigenvalues --   -0.85645  -0.82773  -0.79330  -0.77136  -0.75035
 Alpha  occ. eigenvalues --   -0.73755  -0.72487  -0.70132  -0.68294  -0.67548
 Alpha  occ. eigenvalues --   -0.65812  -0.65160  -0.63429  -0.62226  -0.60803
 Alpha  occ. eigenvalues --   -0.60446  -0.59929  -0.57677  -0.56052  -0.55318
 Alpha  occ. eigenvalues --   -0.54532  -0.53303  -0.52818  -0.52392  -0.50699
 Alpha  occ. eigenvalues --   -0.49850  -0.49393  -0.48885  -0.46921  -0.44261
 Alpha  occ. eigenvalues --   -0.41662  -0.40395  -0.36495  -0.34686  -0.31268
 Alpha virt. eigenvalues --   -0.15363  -0.13622  -0.11027  -0.07844  -0.06564
 Alpha virt. eigenvalues --   -0.05277  -0.04740  -0.03905  -0.03336  -0.02615
 Alpha virt. eigenvalues --   -0.01793  -0.01475  -0.00191   0.01345   0.03230

 Mulliken charges:
               1
     1  O   -0.518208
     2  C    0.600015
     3  N   -0.579508
     4  C   -0.066182
     5  C    0.632660
     6  O   -0.510170
     7  O   -0.518722
     8  C   -0.379013
     9  C    0.332730
    10  C   -0.074890
    11  N   -0.409866
    12  C    0.216931
    13  N   -0.614150
    14  C   -0.382801
    15  C   -0.189677
    16  N   -0.772823
    17  H    0.353856
    18  H    0.196675
    19  H    0.441449
    20  H    0.181887
    21  H    0.224055
    22  H    0.141260
    23  H    0.178942
    24  H    0.335626
    25  H    0.222116
    26  H    0.200656
    27  H    0.231600
    28  H    0.222683
    29  H    0.413893
    30  H    0.461173
    31  H    0.427803
 Sum of Mulliken charges =   1.00000

 Dipole moment (field-independent basis, Debye):
    X=            -10.2468    Y=             -3.7628    Z=              4.7174  Tot=             11.8916
 Quadrupole moment (field-independent basis, Debye-Ang):
   XX=            -35.1334   YY=            -79.8778   ZZ=            -86.3512
   XY=            -14.7280   XZ=              1.3851   YZ=              1.7822

  Exact polarizability: 160.310  12.406 114.148  10.568  -2.148  89.561
 Approx polarizability: 206.719   4.348 189.012  23.711 -15.183 142.514

                      1                      2                      3
                      A                      A                      A
 Frequencies --      5.6716                37.8863                61.5006
 Red. masses --      5.4193                 4.1861                 4.9621
 Frc consts  --      0.0001                 0.0035                 0.0111
 IR Inten    --      2.8706                 3.8617                 1.6992

                      4                      5                      6
                      A                      A                      A
 Frequencies --     82.5744                87.4316               114.6054
 Red. masses --      4.3780                 6.9084                 3.6134
 Frc consts  --      0.0176                 0.0311                 0.0280
 IR Inten    --      4.1526                 7.5043                 2.4595

                      7                      8                      9
                      A                      A                      A
 Frequencies --    135.7953               170.5693               205.5305
 Red. masses --      4.5955                 5.2556                 3.9026
 Frc consts  --      0.0499                 0.0901                 0.0971
 IR Inten    --      7.8800                 6.2796                 3.0923

                     10                     11                     12
                      A                      A                      A
 Frequencies --    214.5844               258.1368               292.7222
 Red. masses --      3.4594                 2.8231                 3.7809
 Frc consts  --      0.0939                 0.1108                 0.1909
 IR Inten    --     18.6475                82.0327                 4.0431

                     13                     14                     15
                      A                      A                      A
 Frequencies --    305.0580               320.9239               331.7629
 Red. masses --      1.4672                 2.2386                 4.9070
 Frc consts  --      0.0804                 0.1358                 0.3182
 IR Inten    --      1.9076                 6.1121                 9.6616

                     16                     17                     18
                      A                      A                      A
 Frequencies --    369.7586               392.4286               444.6102
 Red. masses --      4.4725                 4.2585                 3.6038
 Frc consts  --      0.3603                 0.3864                 0.4197
 IR Inten    --      4.3401                10.9528                 3.8556

                     19                     20                     21
                      A                      A                      A
 Frequencies --    500.9504               511.8885               537.5075
 Red. masses --      1.4191                 2.0347                 1.6497
 Frc consts  --      0.2098                 0.3141                 0.2808
 IR Inten    --     87.6086                64.2622                46.4177

                     22                     23                     24
                      A                      A                      A
 Frequencies --    612.6953               622.0932               666.9503
 Red. masses --      3.5401                 1.3550                 2.6663
 Frc consts  --      0.7830                 0.3090                 0.6988
 IR Inten    --     40.0772                83.1248                39.3658

                     25                     26                     27
                      A                      A                      A
 Frequencies --    678.9557               706.9049               745.9365
 Red. masses --      3.2653                 3.9124                 3.2085
 Frc consts  --      0.8869                 1.1519                 1.0518
 IR Inten    --      7.6146                 1.7888                34.2522

                     28                     29                     30
                      A                      A                      A
 Frequencies --    758.8199               789.3177               792.5313
 Red. masses --      3.1840                 3.1459                 3.1851
 Frc consts  --      1.0802                 1.1548                 1.1787
 IR Inten    --      3.1982                23.7925                21.8635

                     31                     32                     33
                      A                      A                      A
 Frequencies --    815.9457               848.8784               852.8408
 Red. masses --      1.3880                 2.0638                 1.4609
 Frc consts  --      0.5445                 0.8762                 0.6261
 IR Inten    --     15.4014                13.7007                14.5622

                     34                     35                     36
                      A                      A                      A
 Frequencies --    874.0634               930.4522               936.4009
 Red. masses --      2.8774                 2.1610                 5.8144
 Frc consts  --      1.2952                 1.1023                 3.0039
 IR Inten    --     15.2047                 9.2386                10.1634

                     37                     38                     39
                      A                      A                      A
 Frequencies --    986.9800               990.2779              1015.9318
 Red. masses --      1.7972                 2.0611                 3.3139
 Frc consts  --      1.0315                 1.1909                 2.0152
 IR Inten    --     19.1086                 1.8249                 7.3824

                     40                     41                     42
                      A                      A                      A
 Frequencies --   1025.1895              1041.5759              1083.1811
 Red. masses --      3.6303                 3.6114                 1.8281
 Frc consts  --      2.2480                 2.3084                 1.2637
 IR Inten    --      5.4724                 2.6118                15.6925

                     43                     44                     45
                      A                      A                      A
 Frequencies --   1119.2184              1132.8110              1151.9897
 Red. masses --      1.6252                 1.4010                 1.7277
 Frc consts  --      1.1994                 1.0593                 1.3509
 IR Inten    --     23.7534                40.8644                 2.6294

                     46                     47                     48
                      A                      A                      A
 Frequencies --   1162.0303              1187.9014              1213.1875
 Red. masses --      2.0224                 1.3722                 2.1092
 Frc consts  --      1.6089                 1.1409                 1.8291
 IR Inten    --     21.3181                26.3567               148.9942

                     49                     50                     51
                      A                      A                      A
 Frequencies --   1253.0580              1279.9289              1290.7000
 Red. masses --      1.5286                 2.0683                 1.4064
 Frc consts  --      1.4141                 1.9964                 1.3804
 IR Inten    --     13.8208                13.2612                 2.1467

                     52                     53                     54
                      A                      A                      A
 Frequencies --   1324.0684              1329.3472              1334.9118
 Red. masses --      1.5715                 1.3819                 1.3539
 Frc consts  --      1.6233                 1.4388                 1.4215
 IR Inten    --     65.3505                 1.4655                31.0776

                     55                     56                     57
                      A                      A                      A
 Frequencies --   1340.1119              1371.5437              1379.9867
 Red. masses --      1.4039                 1.5016                 1.3240
 Frc consts  --      1.4855                 1.6642                 1.4855
 IR Inten    --     37.3170                15.2745                12.0767

                     58                     59                     60
                      A                      A                      A
 Frequencies --   1403.2849              1424.4269              1445.7503
 Red. masses --      3.2957                 1.2990                 2.9165
 Frc consts  --      3.8237                 1.5529                 3.5917
 IR Inten    --     30.0162                 3.8427                23.7498

                     61                     62                     63
                      A                      A                      A
 Frequencies --   1457.9884              1509.4767              1511.9013
 Red. masses --      2.5120                 2.5947                 1.0980
 Frc consts  --      3.1461                 3.4833                 1.4787
 IR Inten    --     33.4015                25.5767                16.1043

                     64                     65                     66
                      A                      A                      A
 Frequencies --   1524.1518              1528.7203              1570.7151
 Red. masses --      1.2712                 1.0860                 1.8863
 Frc consts  --      1.7399                 1.4953                 2.7419
 IR Inten    --      6.8564                13.7419               221.7838

                     67                     68                     69
                      A                      A                      A
 Frequencies --   1586.3369              1625.5190              1636.0009
 Red. masses --      1.1708                 4.4888                 1.1070
 Frc consts  --      1.7358                 6.9883                 1.7457
 IR Inten    --    149.9279                 4.9292                21.1945

                     70                     71                     72
                      A                      A                      A
 Frequencies --   1713.5549              1761.7013              1793.8419
 Red. masses --      1.1648                 4.7633                 5.5056
 Frc consts  --      2.0151                 8.7100                10.4380
 IR Inten    --    121.3908               231.9387               371.9003

                     73                     74                     75
                      A                      A                      A
 Frequencies --   3062.3221              3083.2854              3097.0643
 Red. masses --      1.0721                 1.0744                 1.0607
 Frc consts  --      5.9236                 6.0179                 5.9942
 IR Inten    --     12.2513               871.5406                 2.0425

                     76                     77                     78
                      A                      A                      A
 Frequencies --   3108.8216              3122.5112              3149.0225
 Red. masses --      1.0856                 1.0616                 1.1061
 Frc consts  --      6.1819                 6.0985                 6.4622
 IR Inten    --      4.5521                11.6251                 2.1515

                     79                     80                     81
                      A                      A                      A
 Frequencies --   3173.4020              3182.7656              3251.1809
 Red. masses --      1.0922                 1.1114                 1.0967
 Frc consts  --      6.4802                 6.6330                 6.8297
 IR Inten    --      1.8666                 0.5889                 5.4469

                     82                     83                     84
                      A                      A                      A
 Frequencies --   3274.9983              3376.4768              3509.5010
 Red. masses --      1.0982                 1.0635                 1.0862
 Frc consts  --      6.9396                 7.1437                 7.8822
 IR Inten    --      0.6182                76.1174               110.5822

                     85                     86                     87
                      A                      A                      A
 Frequencies --   3610.5240              3639.5945              3666.0941
 Red. masses --      1.0783                 1.0810                 1.0645
 Frc consts  --      8.2816                 8.4365                 8.4297
 IR Inten    --     35.8176                42.7645                97.1608

 - Thermochemistry -
 -------------------
 Temperature   298.150 Kelvin.  Pressure   1.00000 Atm.
 Atom     1 has atomic number  8 and mass  15.99491

 Molecular mass:   227.11442 amu.
 Principal axes and moments of inertia in atomic units:
                           1         2         3
     Eigenvalues --  1396.499956502.336336849.98242
           X            0.96892  -0.16739   0.18215
           Y            0.24670   0.70851  -0.66118
           Z           -0.01838   0.68556   0.72778
 This molecule is an asymmetric top.
 Rotational symmetry number  1.
 Warning -- assumption of classical behavior for rotation
           may cause significant error
 Rotational temperatures (Kelvin)      0.06202     0.01332     0.01264
 Rotational constants (GHZ):           1.29233     0.27755     0.26347
 Zero-point vibrational energy     686833.2 (Joules/Mol)
                                  164.15708 (Kcal/Mol)
 Warning -- explicit consideration of  22 degrees of freedom as
           vibrations may cause significant error
 Vibrational temperatures:      8.16    54.51    88.49   118.81   125.79
          (Kelvin)            164.89   195.38   245.41   295.71   308.74
                              371.40   421.16   438.91   461.74   477.33
                              532.00   564.62   639.69   720.75   736.49
                              773.35   881.53   895.05   959.59   976.86
                             1017.08  1073.23  1091.77  1135.65  1140.27
                             1173.96  1221.35  1227.05  1257.58  1338.71
                             1347.27  1420.04  1424.79  1461.70  1475.02
                             1498.59  1558.45  1610.30  1629.86  1657.45
                             1671.90  1709.12  1745.50  1802.87  1841.53
                             1857.03  1905.04  1912.63  1920.64  1928.12
                             1973.34  1985.49  2019.01  2049.43  2080.11
                             2097.72  2171.80  2175.29  2192.91  2199.48
                             2259.91  2282.38  2338.76  2353.84  2465.42
                             2534.69  2580.94  4405.99  4436.15  4455.98
                             4472.90  4492.59  4530.74  4565.81  4579.28
                             4677.72  4711.99  4857.99  5049.38  5194.73
                             5236.56  5274.69

 Zero-point correction=                           0.261601 (Hartree/Particle)
 Thermal correction to Energy=                    0.277138
 Thermal correction to Enthalpy=                  0.278082
 Thermal correction to Gibbs Free Energy=         0.216139
 Sum of electronic and zero-point Energies=           -796.261506
 Sum of electronic and thermal Energies=              -796.245969
 Sum of electronic and thermal Enthalpies=            -796.245025
 Sum of electronic and thermal Free Energies=         -796.306967

                     E (Thermal)             CV                S
                      KCal/Mol        Cal/Mol-Kelvin    Cal/Mol-Kelvin
 Total                  173.907             57.885            130.370
 Electronic               0.000              0.000              0.000
 Translational            0.889              2.981             42.163
 Rotational               0.889              2.981             32.498
 Vibrational            172.129             51.923             55.709
 Vibration     1          0.593              1.987              9.138
 Vibration     2          0.594              1.982              5.367
 Vibration     3          0.597              1.973              4.408
 Vibration     4          0.600              1.961              3.829
 Vibration     5          0.601              1.958              3.717
 Vibration     6          0.608              1.937              3.189
 Vibration     7          0.614              1.918              2.862
 Vibration     8          0.626              1.879              2.429
 Vibration     9          0.640              1.832              2.083
 Vibration    10          0.645              1.819              2.004
 Vibration    11          0.667              1.749              1.674
 Vibration    12          0.688              1.687              1.458
 Vibration    13          0.696              1.664              1.389
 Vibration    14          0.706              1.633              1.305
 Vibration    15          0.714              1.612              1.251
 Vibration    16          0.742              1.534              1.081
 Vibration    17          0.760              1.486              0.991
 Vibration    18          0.804              1.373              0.812
 Vibration    19          0.856              1.248              0.656
 Vibration    20          0.867              1.224              0.629
 Vibration    21          0.893              1.167              0.571
 Vibration    22          0.972              1.005              0.428

 Normal termination of Gaussian 09 at Tue Jul 27 03:06:25 2021.
