 Gaussian 09, Revision D.01,
 Gaussian 09:  ES64L-G09RevD.01 24-Apr-2013

 ----------------------------------------------------------------------
 # B3LYP/6-31G(d) EmpiricalDispersion=GD3BJ opt=calcfc freq=noraman nos
 ymm integral(ultrafinegrid)
 ----------------------------------------------------------------------

 ------------------------------------------------------------
 Candidate Structure: Conf:719 OPT and FREQ calc in gas phase
 ------------------------------------------------------------
 Symbolic Z-matrix:
 Charge =  1 Multiplicity = 1

 SCF Done:  E(RB3LYP) =  -796.488486128     A.U. after   17 cycles
 SCF Done:  E(RB3LYP) =  -796.496823397     A.U. after   14 cycles
 SCF Done:  E(RB3LYP) =  -796.497181319     A.U. after   14 cycles
 SCF Done:  E(RB3LYP) =  -796.499322835     A.U. after   12 cycles
 SCF Done:  E(RB3LYP) =  -796.499595383     A.U. after   12 cycles
 SCF Done:  E(RB3LYP) =  -796.499629874     A.U. after   10 cycles
 SCF Done:  E(RB3LYP) =  -796.499633795     A.U. after    9 cycles
 SCF Done:  E(RB3LYP) =  -796.499634451     A.U. after    8 cycles
 SCF Done:  E(RB3LYP) =  -796.499634854     A.U. after    9 cycles
 SCF Done:  E(RB3LYP) =  -796.499634953     A.U. after    7 cycles
 SCF Done:  E(RB3LYP) =  -796.499634987     A.U. after    7 cycles
 Optimization completed.
    -- Stationary point found.
 Normal termination of Gaussian 09 at Tue Jul 27 01:52:48 2021.

 --------------------------------------------------------------------
 #N Geom=AllCheck Guess=TCheck SCRF=Check GenChk RB3LYP/6-31G(d) Freq
 --------------------------------------------------------------------

 Structure from the checkpoint file:  "conf-719.chk"
 ------------------------------------------------------------
 Candidate Structure: Conf:719 OPT and FREQ calc in gas phase
 ------------------------------------------------------------
 Charge =  1 Multiplicity = 1

                          Input orientation:
 ---------------------------------------------------------------------
 Center     Atomic      Atomic             Coordinates (Angstroms)
 Number     Number       Type             X           Y           Z
 ---------------------------------------------------------------------
      1          8           0       -0.926342    0.061221    1.293729
      2          6           0       -1.348196    0.206274    0.150704
      3          7           0       -0.573823    0.333181   -0.940616
      4          6           0        0.881608    0.358025   -0.851070
      5          6           0        1.358846    0.874912   -2.199460
      6          8           0        2.698037    0.971240   -2.277504
      7          8           0        0.618087    1.152982   -3.118387
      8          6           0        1.486217   -1.038138   -0.489176
      9          6           0        2.716483   -0.975298    0.349624
     10          6           0        2.905476   -1.268333    1.681403
     11          7           0        4.213153   -1.061241    2.053779
     12          6           0        4.820148   -0.640757    0.963836
     13          7           0        3.963896   -0.574771   -0.099396
     14          6           0       -2.870933    0.220188   -0.110050
     15          6           0       -3.537476    0.665635    1.182609
     16          7           0       -5.035311    0.375447    1.162013
     17          1           0       -0.957464    0.539583   -1.857452
     18          1           0        1.180237    1.064274   -0.068305
     19          1           0        2.909285    1.303235   -3.172177
     20          1           0        0.728069   -1.560262    0.097838
     21          1           0        1.636820   -1.619283   -1.407791
     22          1           0        2.164951   -1.621881    2.386760
     23          1           0        5.865476   -0.375356    0.882463
     24          1           0        4.165411   -0.225600   -1.024754
     25          1           0       -3.174187   -0.803581   -0.370367
     26          1           0       -3.131765    0.870614   -0.952059
     27          1           0       -3.435846    1.737939    1.359129
     28          1           0       -3.110684    0.126851    2.029335
     29          1           0       -5.215837   -0.628485    1.037344
     30          1           0       -5.484871    0.663065    2.040328
     31          1           0       -5.509246    0.868376    0.395381
 ---------------------------------------------------------------------

 SCF Done:  E(RB3LYP) =  -796.499634987     A.U. after    1 cycles

 Alpha  occ. eigenvalues --  -19.32004 -19.26361 -19.24866 -14.66513 -14.48968
 Alpha  occ. eigenvalues --  -14.45377 -14.37117 -10.44356 -10.43031 -10.42841
 Alpha  occ. eigenvalues --  -10.37137 -10.35661 -10.30081 -10.30079 -10.28738
 Alpha  occ. eigenvalues --  -10.26064  -1.23001  -1.20415  -1.17021  -1.14068
 Alpha  occ. eigenvalues --   -1.07510  -1.05599  -0.96323  -0.93268  -0.90179
 Alpha  occ. eigenvalues --   -0.84741  -0.82422  -0.78941  -0.78356  -0.76512
 Alpha  occ. eigenvalues --   -0.73907  -0.70667  -0.68976  -0.67865  -0.65417
 Alpha  occ. eigenvalues --   -0.64773  -0.63804  -0.62073  -0.60327  -0.59105
 Alpha  occ. eigenvalues --   -0.58883  -0.57299  -0.56689  -0.55195  -0.53833
 Alpha  occ. eigenvalues --   -0.52888  -0.52455  -0.50687  -0.49322  -0.48298
 Alpha  occ. eigenvalues --   -0.47513  -0.47295  -0.46702  -0.44039  -0.40181
 Alpha  occ. eigenvalues --   -0.38879  -0.38567  -0.34134  -0.32489  -0.28984
 Alpha virt. eigenvalues --   -0.16749  -0.11847  -0.10898  -0.09880  -0.09645
 Alpha virt. eigenvalues --   -0.06874  -0.04254  -0.03666  -0.03595  -0.02512
 Alpha virt. eigenvalues --   -0.01018   0.00306   0.01393   0.02515   0.02965

 Mulliken charges:
               1
     1  O   -0.506110
     2  C    0.648605
     3  N   -0.626930
     4  C   -0.018932
     5  C    0.591352
     6  O   -0.569593
     7  O   -0.459276
     8  C   -0.375262
     9  C    0.313939
    10  C   -0.065138
    11  N   -0.415213
    12  C    0.211054
    13  N   -0.605527
    14  C   -0.408085
    15  C   -0.207725
    16  N   -0.733198
    17  H    0.361438
    18  H    0.221165
    19  H    0.437542
    20  H    0.193337
    21  H    0.170538
    22  H    0.138670
    23  H    0.168514
    24  H    0.343390
    25  H    0.199860
    26  H    0.191291
    27  H    0.238448
    28  H    0.266481
    29  H    0.429013
    30  H    0.437189
    31  H    0.429162
 Sum of Mulliken charges =   1.00000

 Dipole moment (field-independent basis, Debye):
    X=            -19.5124    Y=              3.0469    Z=             -1.5963  Tot=             19.8133
 Quadrupole moment (field-independent basis, Debye-Ang):
   XX=             29.5732   YY=            -87.7548   ZZ=            -87.4885
   XY=             -0.6265   XZ=            -44.6478   YZ=              3.1810

  Exact polarizability: 162.304  -0.495  79.208   0.794 -14.689 126.629
 Approx polarizability: 204.552   6.109 119.489  11.287 -22.815 211.073

                      1                      2                      3
                      A                      A                      A
 Frequencies --     22.4533                24.1749                35.0744
 Red. masses --      2.4007                 3.5666                 3.2781
 Frc consts  --      0.0007                 0.0012                 0.0024
 IR Inten    --      5.5777                 2.7549                15.0648

                      4                      5                      6
                      A                      A                      A
 Frequencies --     36.9839                62.3826                79.8628
 Red. masses --      5.1002                 6.9478                 8.2053
 Frc consts  --      0.0041                 0.0159                 0.0308
 IR Inten    --      8.5288                 2.5703                 7.9189

                      7                      8                      9
                      A                      A                      A
 Frequencies --     93.8995               111.9937               128.6391
 Red. masses --      3.7078                 4.9918                 4.8083
 Frc consts  --      0.0193                 0.0369                 0.0469
 IR Inten    --      2.1797                 7.7863                 4.6282

                     10                     11                     12
                      A                      A                      A
 Frequencies --    190.1293               218.5788               239.1264
 Red. masses --      4.9967                 2.2169                 1.4703
 Frc consts  --      0.1064                 0.0624                 0.0495
 IR Inten    --      2.4476                13.0661                 2.7794

                     13                     14                     15
                      A                      A                      A
 Frequencies --    272.5524               308.8258               331.5884
 Red. masses --      5.2175                 2.9093                 3.4236
 Frc consts  --      0.2284                 0.1635                 0.2218
 IR Inten    --     18.6782                 3.4313                 2.9630

                     16                     17                     18
                      A                      A                      A
 Frequencies --    349.4561               377.2325               386.0164
 Red. masses --      6.4146                 3.8751                 3.9435
 Frc consts  --      0.4615                 0.3249                 0.3462
 IR Inten    --     11.1858                 2.0845                19.0361

                     19                     20                     21
                      A                      A                      A
 Frequencies --    527.0807               533.3104               557.1071
 Red. masses --      1.9911                 1.5283                 2.6448
 Frc consts  --      0.3259                 0.2561                 0.4836
 IR Inten    --     42.7983               106.0323                16.3916

                     22                     23                     24
                      A                      A                      A
 Frequencies --    600.1451               639.8403               649.4460
 Red. masses --      1.9715                 2.4823                 1.8681
 Frc consts  --      0.4184                 0.5988                 0.4642
 IR Inten    --     31.4392                49.7316                14.9914

                     25                     26                     27
                      A                      A                      A
 Frequencies --    669.8143               682.6777               714.2761
 Red. masses --      2.1710                 2.6293                 3.8902
 Frc consts  --      0.5739                 0.7220                 1.1694
 IR Inten    --     85.7552                 0.6659                 4.6145

                     28                     29                     30
                      A                      A                      A
 Frequencies --    737.9335               773.8822               801.9323
 Red. masses --      2.9876                 3.1914                 1.3829
 Frc consts  --      0.9585                 1.1261                 0.5240
 IR Inten    --     38.3351                 8.1159                12.5886

                     31                     32                     33
                      A                      A                      A
 Frequencies --    809.4217               828.0713               848.8778
 Red. masses --      1.3842                 2.6053                 1.4030
 Frc consts  --      0.5343                 1.0525                 0.5957
 IR Inten    --     15.0079                13.5512                16.6855

                     34                     35                     36
                      A                      A                      A
 Frequencies --    892.1188               925.9199               933.8810
 Red. masses --      2.7677                 1.2758                 3.5940
 Frc consts  --      1.2978                 0.6444                 1.8468
 IR Inten    --     34.8651                 4.7135                25.5194

                     37                     38                     39
                      A                      A                      A
 Frequencies --    939.6585               989.6494              1012.8772
 Red. masses --      5.6820                 2.0977                 4.1992
 Frc consts  --      2.9559                 1.2105                 2.5382
 IR Inten    --     12.4060                17.0120                12.1228

                     40                     41                     42
                      A                      A                      A
 Frequencies --   1019.8520              1036.0442              1094.5323
 Red. masses --      3.3099                 3.4588                 1.9283
 Frc consts  --      2.0283                 2.1874                 1.3611
 IR Inten    --     28.4569                12.8953                36.2020

                     43                     44                     45
                      A                      A                      A
 Frequencies --   1120.4492              1125.7479              1155.2188
 Red. masses --      2.0985                 1.5880                 2.1562
 Frc consts  --      1.5522                 1.1857                 1.6954
 IR Inten    --     36.6301                38.6150                 2.5199

                     46                     47                     48
                      A                      A                      A
 Frequencies --   1161.0836              1199.4644              1210.0684
 Red. masses --      2.0955                 1.3105                 2.4985
 Frc consts  --      1.6644                 1.1108                 2.1555
 IR Inten    --     20.4375                 4.5799               179.9845

                     49                     50                     51
                      A                      A                      A
 Frequencies --   1251.9932              1280.1294              1289.2973
 Red. masses --      1.5566                 1.9628                 1.6147
 Frc consts  --      1.4376                 1.8951                 1.5815
 IR Inten    --     10.8774                 8.8625                 5.4804

                     52                     53                     54
                      A                      A                      A
 Frequencies --   1299.9672              1316.9242              1328.1103
 Red. masses --      1.3120                 1.3301                 1.2330
 Frc consts  --      1.3063                 1.3591                 1.2813
 IR Inten    --      2.6542                 6.7448                10.4258

                     55                     56                     57
                      A                      A                      A
 Frequencies --   1338.2029              1366.1640              1377.5401
 Red. masses --      1.2239                 1.4317                 1.5536
 Frc consts  --      1.2913                 1.5743                 1.7370
 IR Inten    --      7.3014                10.4384                33.4642

                     58                     59                     60
                      A                      A                      A
 Frequencies --   1406.2039              1413.7634              1438.5079
 Red. masses --      3.1459                 1.3588                 2.6178
 Frc consts  --      3.6652                 1.6001                 3.1916
 IR Inten    --     46.2597                17.0122                98.7691

                     61                     62                     63
                      A                      A                      A
 Frequencies --   1448.6340              1500.4391              1504.8748
 Red. masses --      2.8838                 1.1909                 1.1128
 Frc consts  --      3.5656                 1.5797                 1.4848
 IR Inten    --     25.4714                25.4381                 0.8078

                     64                     65                     66
                      A                      A                      A
 Frequencies --   1516.2387              1523.6667              1544.0192
 Red. masses --      2.9719                 1.0757                 1.1899
 Frc consts  --      4.0255                 1.4713                 1.6713
 IR Inten    --     21.2258                13.9971               242.8152

                     67                     68                     69
                      A                      A                      A
 Frequencies --   1560.1130              1623.6165              1697.6660
 Red. masses --      2.3147                 4.4247                 1.0433
 Frc consts  --      3.3194                 6.8723                 1.7715
 IR Inten    --    258.1151                 4.0015                56.7399

                     70                     71                     72
                      A                      A                      A
 Frequencies --   1701.3040              1780.5653              1836.4943
 Red. masses --      1.0445                10.0093                 9.5260
 Frc consts  --      1.7813                18.6968                18.9296
 IR Inten    --     46.2820               238.1863               260.6966

                     73                     74                     75
                      A                      A                      A
 Frequencies --   3045.5528              3052.1558              3083.0105
 Red. masses --      1.0640                 1.0704                 1.0836
 Frc consts  --      5.8146                 5.8751                 6.0681
 IR Inten    --      4.1789                22.2525                 6.3440

                     76                     77                     78
                      A                      A                      A
 Frequencies --   3105.0660              3130.1162              3137.7650
 Red. masses --      1.1004                 1.0602                 1.0940
 Frc consts  --      6.2511                 6.1202                 6.3461
 IR Inten    --      6.3769                 2.9650                 4.0741

                     79                     80                     81
                      A                      A                      A
 Frequencies --   3194.5990              3257.5027              3271.7993
 Red. masses --      1.1116                 1.0964                 1.0980
 Frc consts  --      6.6842                 6.8547                 6.9250
 IR Inten    --      3.1151                 6.6137                 1.1234

                     82                     83                     84
                      A                      A                      A
 Frequencies --   3391.9296              3481.4254              3483.7490
 Red. masses --      1.0307                 1.0938                 1.0940
 Frc consts  --      6.9868                 7.8110                 7.8231
 IR Inten    --     52.5659                93.4215                89.2797

                     85                     86                     87
                      A                      A                      A
 Frequencies --   3562.0516              3660.1327              3671.0605
 Red. masses --      1.0782                 1.0806                 1.0643
 Frc consts  --      8.0603                 8.5294                 8.4505
 IR Inten    --    107.2824                85.1875                92.6890

 - Thermochemistry -
 -------------------
 Temperature   298.150 Kelvin.  Pressure   1.00000 Atm.
 Atom     1 has atomic number  8 and mass  15.99491

 Molecular mass:   227.11442 amu.
 Principal axes and moments of inertia in atomic units:
                           1         2         3
     Eigenvalues --  2241.388866978.720438937.05259
           X            0.98996   0.00233   0.14136
           Y           -0.13101  -0.36071   0.92343
           Z           -0.05314   0.93267   0.35678
 This molecule is an asymmetric top.
 Rotational symmetry number  1.
 Warning -- assumption of classical behavior for rotation
           may cause significant error
 Rotational temperatures (Kelvin)      0.03864     0.01241     0.00969
 Rotational constants (GHZ):           0.80519     0.25861     0.20194
 Zero-point vibrational energy     683855.4 (Joules/Mol)
                                  163.44538 (Kcal/Mol)
 Warning -- explicit consideration of  22 degrees of freedom as
           vibrations may cause significant error
 Vibrational temperatures:     32.31    34.78    50.46    53.21    89.75
          (Kelvin)            114.90   135.10   161.13   185.08   273.55
                              314.49   344.05   392.14   444.33   477.08
                              502.79   542.75   555.39   758.35   767.31
                              801.55   863.47   920.59   934.41   963.71
                              982.22  1027.68  1061.72  1113.44  1153.80
                             1164.58  1191.41  1221.34  1283.56  1332.19
                             1343.64  1351.96  1423.88  1457.30  1467.34
                             1490.63  1574.79  1612.07  1619.70  1662.10
                             1670.54  1725.76  1741.02  1801.34  1841.82
                             1855.01  1870.36  1894.76  1910.85  1925.37
                             1965.60  1981.97  2023.21  2034.09  2069.69
                             2084.26  2158.79  2165.18  2181.53  2192.21
                             2221.50  2244.65  2336.02  2442.56  2447.79
                             2561.83  2642.30  4381.87  4391.37  4435.76
                             4467.49  4503.53  4514.54  4596.31  4686.81
                             4707.38  4880.22  5008.99  5012.33  5124.99
                             5266.11  5281.83

 Zero-point correction=                           0.260467 (Hartree/Particle)
 Thermal correction to Energy=                    0.276901
 Thermal correction to Enthalpy=                  0.277845
 Thermal correction to Gibbs Free Energy=         0.212615
 Sum of electronic and zero-point Energies=           -796.239168
 Sum of electronic and thermal Energies=              -796.222734
 Sum of electronic and thermal Enthalpies=            -796.221790
 Sum of electronic and thermal Free Energies=         -796.287020

                     E (Thermal)             CV                S
                      KCal/Mol        Cal/Mol-Kelvin    Cal/Mol-Kelvin
 Total                  173.758             58.800            137.288
 Electronic               0.000              0.000              0.000
 Translational            0.889              2.981             42.163
 Rotational               0.889              2.981             33.302
 Vibrational            171.981             52.838             61.823
 Vibration     1          0.593              1.985              6.404
 Vibration     2          0.593              1.985              6.258
 Vibration     3          0.594              1.982              5.520
 Vibration     4          0.594              1.982              5.414
 Vibration     5          0.597              1.972              4.380
 Vibration     6          0.600              1.963              3.894
 Vibration     7          0.603              1.954              3.577
 Vibration     8          0.607              1.940              3.234
 Vibration     9          0.611              1.925              2.966
 Vibration    10          0.633              1.853              2.227
 Vibration    11          0.646              1.813              1.971
 Vibration    12          0.657              1.781              1.809
 Vibration    13          0.676              1.724              1.580
 Vibration    14          0.698              1.657              1.369
 Vibration    15          0.714              1.612              1.252
 Vibration    16          0.727              1.576              1.169
 Vibration    17          0.748              1.519              1.050
 Vibration    18          0.755              1.500              1.016
 Vibration    19          0.882              1.190              0.594
 Vibration    20          0.888              1.176              0.580
 Vibration    21          0.913              1.124              0.530
 Vibration    22          0.958              1.031              0.449

 Normal termination of Gaussian 09 at Tue Jul 27 02:08:13 2021.
