 Gaussian 09, Revision D.01,
 Gaussian 09:  ES64L-G09RevD.01 24-Apr-2013

 ----------------------------------------------------------------------
 # B3LYP/6-31G(d) EmpiricalDispersion=GD3BJ opt=calcfc freq=noraman nos
 ymm integral(ultrafinegrid)
 ----------------------------------------------------------------------

 ------------------------------------------------------------
 Candidate Structure: Conf:715 OPT and FREQ calc in gas phase
 ------------------------------------------------------------
 Symbolic Z-matrix:
 Charge =  1 Multiplicity = 1

 SCF Done:  E(RB3LYP) =  -796.508003405     A.U. after   14 cycles
 SCF Done:  E(RB3LYP) =  -796.516821687     A.U. after   14 cycles
 SCF Done:  E(RB3LYP) =  -796.511517976     A.U. after   15 cycles
 SCF Done:  E(RB3LYP) =  -796.518217233     A.U. after   12 cycles
 SCF Done:  E(RB3LYP) =  -796.520449779     A.U. after   13 cycles
 SCF Done:  E(RB3LYP) =  -796.520412421     A.U. after   15 cycles
 SCF Done:  E(RB3LYP) =  -796.521198950     A.U. after   11 cycles
 SCF Done:  E(RB3LYP) =  -796.521685052     A.U. after   12 cycles
 SCF Done:  E(RB3LYP) =  -796.521958704     A.U. after   12 cycles
 SCF Done:  E(RB3LYP) =  -796.522324570     A.U. after   13 cycles
 SCF Done:  E(RB3LYP) =  -796.525851450     A.U. after   11 cycles
 SCF Done:  E(RB3LYP) =  -796.525843581     A.U. after   11 cycles
 SCF Done:  E(RB3LYP) =  -796.525825151     A.U. after   11 cycles
 SCF Done:  E(RB3LYP) =  -796.525947912     A.U. after   11 cycles
 SCF Done:  E(RB3LYP) =  -796.525953761     A.U. after    9 cycles
 SCF Done:  E(RB3LYP) =  -796.525956629     A.U. after    9 cycles
 SCF Done:  E(RB3LYP) =  -796.525957838     A.U. after    8 cycles
 SCF Done:  E(RB3LYP) =  -796.525958183     A.U. after    8 cycles
 SCF Done:  E(RB3LYP) =  -796.525958291     A.U. after    7 cycles
 Optimization completed.
    -- Stationary point found.
 Normal termination of Gaussian 09 at Tue Jul 27 02:33:24 2021.

 --------------------------------------------------------------------
 #N Geom=AllCheck Guess=TCheck SCRF=Check GenChk RB3LYP/6-31G(d) Freq
 --------------------------------------------------------------------

 Structure from the checkpoint file:  "conf-715.chk"
 ------------------------------------------------------------
 Candidate Structure: Conf:715 OPT and FREQ calc in gas phase
 ------------------------------------------------------------
 Charge =  1 Multiplicity = 1

                          Input orientation:
 ---------------------------------------------------------------------
 Center     Atomic      Atomic             Coordinates (Angstroms)
 Number     Number       Type             X           Y           Z
 ---------------------------------------------------------------------
      1          8           0       -2.307886    1.535188    0.144504
      2          6           0       -1.649963    0.768321    0.853416
      3          7           0       -0.305645    0.858545    0.976590
      4          6           0        0.445137    1.637854    0.018831
      5          6           0        0.165961    1.122639   -1.404721
      6          8           0        0.620049    1.877540   -2.408483
      7          8           0       -0.368854    0.057765   -1.651387
      8          6           0        1.966823    1.531072    0.344105
      9          6           0        2.427719    0.116027    0.444185
     10          6           0        2.507146   -0.736100    1.527621
     11          7           0        2.852194   -2.008098    1.131082
     12          6           0        2.986178   -1.941191   -0.175287
     13          7           0        2.728984   -0.682063   -0.647385
     14          6           0       -2.327953   -0.440856    1.477944
     15          6           0       -2.512870   -1.512367    0.385393
     16          7           0       -2.880767   -0.864551   -0.938552
     17          1           0        0.205527    0.091336    1.407013
     18          1           0        0.129138    2.685243    0.074253
     19          1           0        0.974390    2.727692   -2.091771
     20          1           0        2.536795    2.093066   -0.404796
     21          1           0        2.131307    2.031800    1.302416
     22          1           0        2.374818   -0.487410    2.573701
     23          1           0        3.272607   -2.755327   -0.826992
     24          1           0        2.803048   -0.381935   -1.610197
     25          1           0       -1.762473   -0.883260    2.302906
     26          1           0       -3.300252   -0.118886    1.859538
     27          1           0       -3.306020   -2.211905    0.651330
     28          1           0       -1.590857   -2.066344    0.202319
     29          1           0       -3.392796    0.018309   -0.776712
     30          1           0       -2.003351   -0.572434   -1.421847
     31          1           0       -3.417972   -1.489656   -1.545406
 ---------------------------------------------------------------------

 SCF Done:  E(RB3LYP) =  -796.525958291     A.U. after    1 cycles

 Alpha  occ. eigenvalues --  -19.35189 -19.29772 -19.27136 -14.60579 -14.51148
 Alpha  occ. eigenvalues --  -14.50720 -14.42176 -10.47979 -10.44330 -10.41673
 Alpha  occ. eigenvalues --  -10.39391 -10.36080 -10.35115 -10.35060 -10.34247
 Alpha  occ. eigenvalues --  -10.31443  -1.26125  -1.19583  -1.17538  -1.15158
 Alpha  occ. eigenvalues --   -1.12722  -1.08237  -0.98431  -0.95503  -0.92951
 Alpha  occ. eigenvalues --   -0.86939  -0.82721  -0.80153  -0.77531  -0.75234
 Alpha  occ. eigenvalues --   -0.74686  -0.72846  -0.72725  -0.70591  -0.69371
 Alpha  occ. eigenvalues --   -0.67079  -0.66133  -0.62889  -0.62308  -0.61670
 Alpha  occ. eigenvalues --   -0.60487  -0.59391  -0.57551  -0.56863  -0.56525
 Alpha  occ. eigenvalues --   -0.55612  -0.54601  -0.53367  -0.52978  -0.52227
 Alpha  occ. eigenvalues --   -0.51869  -0.51707  -0.50728  -0.47408  -0.43934
 Alpha  occ. eigenvalues --   -0.41739  -0.40613  -0.39359  -0.37402  -0.34391
 Alpha virt. eigenvalues --   -0.15542  -0.13946  -0.10707  -0.09831  -0.07963
 Alpha virt. eigenvalues --   -0.06495  -0.05150  -0.04623  -0.03193  -0.02961
 Alpha virt. eigenvalues --   -0.01811  -0.00920   0.00423   0.00922   0.01831

 Mulliken charges:
               1
     1  O   -0.528787
     2  C    0.602045
     3  N   -0.574154
     4  C   -0.085489
     5  C    0.657818
     6  O   -0.535460
     7  O   -0.506871
     8  C   -0.396145
     9  C    0.303206
    10  C   -0.096304
    11  N   -0.401261
    12  C    0.216077
    13  N   -0.602094
    14  C   -0.390523
    15  C   -0.189296
    16  N   -0.773697
    17  H    0.355399
    18  H    0.212034
    19  H    0.441704
    20  H    0.176653
    21  H    0.217875
    22  H    0.161934
    23  H    0.188851
    24  H    0.349665
    25  H    0.210441
    26  H    0.220115
    27  H    0.230095
    28  H    0.233568
    29  H    0.427638
    30  H    0.459782
    31  H    0.415179
 Sum of Mulliken charges =   1.00000

 Dipole moment (field-independent basis, Debye):
    X=             -5.4603    Y=              0.0213    Z=             -2.5733  Tot=              6.0363
 Quadrupole moment (field-independent basis, Debye-Ang):
   XX=            -55.4987   YY=            -76.8950   ZZ=            -81.9617
   XY=             24.5381   XZ=             -5.0157   YZ=              3.2729

  Exact polarizability: 120.230  -1.535 124.459  -2.041  -6.634 111.334
 Approx polarizability: 160.413  -5.305 199.189   0.845 -14.089 181.553

                      1                      2                      3
                      A                      A                      A
 Frequencies --     15.1975                35.5146                63.9688
 Red. masses --      5.2812                 4.4286                 5.3837
 Frc consts  --      0.0007                 0.0033                 0.0130
 IR Inten    --      1.4671                 5.9525                 3.1728

                      4                      5                      6
                      A                      A                      A
 Frequencies --     72.0817                78.9979               114.2311
 Red. masses --      4.6060                 5.2589                 3.3044
 Frc consts  --      0.0141                 0.0193                 0.0254
 IR Inten    --      9.6853                11.6713                 3.2342

                      7                      8                      9
                      A                      A                      A
 Frequencies --    141.6875               173.2425               195.1565
 Red. masses --      6.2531                 3.8813                 3.4634
 Frc consts  --      0.0740                 0.0686                 0.0777
 IR Inten    --      3.1473                 7.1071                19.4236

                     10                     11                     12
                      A                      A                      A
 Frequencies --    222.1003               257.7335               278.4439
 Red. masses --      3.0186                 3.5009                 2.4077
 Frc consts  --      0.0877                 0.1370                 0.1100
 IR Inten    --     20.9942                47.7531                12.7133

                     13                     14                     15
                      A                      A                      A
 Frequencies --    292.0940               333.4745               355.7466
 Red. masses --      2.4275                 3.9815                 2.2576
 Frc consts  --      0.1220                 0.2609                 0.1683
 IR Inten    --     20.0456                17.8614                 7.8507

                     16                     17                     18
                      A                      A                      A
 Frequencies --    384.1916               436.3464               463.6530
 Red. masses --      3.3419                 3.8706                 3.5555
 Frc consts  --      0.2906                 0.4342                 0.4503
 IR Inten    --      5.7240                 7.9970                76.2687

                     19                     20                     21
                      A                      A                      A
 Frequencies --    526.3640               538.0315               563.0536
 Red. masses --      2.5314                 1.4531                 1.3987
 Frc consts  --      0.4132                 0.2478                 0.2613
 IR Inten    --      4.2126                17.6856               109.3842

                     22                     23                     24
                      A                      A                      A
 Frequencies --    599.3068               643.1475               661.2753
 Red. masses --      2.1626                 3.9129                 2.2026
 Frc consts  --      0.4576                 0.9536                 0.5675
 IR Inten    --     13.5639                16.9321                83.0591

                     25                     26                     27
                      A                      A                      A
 Frequencies --    679.4298               688.3992               694.3603
 Red. masses --      2.6844                 2.6270                 3.6839
 Frc consts  --      0.7301                 0.7335                 1.0465
 IR Inten    --      5.3325                 3.9947                 4.8190

                     28                     29                     30
                      A                      A                      A
 Frequencies --    755.9919               783.3213               829.1412
 Red. masses --      3.3532                 4.5614                 1.3737
 Frc consts  --      1.1291                 1.6490                 0.5564
 IR Inten    --      4.9228                 2.7173                16.5116

                     31                     32                     33
                      A                      A                      A
 Frequencies --    840.6968               853.4137               860.7784
 Red. masses --      2.0693                 1.7029                 2.4346
 Frc consts  --      0.8617                 0.7307                 1.0628
 IR Inten    --     33.9036                 5.7075                 6.3628

                     34                     35                     36
                      A                      A                      A
 Frequencies --    883.9912               934.1474               945.3268
 Red. masses --      2.0256                 4.5343                 3.1627
 Frc consts  --      0.9326                 2.3313                 1.6652
 IR Inten    --     23.9925                15.2426                 2.6378

                     37                     38                     39
                      A                      A                      A
 Frequencies --    963.3662               992.2209              1009.7641
 Red. masses --      3.0327                 1.6119                 3.1113
 Frc consts  --      1.6583                 0.9350                 1.8691
 IR Inten    --      1.5741                 9.9933                 9.4354

                     40                     41                     42
                      A                      A                      A
 Frequencies --   1023.1416              1047.2321              1105.7317
 Red. masses --      2.9065                 2.8114                 1.4508
 Frc consts  --      1.7926                 1.8166                 1.0451
 IR Inten    --      8.8389                 4.7704                 7.1087

                     43                     44                     45
                      A                      A                      A
 Frequencies --   1122.2478              1133.5075              1151.6417
 Red. masses --      1.6680                 1.3447                 1.7324
 Frc consts  --      1.2377                 1.0180                 1.3538
 IR Inten    --     15.8943                28.5885                 4.9034

                     46                     47                     48
                      A                      A                      A
 Frequencies --   1160.2381              1207.4080              1224.9367
 Red. masses --      2.0405                 1.5820                 1.8268
 Frc consts  --      1.6184                 1.3589                 1.6150
 IR Inten    --     16.8695                24.6312                25.7283

                     49                     50                     51
                      A                      A                      A
 Frequencies --   1242.5399              1263.8660              1281.1506
 Red. masses --      1.5036                 1.4801                 2.2394
 Frc consts  --      1.3678                 1.3930                 2.1657
 IR Inten    --      9.4657                24.6015                 0.8161

                     52                     53                     54
                      A                      A                      A
 Frequencies --   1297.6379              1315.3985              1330.2161
 Red. masses --      1.3412                 1.6933                 1.3238
 Frc consts  --      1.3306                 1.7262                 1.3801
 IR Inten    --      7.1998               331.4673                42.8900

                     55                     56                     57
                      A                      A                      A
 Frequencies --   1349.3304              1376.9297              1387.3594
 Red. masses --      1.7253                 1.4098                 1.6259
 Frc consts  --      1.8508                 1.5748                 1.8438
 IR Inten    --     50.5967                 7.5867                 9.9456

                     58                     59                     60
                      A                      A                      A
 Frequencies --   1407.3441              1415.7741              1428.7494
 Red. masses --      2.7106                 1.7872                 1.3897
 Frc consts  --      3.1631                 2.1106                 1.6714
 IR Inten    --     38.8752                69.3835                11.6619

                     61                     62                     63
                      A                      A                      A
 Frequencies --   1444.7583              1501.0772              1511.3690
 Red. masses --      2.7814                 1.2503                 1.1108
 Frc consts  --      3.4206                 1.6598                 1.4949
 IR Inten    --     25.5954                19.5776                20.8630

                     64                     65                     66
                      A                      A                      A
 Frequencies --   1514.7383              1527.3514              1564.5754
 Red. masses --      2.7062                 1.0890                 1.8508
 Frc consts  --      3.6583                 1.4967                 2.6693
 IR Inten    --     22.2861                20.1563               464.6247

                     67                     68                     69
                      A                      A                      A
 Frequencies --   1579.4156              1615.8278              1629.9086
 Red. masses --      1.2115                 4.1602                 1.1084
 Frc consts  --      1.7807                 6.3996                 1.7349
 IR Inten    --    112.6815                 7.2468                50.0682

                     70                     71                     72
                      A                      A                      A
 Frequencies --   1716.1441              1761.7044              1826.5156
 Red. masses --      1.1984                 3.5775                 7.4354
 Frc consts  --      2.0796                 6.5418                14.6152
 IR Inten    --    132.1184               157.2689               233.5377

                     73                     74                     75
                      A                      A                      A
 Frequencies --   3069.6031              3088.1287              3098.3274
 Red. masses --      1.0666                 1.0845                 1.0602
 Frc consts  --      5.9213                 6.0935                 5.9962
 IR Inten    --     13.6232                 8.1768                 0.6573

                     76                     77                     78
                      A                      A                      A
 Frequencies --   3124.3703              3127.0995              3149.6519
 Red. masses --      1.0607                 1.0996                 1.1069
 Frc consts  --      6.1008                 6.3354                 6.4694
 IR Inten    --     12.2883                 1.7049                 5.9042

                     79                     80                     81
                      A                      A                      A
 Frequencies --   3167.2614              3186.4850              3245.0127
 Red. masses --      1.0717                 1.1106                 1.0966
 Frc consts  --      6.3339                 6.6441                 6.8033
 IR Inten    --    583.5784                 5.6094                 2.8997

                     82                     83                     84
                      A                      A                      A
 Frequencies --   3277.8283              3345.3566              3510.2903
 Red. masses --      1.0985                 1.0677                 1.0842
 Frc consts  --      6.9539                 7.0404                 7.8716
 IR Inten    --      0.4892                78.7993               135.6423

                     85                     86                     87
                      A                      A                      A
 Frequencies --   3513.4526              3632.6146              3707.8023
 Red. masses --      1.0787                 1.0815                 1.0663
 Frc consts  --      7.8452                 8.4083                 8.6371
 IR Inten    --    168.1167                53.3458                72.6944

 - Thermochemistry -
 -------------------
 Temperature   298.150 Kelvin.  Pressure   1.00000 Atm.
 Atom     1 has atomic number  8 and mass  15.99491

 Molecular mass:   227.11442 amu.
 Principal axes and moments of inertia in atomic units:
                           1         2         3
     Eigenvalues --  2419.449364433.073415163.71504
           X            0.98530   0.16269   0.05220
           Y           -0.16164   0.78856   0.59334
           Z            0.05537  -0.59305   0.80326
 This molecule is an asymmetric top.
 Rotational symmetry number  1.
 Warning -- assumption of classical behavior for rotation
           may cause significant error
 Rotational temperatures (Kelvin)      0.03580     0.01954     0.01677
 Rotational constants (GHZ):           0.74593     0.40711     0.34950
 Zero-point vibrational energy     687065.8 (Joules/Mol)
                                  164.21268 (Kcal/Mol)
 Warning -- explicit consideration of  22 degrees of freedom as
           vibrations may cause significant error
 Vibrational temperatures:     21.87    51.10    92.04   103.71   113.66
          (Kelvin)            164.35   203.86   249.26   280.79   319.55
                              370.82   400.62   420.26   479.79   511.84
                              552.77   627.80   667.09   757.32   774.11
                              810.11   862.27   925.34   951.43   977.55
                              990.45   999.03  1087.70  1127.02  1192.95
                             1209.57  1227.87  1238.47  1271.86  1344.03
                             1360.11  1386.07  1427.58  1452.82  1472.07
                             1506.73  1590.90  1614.66  1630.86  1656.95
                             1669.32  1737.19  1762.41  1787.74  1818.42
                             1843.29  1867.01  1892.56  1913.88  1941.38
                             1981.09  1996.10  2024.85  2036.98  2055.65
                             2078.68  2159.71  2174.52  2179.37  2197.52
                             2251.07  2272.42  2324.81  2345.07  2469.15
                             2534.70  2627.95  4416.47  4443.12  4457.80
                             4495.27  4499.19  4531.64  4556.98  4584.64
                             4668.84  4716.06  4813.22  5050.52  5055.07
                             5226.52  5334.69

 Zero-point correction=                           0.261690 (Hartree/Particle)
 Thermal correction to Energy=                    0.277111
 Thermal correction to Enthalpy=                  0.278055
 Thermal correction to Gibbs Free Energy=         0.217088
 Sum of electronic and zero-point Energies=           -796.264269
 Sum of electronic and thermal Energies=              -796.248847
 Sum of electronic and thermal Enthalpies=            -796.247903
 Sum of electronic and thermal Free Energies=         -796.308870

                     E (Thermal)             CV                S
                      KCal/Mol        Cal/Mol-Kelvin    Cal/Mol-Kelvin
 Total                  173.890             57.561            128.315
 Electronic               0.000              0.000              0.000
 Translational            0.889              2.981             42.163
 Rotational               0.889              2.981             32.382
 Vibrational            172.112             51.600             53.770
 Vibration     1          0.593              1.986              7.180
 Vibration     2          0.594              1.982              5.495
 Vibration     3          0.597              1.972              4.331
 Vibration     4          0.598              1.967              4.096
 Vibration     5          0.600              1.963              3.916
 Vibration     6          0.607              1.938              3.196
 Vibration     7          0.615              1.912              2.781
 Vibration     8          0.627              1.875              2.400
 Vibration     9          0.636              1.847              2.178
 Vibration    10          0.648              1.807              1.942
 Vibration    11          0.667              1.750              1.677
 Vibration    12          0.679              1.713              1.543
 Vibration    13          0.687              1.688              1.462
 Vibration    14          0.715              1.609              1.243
 Vibration    15          0.731              1.563              1.141
 Vibration    16          0.753              1.504              1.023
 Vibration    17          0.797              1.391              0.838
 Vibration    18          0.821              1.331              0.756
 Vibration    19          0.881              1.192              0.595
 Vibration    20          0.893              1.166              0.570
 Vibration    21          0.919              1.111              0.518
 Vibration    22          0.957              1.033              0.451

 Normal termination of Gaussian 09 at Tue Jul 27 02:52:24 2021.
