 Gaussian 09, Revision D.01,
 Gaussian 09:  ES64L-G09RevD.01 24-Apr-2013

 ----------------------------------------------------------------------
 # B3LYP/6-31G(d) EmpiricalDispersion=GD3BJ opt=calcfc freq=noraman nos
 ymm integral(ultrafinegrid)
 ----------------------------------------------------------------------

 ------------------------------------------------------------
 Candidate Structure: Conf:214 OPT and FREQ calc in gas phase
 ------------------------------------------------------------
 Symbolic Z-matrix:
 Charge =  1 Multiplicity = 1

 SCF Done:  E(RB3LYP) =  -796.484235367     A.U. after   14 cycles
 SCF Done:  E(RB3LYP) =  -796.490130793     A.U. after   13 cycles
 SCF Done:  E(RB3LYP) =  -796.491065561     A.U. after   13 cycles
 SCF Done:  E(RB3LYP) =  -796.491364489     A.U. after   14 cycles
 SCF Done:  E(RB3LYP) =  -796.491692972     A.U. after   15 cycles
 SCF Done:  E(RB3LYP) =  -796.456706001     A.U. after   15 cycles
 SCF Done:  E(RB3LYP) =  -796.491757211     A.U. after   10 cycles
 SCF Done:  E(RB3LYP) =  -796.492124025     A.U. after   14 cycles
 SCF Done:  E(RB3LYP) =  -796.488811483     A.U. after   16 cycles
 SCF Done:  E(RB3LYP) =  -796.492322610     A.U. after   12 cycles
 SCF Done:  E(RB3LYP) =  -796.506388033     A.U. after   12 cycles
 SCF Done:  E(RB3LYP) =  -796.506520720     A.U. after   12 cycles
 SCF Done:  E(RB3LYP) =  -796.506607018     A.U. after   11 cycles
 SCF Done:  E(RB3LYP) =  -796.506276724     A.U. after   12 cycles
 SCF Done:  E(RB3LYP) =  -796.506667621     A.U. after   12 cycles
 SCF Done:  E(RB3LYP) =  -796.506704401     A.U. after   12 cycles
 SCF Done:  E(RB3LYP) =  -796.506713770     A.U. after   11 cycles
 SCF Done:  E(RB3LYP) =  -796.506715501     A.U. after   10 cycles
 SCF Done:  E(RB3LYP) =  -796.506715680     A.U. after    7 cycles
 Optimization completed.
    -- Stationary point found.
 Normal termination of Gaussian 09 at Tue Jul 27 02:45:31 2021.

 --------------------------------------------------------------------
 #N Geom=AllCheck Guess=TCheck SCRF=Check GenChk RB3LYP/6-31G(d) Freq
 --------------------------------------------------------------------

 Structure from the checkpoint file:  "conf-214.chk"
 ------------------------------------------------------------
 Candidate Structure: Conf:214 OPT and FREQ calc in gas phase
 ------------------------------------------------------------
 Charge =  1 Multiplicity = 1

                          Input orientation:
 ---------------------------------------------------------------------
 Center     Atomic      Atomic             Coordinates (Angstroms)
 Number     Number       Type             X           Y           Z
 ---------------------------------------------------------------------
      1          8           0       -1.259946   -1.674049   -0.729328
      2          6           0       -1.065720   -0.952893    0.239851
      3          7           0       -0.022791   -1.082068    1.092941
      4          6           0        1.143661   -1.878955    0.755911
      5          6           0        2.151312   -1.669741    1.885857
      6          8           0        3.062882   -2.629314    2.075672
      7          8           0        2.186362   -0.639466    2.525768
      8          6           0        1.819331   -1.418726   -0.593819
      9          6           0        1.633020    0.041310   -0.828096
     10          6           0        0.845639    0.691442   -1.748975
     11          7           0        0.759542    2.040295   -1.465688
     12          6           0        1.504327    2.213217   -0.387059
     13          7           0        2.057676    1.039528    0.033692
     14          6           0       -2.038900    0.199326    0.560315
     15          6           0       -2.289525    0.943291   -0.744923
     16          7           0       -3.444215    1.931770   -0.603518
     17          1           0        0.160216   -0.366739    1.788641
     18          1           0        0.858745   -2.932268    0.667795
     19          1           0        2.876628   -3.415022    1.532783
     20          1           0        2.874630   -1.718285   -0.580986
     21          1           0        1.337396   -1.952192   -1.414535
     22          1           0        0.325752    0.250483   -2.588597
     23          1           0        1.690554    3.154456    0.111785
     24          1           0        2.603181    0.899924    0.875861
     25          1           0       -1.641636    0.869588    1.330036
     26          1           0       -2.966278   -0.249939    0.939074
     27          1           0       -2.567546    0.241000   -1.531991
     28          1           0       -1.422570    1.532269   -1.058396
     29          1           0       -3.241820    2.640725    0.111332
     30          1           0       -3.611513    2.427990   -1.487493
     31          1           0       -4.318410    1.463151   -0.336103
 ---------------------------------------------------------------------

 SCF Done:  E(RB3LYP) =  -796.506715680     A.U. after    1 cycles

 Alpha  occ. eigenvalues --  -19.32278 -19.26510 -19.24669 -14.65112 -14.49815
 Alpha  occ. eigenvalues --  -14.49132 -14.42618 -10.44951 -10.42678 -10.41145
 Alpha  occ. eigenvalues --  -10.37326 -10.36167 -10.35076 -10.33079 -10.32488
 Alpha  occ. eigenvalues --  -10.30573  -1.23113  -1.19018  -1.16926  -1.14873
 Alpha  occ. eigenvalues --   -1.12200  -1.06017  -0.97953  -0.95220  -0.91488
 Alpha  occ. eigenvalues --   -0.86103  -0.82768  -0.78862  -0.77610  -0.76924
 Alpha  occ. eigenvalues --   -0.74707  -0.72177  -0.71469  -0.69791  -0.67980
 Alpha  occ. eigenvalues --   -0.67088  -0.64590  -0.63281  -0.61095  -0.59548
 Alpha  occ. eigenvalues --   -0.58766  -0.57165  -0.56792  -0.56070  -0.55480
 Alpha  occ. eigenvalues --   -0.54002  -0.52905  -0.51836  -0.51628  -0.51355
 Alpha  occ. eigenvalues --   -0.50941  -0.49357  -0.48725  -0.44261  -0.40718
 Alpha  occ. eigenvalues --   -0.39106  -0.39012  -0.38697  -0.37821  -0.33586
 Alpha virt. eigenvalues --   -0.15500  -0.12542  -0.11589  -0.08854  -0.08692
 Alpha virt. eigenvalues --   -0.08360  -0.06163  -0.05840  -0.04432  -0.02395
 Alpha virt. eigenvalues --   -0.01102  -0.00026   0.00534   0.01254   0.02527

 Mulliken charges:
               1
     1  O   -0.509185
     2  C    0.642904
     3  N   -0.604397
     4  C   -0.054987
     5  C    0.612452
     6  O   -0.535850
     7  O   -0.462493
     8  C   -0.389089
     9  C    0.329530
    10  C   -0.091488
    11  N   -0.447211
    12  C    0.193030
    13  N   -0.599684
    14  C   -0.390842
    15  C   -0.231436
    16  N   -0.732568
    17  H    0.358758
    18  H    0.193181
    19  H    0.433846
    20  H    0.186270
    21  H    0.214366
    22  H    0.155794
    23  H    0.181781
    24  H    0.368565
    25  H    0.176901
    26  H    0.199323
    27  H    0.248917
    28  H    0.266903
    29  H    0.426508
    30  H    0.436169
    31  H    0.424032
 Sum of Mulliken charges =   1.00000

 Dipole moment (field-independent basis, Debye):
    X=            -10.0840    Y=              4.1046    Z=              0.1509  Tot=             10.8884
 Quadrupole moment (field-independent basis, Debye-Ang):
   XX=            -34.4604   YY=            -62.2218   ZZ=            -94.9921
   XY=            -36.5585   XZ=              4.2352   YZ=             -2.2266

  Exact polarizability: 120.025 -17.424 129.172  18.634  -1.698 104.354
 Approx polarizability: 164.560 -17.907 202.548  35.424  15.917 177.060

                      1                      2                      3
                      A                      A                      A
 Frequencies --     48.1446                58.2330                71.0578
 Red. masses --      4.5497                 3.5548                 3.8152
 Frc consts  --      0.0062                 0.0071                 0.0114
 IR Inten    --      9.5047                 6.3421                 7.4231

                      4                      5                      6
                      A                      A                      A
 Frequencies --     72.7382                95.9032               108.4224
 Red. masses --      4.5901                 3.2906                 5.1221
 Frc consts  --      0.0143                 0.0178                 0.0355
 IR Inten    --      3.8988                 6.7895                 5.1099

                      7                      8                      9
                      A                      A                      A
 Frequencies --    120.2180               139.0542               150.6979
 Red. masses --      3.8156                 5.4362                 4.6744
 Frc consts  --      0.0325                 0.0619                 0.0625
 IR Inten    --     32.0863                 0.2390                35.9226

                     10                     11                     12
                      A                      A                      A
 Frequencies --    193.5517               201.3409               231.6361
 Red. masses --      4.6257                 4.2675                 1.1577
 Frc consts  --      0.1021                 0.1019                 0.0366
 IR Inten    --     12.8172                 4.1149                 0.3038

                     13                     14                     15
                      A                      A                      A
 Frequencies --    278.9380               313.6695               329.5938
 Red. masses --      6.5355                 4.7577                 3.1209
 Frc consts  --      0.2996                 0.2758                 0.1998
 IR Inten    --      3.9720                 0.2337                 8.9593

                     16                     17                     18
                      A                      A                      A
 Frequencies --    347.9591               374.8053               444.1433
 Red. masses --      3.4030                 3.5032                 3.6374
 Frc consts  --      0.2428                 0.2900                 0.4228
 IR Inten    --      6.5080                27.0491                19.1922

                     19                     20                     21
                      A                      A                      A
 Frequencies --    526.0992               543.7532               576.1876
 Red. masses --      1.3059                 2.2745                 1.7196
 Frc consts  --      0.2130                 0.3962                 0.3364
 IR Inten    --     42.2111                76.8721               177.5283

                     22                     23                     24
                      A                      A                      A
 Frequencies --    612.3748               641.7603               672.3578
 Red. masses --      1.9564                 5.9293                 2.1120
 Frc consts  --      0.4322                 1.4388                 0.5625
 IR Inten    --     25.8671                 7.8081                 7.8674

                     25                     26                     27
                      A                      A                      A
 Frequencies --    680.5654               689.4738               731.1148
 Red. masses --      2.8471                 2.5408                 5.6505
 Frc consts  --      0.7770                 0.7116                 1.7795
 IR Inten    --     23.9274                 2.1856                 6.6111

                     28                     29                     30
                      A                      A                      A
 Frequencies --    734.0889               791.1885               811.6016
 Red. masses --      4.0688                 3.5273                 1.2552
 Frc consts  --      1.2919                 1.3009                 0.4871
 IR Inten    --      1.0944                 2.3540                12.8983

                     31                     32                     33
                      A                      A                      A
 Frequencies --    814.3339               838.0800               860.5218
 Red. masses --      1.3514                 1.6339                 2.4093
 Frc consts  --      0.5280                 0.6762                 1.0512
 IR Inten    --      5.1011                31.7818                 8.3383

                     34                     35                     36
                      A                      A                      A
 Frequencies --    892.8548               918.7112               932.0426
 Red. masses --      2.6943                 4.0822                 1.2792
 Frc consts  --      1.2655                 2.0300                 0.6547
 IR Inten    --     30.9661                 4.4918                 4.4695

                     37                     38                     39
                      A                      A                      A
 Frequencies --    946.3703               951.0499               987.3784
 Red. masses --      5.9704                 2.9064                 2.1697
 Frc consts  --      3.1504                 1.5489                 1.2463
 IR Inten    --     13.0752                 9.7478                26.5253

                     40                     41                     42
                      A                      A                      A
 Frequencies --   1015.9828              1046.3161              1092.1988
 Red. masses --      3.1971                 2.8807                 1.6992
 Frc consts  --      1.9444                 1.8581                 1.1943
 IR Inten    --     19.7795                 2.3703                 6.0060

                     43                     44                     45
                      A                      A                      A
 Frequencies --   1136.4607              1147.9046              1154.7367
 Red. masses --      2.1514                 1.9875                 1.7256
 Frc consts  --      1.6371                 1.5430                 1.3557
 IR Inten    --     31.5635                23.1502                 7.4580

                     46                     47                     48
                      A                      A                      A
 Frequencies --   1158.5540              1183.7805              1214.7833
 Red. masses --      2.4683                 1.4258                 1.5233
 Frc consts  --      1.9520                 1.1772                 1.3245
 IR Inten    --      3.6999                10.0450                 8.5222

                     49                     50                     51
                      A                      A                      A
 Frequencies --   1257.7704              1270.8441              1281.1724
 Red. masses --      1.6247                 1.3282                 2.1755
 Frc consts  --      1.5144                 1.2639                 2.1039
 IR Inten    --     37.6745                55.1692                 6.7572

                     52                     53                     54
                      A                      A                      A
 Frequencies --   1292.2947              1304.3389              1318.5082
 Red. masses --      1.3997                 1.3161                 1.5495
 Frc consts  --      1.3772                 1.3192                 1.5871
 IR Inten    --     13.7125                11.2490               206.6518

                     55                     56                     57
                      A                      A                      A
 Frequencies --   1346.0672              1374.2505              1383.7890
 Red. masses --      1.3521                 1.3939                 1.6006
 Frc consts  --      1.4434                 1.5510                 1.8058
 IR Inten    --     41.3995                47.8281                24.2806

                     58                     59                     60
                      A                      A                      A
 Frequencies --   1395.8526              1418.5323              1441.3594
 Red. masses --      3.7207                 2.4001                 1.2845
 Frc consts  --      4.2712                 2.8456                 1.5723
 IR Inten    --     54.3874               268.5143                10.2120

                     61                     62                     63
                      A                      A                      A
 Frequencies --   1454.4532              1503.7569              1504.7610
 Red. masses --      2.3927                 1.1492                 1.4534
 Frc consts  --      2.9822                 1.5311                 1.9389
 IR Inten    --     30.4352                 4.2786                25.7500

                     64                     65                     66
                      A                      A                      A
 Frequencies --   1523.2151              1537.7279              1541.4844
 Red. masses --      1.8565                 1.1799                 1.0746
 Frc consts  --      2.5379                 1.6438                 1.5045
 IR Inten    --     10.4218               194.8989                13.7636

                     67                     68                     69
                      A                      A                      A
 Frequencies --   1557.0806              1631.2067              1696.3136
 Red. masses --      1.9898                 4.1923                 1.0436
 Frc consts  --      2.8423                 6.5724                 1.7693
 IR Inten    --    175.4393                13.2655                52.5515

                     70                     71                     72
                      A                      A                      A
 Frequencies --   1701.1628              1789.3487              1843.3995
 Red. masses --      1.0440                 9.7251                 8.9147
 Frc consts  --      1.7801                18.3457                17.8483
 IR Inten    --     39.9543               225.6785               120.5261

                     73                     74                     75
                      A                      A                      A
 Frequencies --   3052.9321              3062.3647              3089.8971
 Red. masses --      1.0613                 1.0704                 1.0862
 Frc consts  --      5.8281                 5.9145                 6.1101
 IR Inten    --     11.3050                15.5007                15.6835

                     76                     77                     78
                      A                      A                      A
 Frequencies --   3095.0911              3107.8749              3151.2893
 Red. masses --      1.0668                 1.1026                 1.0943
 Frc consts  --      6.0210                 6.2745                 6.4028
 IR Inten    --     59.3654                 6.9947                 0.3985

                     79                     80                     81
                      A                      A                      A
 Frequencies --   3181.2790              3263.1597              3275.3389
 Red. masses --      1.1081                 1.0967                 1.0986
 Frc consts  --      6.6075                 6.8804                 6.9442
 IR Inten    --     13.3790                 1.7989                 0.3727

                     82                     83                     84
                      A                      A                      A
 Frequencies --   3393.5370              3485.2517              3487.3482
 Red. masses --      1.0304                 1.0940                 1.0938
 Frc consts  --      6.9913                 7.8299                 7.8375
 IR Inten    --     48.4245                87.9982                81.4629

                     85                     86                     87
                      A                      A                      A
 Frequencies --   3569.2897              3612.0748              3718.6998
 Red. masses --      1.0774                 1.0822                 1.0663
 Frc consts  --      8.0874                 8.3189                 8.6882
 IR Inten    --     62.8788               111.7342                68.3125

 - Thermochemistry -
 -------------------
 Temperature   298.150 Kelvin.  Pressure   1.00000 Atm.
 Atom     1 has atomic number  8 and mass  15.99491

 Molecular mass:   227.11442 amu.
 Principal axes and moments of inertia in atomic units:
                           1         2         3
     Eigenvalues --  2229.817784656.136135581.35548
           X            0.77211   0.63015  -0.08224
           Y           -0.50090   0.68311   0.53147
           Z            0.39108  -0.36916   0.84308
 This molecule is an asymmetric top.
 Rotational symmetry number  1.
 Warning -- assumption of classical behavior for rotation
           may cause significant error
 Rotational temperatures (Kelvin)      0.03884     0.01860     0.01552
 Rotational constants (GHZ):           0.80937     0.38760     0.32335
 Zero-point vibrational energy     686637.6 (Joules/Mol)
                                  164.11034 (Kcal/Mol)
 Warning -- explicit consideration of  22 degrees of freedom as
           vibrations may cause significant error
 Vibrational temperatures:     69.27    83.78   102.24   104.65   137.98
          (Kelvin)            156.00   172.97   200.07   216.82   278.48
                              289.68   333.27   401.33   451.30   474.21
                              500.63   539.26   639.02   756.94   782.34
                              829.00   881.07   923.35   967.37   979.18
                              992.00  1051.91  1056.19  1138.34  1167.71
                             1171.64  1205.81  1238.10  1284.62  1321.82
                             1341.00  1361.61  1368.35  1420.62  1461.77
                             1505.41  1571.43  1635.11  1651.58  1661.41
                             1666.90  1703.19  1747.80  1809.65  1828.46
                             1843.32  1859.32  1876.65  1897.04  1936.69
                             1977.24  1990.96  2008.32  2040.95  2073.79
                             2092.63  2163.57  2165.01  2191.56  2212.44
                             2217.85  2240.29  2346.94  2440.61  2447.59
                             2574.47  2652.24  4392.48  4406.05  4445.67
                             4453.14  4471.53  4534.00  4577.15  4694.95
                             4712.48  4882.54  5014.49  5017.51  5135.41
                             5196.96  5350.37

 Zero-point correction=                           0.261526 (Hartree/Particle)
 Thermal correction to Energy=                    0.277338
 Thermal correction to Enthalpy=                  0.278282
 Thermal correction to Gibbs Free Energy=         0.217680
 Sum of electronic and zero-point Energies=           -796.245189
 Sum of electronic and thermal Energies=              -796.229378
 Sum of electronic and thermal Enthalpies=            -796.228434
 Sum of electronic and thermal Free Energies=         -796.289036

                     E (Thermal)             CV                S
                      KCal/Mol        Cal/Mol-Kelvin    Cal/Mol-Kelvin
 Total                  174.032             58.312            127.548
 Electronic               0.000              0.000              0.000
 Translational            0.889              2.981             42.163
 Rotational               0.889              2.981             32.427
 Vibrational            172.255             52.351             52.958
 Vibration     1          0.595              1.978              4.892
 Vibration     2          0.596              1.974              4.516
 Vibration     3          0.598              1.968              4.124
 Vibration     4          0.599              1.967              4.078
 Vibration     5          0.603              1.952              3.536
 Vibration     6          0.606              1.942              3.297
 Vibration     7          0.609              1.932              3.097
 Vibration     8          0.615              1.914              2.817
 Vibration     9          0.618              1.902              2.663
 Vibration    10          0.635              1.849              2.194
 Vibration    11          0.638              1.838              2.121
 Vibration    12          0.653              1.793              1.866
 Vibration    13          0.679              1.713              1.540
 Vibration    14          0.702              1.648              1.343
 Vibration    15          0.712              1.616              1.262
 Vibration    16          0.726              1.579              1.175
 Vibration    17          0.746              1.524              1.060
 Vibration    18          0.804              1.374              0.814
 Vibration    19          0.881              1.192              0.596
 Vibration    20          0.899              1.153              0.557
 Vibration    21          0.933              1.083              0.492
 Vibration    22          0.972              1.006              0.429

 Normal termination of Gaussian 09 at Tue Jul 27 03:04:38 2021.
