 Gaussian 09, Revision D.01,
 Gaussian 09:  ES64L-G09RevD.01 24-Apr-2013

 ----------------------------------------------------------------------
 # B3LYP/6-31G(d) EmpiricalDispersion=GD3BJ opt=calcfc freq=noraman nos
 ymm integral(ultrafinegrid)
 ----------------------------------------------------------------------

 ------------------------------------------------------------
 Candidate Structure: Conf:580 OPT and FREQ calc in gas phase
 ------------------------------------------------------------
 Symbolic Z-matrix:
 Charge =  1 Multiplicity = 1

 SCF Done:  E(RB3LYP) =  -796.491719473     A.U. after   17 cycles
 SCF Done:  E(RB3LYP) =  -796.498047603     A.U. after   14 cycles
 SCF Done:  E(RB3LYP) =  -796.498945590     A.U. after   15 cycles
 SCF Done:  E(RB3LYP) =  -796.393504038     A.U. after   15 cycles
 SCF Done:  E(RB3LYP) =  -796.498976720     A.U. after   10 cycles
 SCF Done:  E(RB3LYP) =  -796.499412181     A.U. after   12 cycles
 SCF Done:  E(RB3LYP) =  -796.499502337     A.U. after   12 cycles
 SCF Done:  E(RB3LYP) =  -796.499520918     A.U. after   11 cycles
 SCF Done:  E(RB3LYP) =  -796.499523052     A.U. after   10 cycles
 SCF Done:  E(RB3LYP) =  -796.499525013     A.U. after   10 cycles
 SCF Done:  E(RB3LYP) =  -796.499545229     A.U. after   10 cycles
 SCF Done:  E(RB3LYP) =  -796.499574679     A.U. after   11 cycles
 SCF Done:  E(RB3LYP) =  -796.499602046     A.U. after   11 cycles
 SCF Done:  E(RB3LYP) =  -796.499586081     A.U. after   12 cycles
 SCF Done:  E(RB3LYP) =  -796.452882352     A.U. after   14 cycles
 SCF Done:  E(RB3LYP) =  -796.499602540     A.U. after    8 cycles
 SCF Done:  E(RB3LYP) =  -796.499608153     A.U. after   11 cycles
 SCF Done:  E(RB3LYP) =  -796.499608670     A.U. after   10 cycles
 SCF Done:  E(RB3LYP) =  -796.499608850     A.U. after    9 cycles
 Optimization completed.
    -- Stationary point found.
 Normal termination of Gaussian 09 at Tue Jul 27 02:05:55 2021.

 --------------------------------------------------------------------
 #N Geom=AllCheck Guess=TCheck SCRF=Check GenChk RB3LYP/6-31G(d) Freq
 --------------------------------------------------------------------

 Structure from the checkpoint file:  "conf-580.chk"
 ------------------------------------------------------------
 Candidate Structure: Conf:580 OPT and FREQ calc in gas phase
 ------------------------------------------------------------
 Charge =  1 Multiplicity = 1

                          Input orientation:
 ---------------------------------------------------------------------
 Center     Atomic      Atomic             Coordinates (Angstroms)
 Number     Number       Type             X           Y           Z
 ---------------------------------------------------------------------
      1          8           0        1.348602    0.292512   -1.254048
      2          6           0        1.480565    0.327203   -0.033177
      3          7           0        0.469125    0.399342    0.846292
      4          6           0       -0.929799    0.390174    0.437154
      5          6           0       -1.716846    0.911506    1.629445
      6          8           0       -2.895330    1.422948    1.272282
      7          8           0       -1.305726    0.837597    2.770234
      8          6           0       -1.386150   -1.050428    0.048953
      9          6           0       -2.818648   -1.160314   -0.337006
     10          6           0       -3.910807   -1.657973    0.335169
     11          7           0       -5.063391   -1.488583   -0.396967
     12          6           0       -4.685789   -0.891232   -1.506037
     13          7           0       -3.336222   -0.664147   -1.523310
     14          6           0        2.893464    0.276420    0.588657
     15          6           0        3.859117    0.830007   -0.447388
     16          7           0        5.305383    0.512456   -0.078219
     17          1           0        0.617565    0.417584    1.850771
     18          1           0       -1.058318    1.058668   -0.417456
     19          1           0       -3.384496    1.655238    2.085764
     20          1           0       -1.201052   -1.702525    0.908777
     21          1           0       -0.720730   -1.375918   -0.759255
     22          1           0       -3.925097   -2.133576    1.307357
     23          1           0       -5.330987   -0.606438   -2.325924
     24          1           0       -2.810269   -0.249012   -2.279294
     25          1           0        3.122852   -0.775824    0.807980
     26          1           0        2.939368    0.833242    1.530857
     27          1           0        3.663194    0.381163   -1.421766
     28          1           0        3.798279    1.915935   -0.539252
     29          1           0        5.961155    0.873534   -0.782347
     30          1           0        5.566060    0.922399    0.827022
     31          1           0        5.455121   -0.501806   -0.008077
 ---------------------------------------------------------------------

 SCF Done:  E(RB3LYP) =  -796.499608850     A.U. after    1 cycles

 Alpha  occ. eigenvalues --  -19.30162 -19.24945 -19.24836 -14.66661 -14.49057
 Alpha  occ. eigenvalues --  -14.46169 -14.37600 -10.43219 -10.42983 -10.42905
 Alpha  occ. eigenvalues --  -10.37238 -10.35288 -10.30604 -10.30245 -10.29259
 Alpha  occ. eigenvalues --  -10.26536  -1.21399  -1.20564  -1.17024  -1.12591
 Alpha  occ. eigenvalues --   -1.08052  -1.05635  -0.96462  -0.93829  -0.90179
 Alpha  occ. eigenvalues --   -0.84944  -0.82288  -0.79085  -0.78431  -0.76769
 Alpha  occ. eigenvalues --   -0.73297  -0.70647  -0.69110  -0.68234  -0.65973
 Alpha  occ. eigenvalues --   -0.64844  -0.63566  -0.61404  -0.60049  -0.59153
 Alpha  occ. eigenvalues --   -0.57903  -0.57380  -0.56409  -0.55106  -0.53239
 Alpha  occ. eigenvalues --   -0.52913  -0.51778  -0.50350  -0.49878  -0.48858
 Alpha  occ. eigenvalues --   -0.47653  -0.47359  -0.46589  -0.42306  -0.39579
 Alpha  occ. eigenvalues --   -0.38740  -0.38272  -0.34663  -0.32946  -0.29345
 Alpha virt. eigenvalues --   -0.16888  -0.11879  -0.10036  -0.10011  -0.09501
 Alpha virt. eigenvalues --   -0.06963  -0.04698  -0.03637  -0.02735  -0.01519
 Alpha virt. eigenvalues --   -0.01263  -0.00698   0.00182   0.01549   0.02647

 Mulliken charges:
               1
     1  O   -0.517802
     2  C    0.651029
     3  N   -0.617271
     4  C   -0.024980
     5  C    0.593875
     6  O   -0.537443
     7  O   -0.470799
     8  C   -0.372838
     9  C    0.333618
    10  C   -0.074625
    11  N   -0.413202
    12  C    0.215687
    13  N   -0.610979
    14  C   -0.408211
    15  C   -0.207042
    16  N   -0.733130
    17  H    0.361034
    18  H    0.197300
    19  H    0.434493
    20  H    0.176430
    21  H    0.184403
    22  H    0.141767
    23  H    0.172005
    24  H    0.335686
    25  H    0.200019
    26  H    0.192714
    27  H    0.264323
    28  H    0.238261
    29  H    0.436894
    30  H    0.429664
    31  H    0.429121
 Sum of Mulliken charges =   1.00000

 Dipole moment (field-independent basis, Debye):
    X=             21.9056    Y=              3.8473    Z=              0.1876  Tot=             22.2417
 Quadrupole moment (field-independent basis, Debye-Ang):
   XX=             22.1546   YY=            -87.4503   ZZ=            -84.4941
   XY=              0.8259   XZ=              4.7809   YZ=              0.3940

  Exact polarizability: 169.118   8.072  83.856   3.642  -4.324 117.511
 Approx polarizability: 210.919   5.216 125.714   3.481 -16.544 201.545

                      1                      2                      3
                      A                      A                      A
 Frequencies --     13.3331                23.4797                36.9742
 Red. masses --      5.2510                 3.1063                 2.0882
 Frc consts  --      0.0005                 0.0010                 0.0017
 IR Inten    --      0.8003                 2.3276                10.8416

                      4                      5                      6
                      A                      A                      A
 Frequencies --     49.1743                66.1456                73.1988
 Red. masses --      5.5319                 4.8982                 7.4332
 Frc consts  --      0.0079                 0.0126                 0.0235
 IR Inten    --      9.1224                 4.6841                 6.7163

                      7                      8                      9
                      A                      A                      A
 Frequencies --     78.9748               105.7282               114.2270
 Red. masses --      5.9829                 4.0149                 4.4997
 Frc consts  --      0.0220                 0.0264                 0.0346
 IR Inten    --      6.1432                 3.3422                 9.8142

                     10                     11                     12
                      A                      A                      A
 Frequencies --    181.1114               218.0247               238.8409
 Red. masses --      5.1546                 2.3331                 1.4011
 Frc consts  --      0.0996                 0.0653                 0.0471
 IR Inten    --      4.9771                12.2493                 2.3409

                     13                     14                     15
                      A                      A                      A
 Frequencies --    265.4111               320.7547               331.6892
 Red. masses --      5.5240                 6.3326                 2.1650
 Frc consts  --      0.2293                 0.3839                 0.1403
 IR Inten    --     10.7490                 7.8769                 4.6458

                     16                     17                     18
                      A                      A                      A
 Frequencies --    342.0563               367.5970               388.8046
 Red. masses --      6.6458                 3.7918                 3.8600
 Frc consts  --      0.4581                 0.3019                 0.3438
 IR Inten    --     12.4364                 9.1580                 7.0632

                     19                     20                     21
                      A                      A                      A
 Frequencies --    501.8929               532.6528               557.3573
 Red. masses --      1.4038                 3.2262                 2.1374
 Frc consts  --      0.2083                 0.5393                 0.3912
 IR Inten    --     79.1416                62.4181                21.2166

                     22                     23                     24
                      A                      A                      A
 Frequencies --    619.3944               631.0939               656.0871
 Red. masses --      1.3055                 4.0371                 1.6064
 Frc consts  --      0.2951                 0.9473                 0.4074
 IR Inten    --    107.8859                10.2439                33.8068

                     25                     26                     27
                      A                      A                      A
 Frequencies --    666.1842               679.6801               718.5269
 Red. masses --      2.6582                 3.1588                 3.7092
 Frc consts  --      0.6951                 0.8598                 1.1283
 IR Inten    --     32.3855                 5.6083                 0.9017

                     28                     29                     30
                      A                      A                      A
 Frequencies --    752.0327               772.8932               799.3553
 Red. masses --      3.3817                 3.5642                 1.3562
 Frc consts  --      1.1268                 1.2544                 0.5106
 IR Inten    --     22.1824                14.9782                18.5753

                     31                     32                     33
                      A                      A                      A
 Frequencies --    809.0670               823.6478               850.6458
 Red. masses --      1.3921                 2.3009                 1.4325
 Frc consts  --      0.5369                 0.9197                 0.6107
 IR Inten    --     11.4922                 5.0733                16.8853

                     34                     35                     36
                      A                      A                      A
 Frequencies --    891.4957               925.8280               936.9629
 Red. masses --      2.7838                 1.2735                 5.7197
 Frc consts  --      1.3036                 0.6431                 2.9585
 IR Inten    --     39.2236                 4.7105                 6.5441

                     37                     38                     39
                      A                      A                      A
 Frequencies --    942.0428               991.7972              1003.1796
 Red. masses --      3.8062                 2.0693                 3.3556
 Frc consts  --      1.9901                 1.1993                 1.9897
 IR Inten    --     27.9229                11.5891                28.6142

                     40                     41                     42
                      A                      A                      A
 Frequencies --   1032.0279              1039.4115              1092.9580
 Red. masses --      3.1263                 3.1364                 2.0862
 Frc consts  --      1.9618                 1.9964                 1.4683
 IR Inten    --     23.4324                 4.7839                29.4064

                     43                     44                     45
                      A                      A                      A
 Frequencies --   1118.9365              1120.6987              1156.3493
 Red. masses --      1.6639                 1.9514                 2.2297
 Frc consts  --      1.2274                 1.4441                 1.7566
 IR Inten    --     14.8513                31.6788                13.2707

                     46                     47                     48
                      A                      A                      A
 Frequencies --   1160.8408              1178.0161              1212.3096
 Red. masses --      2.1459                 1.4626                 1.9800
 Frc consts  --      1.7037                 1.1959                 1.7145
 IR Inten    --     16.3060                28.9171               128.5588

                     49                     50                     51
                      A                      A                      A
 Frequencies --   1247.9881              1277.7827              1288.4928
 Red. masses --      1.4701                 2.1971                 1.4152
 Frc consts  --      1.3490                 2.1135                 1.3843
 IR Inten    --      9.3519                 8.8006                 4.5631

                     52                     53                     54
                      A                      A                      A
 Frequencies --   1300.8244              1309.1281              1330.9932
 Red. masses --      1.3112                 1.3571                 1.2384
 Frc consts  --      1.3073                 1.3703                 1.2926
 IR Inten    --      2.3676                 5.3151                18.4935

                     55                     56                     57
                      A                      A                      A
 Frequencies --   1342.1049              1363.4439              1376.8447
 Red. masses --      1.4193                 1.3508                 1.4193
 Frc consts  --      1.5062                 1.4795                 1.5852
 IR Inten    --      1.1588                 5.0908                18.4411

                     58                     59                     60
                      A                      A                      A
 Frequencies --   1402.8774              1413.2047              1446.8327
 Red. masses --      3.2976                 1.3630                 2.9514
 Frc consts  --      3.8237                 1.6039                 3.6401
 IR Inten    --      9.5935                17.9984                32.2422

                     61                     62                     63
                      A                      A                      A
 Frequencies --   1457.9535              1505.0845              1508.6527
 Red. masses --      2.9795                 1.1135                 1.2869
 Frc consts  --      3.7314                 1.4861                 1.7257
 IR Inten    --    173.6806                 0.8500                 9.5874

                     64                     65                     66
                      A                      A                      A
 Frequencies --   1516.1275              1523.7477              1544.3845
 Red. masses --      2.5601                 1.0759                 1.1819
 Frc consts  --      3.4672                 1.4718                 1.6608
 IR Inten    --     26.2405                13.2362               221.4440

                     67                     68                     69
                      A                      A                      A
 Frequencies --   1564.2215              1627.8814              1697.5012
 Red. masses --      2.3849                 4.5338                 1.0432
 Frc consts  --      3.4381                 7.0787                 1.7710
 IR Inten    --    273.1000                 6.3451                57.5586

                     70                     71                     72
                      A                      A                      A
 Frequencies --   1701.4824              1777.0618              1832.4915
 Red. masses --      1.0446                10.1927                 9.6369
 Frc consts  --      1.7818                18.9645                19.0666
 IR Inten    --     47.2179               297.0836               238.7206

                     73                     74                     75
                      A                      A                      A
 Frequencies --   3045.3303              3061.1009              3105.9129
 Red. masses --      1.0641                 1.0610                 1.1003
 Frc consts  --      5.8143                 5.8579                 6.2537
 IR Inten    --      4.0003                14.3261                 6.6798

                     76                     77                     78
                      A                      A                      A
 Frequencies --   3107.7662              3124.1984              3130.0601
 Red. masses --      1.0979                 1.0908                 1.0603
 Frc consts  --      6.2478                 6.2730                 6.1202
 IR Inten    --      3.6409                 6.3790                 2.7710

                     79                     80                     81
                      A                      A                      A
 Frequencies --   3194.8823              3253.5120              3273.4587
 Red. masses --      1.1116                 1.0967                 1.0980
 Frc consts  --      6.6850                 6.8395                 6.9318
 IR Inten    --      2.6984                 5.6648                 0.9752

                     82                     83                     84
                      A                      A                      A
 Frequencies --   3391.7289              3481.4433              3483.1997
 Red. masses --      1.0307                 1.0938                 1.0941
 Frc consts  --      6.9860                 7.8111                 7.8207
 IR Inten    --     52.9711                92.9005                90.6326

                     85                     86                     87
                      A                      A                      A
 Frequencies --   3559.0934              3641.3587              3673.6382
 Red. masses --      1.0783                 1.0810                 1.0643
 Frc consts  --      8.0473                 8.4450                 8.4623
 IR Inten    --    101.9432                39.1570                89.1807

 - Thermochemistry -
 -------------------
 Temperature   298.150 Kelvin.  Pressure   1.00000 Atm.
 Atom     1 has atomic number  8 and mass  15.99491

 Molecular mass:   227.11442 amu.
 Principal axes and moments of inertia in atomic units:
                           1         2         3
     Eigenvalues --  1623.765878106.900809105.13840
           X            0.98490  -0.10020  -0.14120
           Y            0.17117   0.44057   0.88125
           Z            0.02609   0.89211  -0.45107
 This molecule is an asymmetric top.
 Rotational symmetry number  1.
 Warning -- assumption of classical behavior for rotation
           may cause significant error
 Rotational temperatures (Kelvin)      0.05334     0.01068     0.00951
 Rotational constants (GHZ):           1.11145     0.22262     0.19821
 Zero-point vibrational energy     683502.4 (Joules/Mol)
                                  163.36100 (Kcal/Mol)
 Warning -- explicit consideration of  22 degrees of freedom as
           vibrations may cause significant error
 Vibrational temperatures:     19.18    33.78    53.20    70.75    95.17
          (Kelvin)            105.32   113.63   152.12   164.35   260.58
                              313.69   343.64   381.87   461.49   477.23
                              492.14   528.89   559.40   722.11   766.37
                              801.91   891.17   908.00   943.96   958.49
                              977.91  1033.80  1082.01  1112.02  1150.09
                             1164.07  1185.04  1223.89  1282.66  1332.06
                             1348.08  1355.39  1426.97  1443.35  1484.86
                             1495.48  1572.52  1609.90  1612.43  1663.73
                             1670.19  1694.90  1744.24  1795.57  1838.44
                             1853.85  1871.59  1883.54  1915.00  1930.99
                             1961.69  1980.97  2018.43  2033.28  2081.67
                             2097.67  2165.48  2170.61  2181.37  2192.33
                             2222.02  2250.56  2342.16  2442.32  2448.05
                             2556.79  2636.54  4381.55  4404.24  4468.71
                             4471.38  4495.02  4503.45  4596.72  4681.07
                             4709.77  4879.94  5009.01  5011.54  5120.74
                             5239.10  5285.54

 Zero-point correction=                           0.260332 (Hartree/Particle)
 Thermal correction to Energy=                    0.276866
 Thermal correction to Enthalpy=                  0.277810
 Thermal correction to Gibbs Free Energy=         0.212020
 Sum of electronic and zero-point Energies=           -796.239277
 Sum of electronic and thermal Energies=              -796.222743
 Sum of electronic and thermal Enthalpies=            -796.221799
 Sum of electronic and thermal Free Energies=         -796.287589

                     E (Thermal)             CV                S
                      KCal/Mol        Cal/Mol-Kelvin    Cal/Mol-Kelvin
 Total                  173.736             58.873            138.467
 Electronic               0.000              0.000              0.000
 Translational            0.889              2.981             42.163
 Rotational               0.889              2.981             33.149
 Vibrational            171.958             52.912             63.154
 Vibration     1          0.593              1.987              7.440
 Vibration     2          0.593              1.985              6.316
 Vibration     3          0.594              1.982              5.415
 Vibration     4          0.595              1.978              4.850
 Vibration     5          0.598              1.970              4.265
 Vibration     6          0.599              1.967              4.065
 Vibration     7          0.600              1.963              3.916
 Vibration     8          0.605              1.945              3.346
 Vibration     9          0.607              1.938              3.196
 Vibration    10          0.630              1.865              2.317
 Vibration    11          0.646              1.814              1.975
 Vibration    12          0.657              1.781              1.812
 Vibration    13          0.671              1.736              1.626
 Vibration    14          0.706              1.634              1.306
 Vibration    15          0.714              1.612              1.252
 Vibration    16          0.721              1.591              1.203
 Vibration    17          0.740              1.539              1.090
 Vibration    18          0.757              1.494              1.005
 Vibration    19          0.857              1.246              0.653
 Vibration    20          0.888              1.178              0.581
 Vibration    21          0.913              1.124              0.529
 Vibration    22          0.979              0.991              0.417

 Normal termination of Gaussian 09 at Tue Jul 27 02:21:16 2021.
