 Gaussian 09, Revision D.01,
 Gaussian 09:  ES64L-G09RevD.01 24-Apr-2013

 ----------------------------------------------------------------------
 # B3LYP/6-311++G(d,p) EmpiricalDispersion=GD3BJ opt=calcfc freq=norama
 n nosymm integral(ultrafinegrid)
 ----------------------------------------------------------------------

 ------------------------------------------------------------
 Candidate Structure: Conf:640 OPT and FREQ calc in gas phase
 ------------------------------------------------------------
 Symbolic Z-matrix:
 Charge =  0 Multiplicity = 1

 SCF Done:  E(RB3LYP) =  -796.387905728     A.U. after   15 cycles
 SCF Done:  E(RB3LYP) =  -796.390237187     A.U. after   15 cycles
 SCF Done:  E(RB3LYP) =  -796.390154804     A.U. after   15 cycles
 SCF Done:  E(RB3LYP) =  -796.390475202     A.U. after   12 cycles
 SCF Done:  E(RB3LYP) =  -796.390677013     A.U. after   13 cycles
 SCF Done:  E(RB3LYP) =  -796.390712556     A.U. after   12 cycles
 SCF Done:  E(RB3LYP) =  -796.390747410     A.U. after   13 cycles
 SCF Done:  E(RB3LYP) =  -796.390750692     A.U. after   11 cycles
 SCF Done:  E(RB3LYP) =  -796.390750873     A.U. after   10 cycles
 SCF Done:  E(RB3LYP) =  -796.390750882     A.U. after    8 cycles
 Optimization completed.
    -- Stationary point found.
 Normal termination of Gaussian 09 at Sat Jul 24 03:02:23 2021.

 ----------------------------------------------------------------------
 #N Geom=AllCheck Guess=TCheck SCRF=Check GenChk RB3LYP/6-311++G(d,p) F
 req
 ----------------------------------------------------------------------

 Structure from the checkpoint file:  "conf-640.chk"
 ------------------------------------------------------------
 Candidate Structure: Conf:640 OPT and FREQ calc in gas phase
 ------------------------------------------------------------
 Charge =  0 Multiplicity = 1

                          Input orientation:
 ---------------------------------------------------------------------
 Center     Atomic      Atomic             Coordinates (Angstroms)
 Number     Number       Type             X           Y           Z
 ---------------------------------------------------------------------
      1          8           0        0.931328   -1.240386   -1.275431
      2          6           0        1.175055   -0.138843   -0.783993
      3          7           0        0.276813    0.882055   -0.814897
      4          6           0       -0.993290    0.766407   -1.495238
      5          6           0       -1.222178    2.014309   -2.327716
      6          8           0       -2.217308    1.838905   -3.218653
      7          8           0       -0.626400    3.053246   -2.189730
      8          6           0       -2.205462    0.571270   -0.537472
      9          6           0       -1.985505   -0.434352    0.542889
     10          6           0       -2.372447   -0.426090    1.861951
     11          7           0       -2.003545   -1.596386    2.488384
     12          6           0       -1.392602   -2.305303    1.565612
     13          7           0       -1.372505   -1.660435    0.360622
     14          6           0        2.458293    0.128299   -0.032738
     15          6           0        2.489914   -0.695801    1.278789
     16          7           0        3.699271   -0.552374    2.077397
     17          1           0        0.549992    1.799675   -0.495465
     18          1           0       -0.924515   -0.094892   -2.161860
     19          1           0       -2.348880    2.678922   -3.684828
     20          1           0       -3.066475    0.306511   -1.159567
     21          1           0       -2.443587    1.524627   -0.057026
     22          1           0       -2.904090    0.352648    2.387490
     23          1           0       -0.943470   -3.276323    1.706060
     24          1           0       -0.785509   -1.907657   -0.430427
     25          1           0        2.577360    1.192440    0.192971
     26          1           0        3.289636   -0.179566   -0.672312
     27          1           0        1.633358   -0.418579    1.900014
     28          1           0        2.363933   -1.749978    1.024353
     29          1           0        3.837052    0.402973    2.388682
     30          1           0        4.525842   -0.835450    1.562089
 ---------------------------------------------------------------------

 SCF Done:  E(RB3LYP) =  -796.390750882     A.U. after    1 cycles

 Alpha  occ. eigenvalues --  -19.20689 -19.15162 -19.11331 -14.36704 -14.36107
 Alpha  occ. eigenvalues --  -14.30582 -14.29099 -10.34151 -10.29820 -10.25662
 Alpha  occ. eigenvalues --  -10.22111 -10.21118 -10.20965 -10.20907 -10.19474
 Alpha  occ. eigenvalues --  -10.18167  -1.15012  -1.06813  -1.06098  -1.01462
 Alpha  occ. eigenvalues --   -0.95960  -0.89863  -0.87134  -0.82559  -0.77751
 Alpha  occ. eigenvalues --   -0.75365  -0.69269  -0.66513  -0.63142  -0.62141
 Alpha  occ. eigenvalues --   -0.60800  -0.59179  -0.55803  -0.53178  -0.53056
 Alpha  occ. eigenvalues --   -0.52089  -0.50932  -0.50036  -0.49119  -0.47486
 Alpha  occ. eigenvalues --   -0.45894  -0.45267  -0.44021  -0.43389  -0.43041
 Alpha  occ. eigenvalues --   -0.42174  -0.41596  -0.41130  -0.40372  -0.39511
 Alpha  occ. eigenvalues --   -0.38150  -0.36356  -0.36131  -0.32311  -0.29518
 Alpha  occ. eigenvalues --   -0.29032  -0.28241  -0.26977  -0.25238  -0.23033
 Alpha virt. eigenvalues --   -0.03602  -0.02639  -0.01965  -0.01084   0.00002
 Alpha virt. eigenvalues --    0.00214   0.00853   0.01301   0.01637   0.02103
 Alpha virt. eigenvalues --    0.02922   0.03472   0.03761   0.04613   0.04979

 Mulliken charges:
               1
     1  O   -0.317973
     2  C   -0.216498
     3  N    0.032204
     4  C   -0.135942
     5  C    0.044131
     6  O   -0.117631
     7  O   -0.254883
     8  C   -1.546688
     9  C    1.048751
    10  C   -0.337961
    11  N   -0.100398
    12  C   -0.041346
    13  N   -0.077160
    14  C   -0.200774
    15  C   -0.552112
    16  N   -0.297112
    17  H    0.310685
    18  H    0.283704
    19  H    0.298474
    20  H    0.202618
    21  H    0.194618
    22  H    0.137963
    23  H    0.167253
    24  H    0.316927
    25  H    0.130929
    26  H    0.181742
    27  H    0.184911
    28  H    0.200100
    29  H    0.233092
    30  H    0.228375
 Sum of Mulliken charges =   0.00000

 Dipole moment (field-independent basis, Debye):
    X=              0.8818    Y=              3.3323    Z=             -3.7468  Tot=              5.0912
 Quadrupole moment (field-independent basis, Debye-Ang):
   XX=            -89.1914   YY=            -97.1594   ZZ=           -106.5508
   XY=             -4.9068   XZ=             10.3276   YZ=              4.1944

  Exact polarizability: 144.169  -8.825 144.424   8.464 -20.815 146.617
 Approx polarizability: 190.144 -12.065 228.801   3.231  -4.667 212.440

                      1                      2                      3
                      A                      A                      A
 Frequencies --     18.2036                24.1873                51.5952
 Red. masses --      5.4077                 3.3962                 5.6703
 Frc consts  --      0.0011                 0.0012                 0.0089
 IR Inten    --      1.4697                 1.7447                 3.0447

                      4                      5                      6
                      A                      A                      A
 Frequencies --     59.0405                70.7915                83.1514
 Red. masses --      6.2767                 5.1703                 1.8945
 Frc consts  --      0.0129                 0.0153                 0.0077
 IR Inten    --      0.4380                 5.1567                 1.7818

                      7                      8                      9
                      A                      A                      A
 Frequencies --     98.0535               141.1760               163.0909
 Red. masses --      6.0794                 5.3808                 6.5404
 Frc consts  --      0.0344                 0.0632                 0.1025
 IR Inten    --      1.0506                10.8281                 7.6492

                     10                     11                     12
                      A                      A                      A
 Frequencies --    178.0406               199.0099               271.6673
 Red. masses --      4.5502                 4.8903                 5.0525
 Frc consts  --      0.0850                 0.1141                 0.2197
 IR Inten    --     14.2074                12.5415                 1.5820

                     13                     14                     15
                      A                      A                      A
 Frequencies --    286.2128               303.4236               318.9388
 Red. masses --      1.1834                 2.8037                 5.6586
 Frc consts  --      0.0571                 0.1521                 0.3391
 IR Inten    --     37.0495                 3.4534                 3.0682

                     16                     17                     18
                      A                      A                      A
 Frequencies --    341.4705               392.3804               453.9066
 Red. masses --      3.4503                 3.6952                 3.5082
 Frc consts  --      0.2370                 0.3352                 0.4259
 IR Inten    --      5.3940                 2.3242                 8.6227

                     19                     20                     21
                      A                      A                      A
 Frequencies --    503.2853               527.7369               599.2689
 Red. masses --      1.2702                 3.2579                 1.3303
 Frc consts  --      0.1896                 0.5346                 0.2815
 IR Inten    --     60.7612                40.4197                96.8991

                     22                     23                     24
                      A                      A                      A
 Frequencies --    620.8047               629.2776               657.7315
 Red. masses --      2.9164                 3.6695                 3.5836
 Frc consts  --      0.6622                 0.8561                 0.9134
 IR Inten    --     36.3864                33.9796                45.3696

                     25                     26                     27
                      A                      A                      A
 Frequencies --    670.6016               696.2221               706.2199
 Red. masses --      3.3044                 1.4492                 2.8864
 Frc consts  --      0.8755                 0.4139                 0.8482
 IR Inten    --     50.4217                71.7490                36.1939

                     28                     29                     30
                      A                      A                      A
 Frequencies --    756.4502               774.0680               785.6260
 Red. masses --      6.4080                 1.1645                 4.3324
 Frc consts  --      2.1604                 0.4111                 1.5755
 IR Inten    --      0.4588                 2.4396                 9.3491

                     31                     32                     33
                      A                      A                      A
 Frequencies --    801.3699               814.6684               835.8411
 Red. masses --      1.4458                 1.4092                 1.3617
 Frc consts  --      0.5471                 0.5510                 0.5605
 IR Inten    --    215.4596                18.7176                24.1018

                     34                     35                     36
                      A                      A                      A
 Frequencies --    894.4240               933.5255               945.6662
 Red. masses --      2.0933                 4.6752                 5.5766
 Frc consts  --      0.9866                 2.4005                 2.9383
 IR Inten    --      3.8475                 2.2817                14.5466

                     37                     38                     39
                      A                      A                      A
 Frequencies --    977.7512               992.5828              1005.5970
 Red. masses --      1.3872                 3.3685                 4.7766
 Frc consts  --      0.7814                 1.9553                 2.8459
 IR Inten    --      5.7803                12.4768                57.2597

                     40                     41                     42
                      A                      A                      A
 Frequencies --   1021.8405              1042.8982              1097.4529
 Red. masses --      3.6857                 3.1745                 2.6938
 Frc consts  --      2.2675                 2.0343                 1.9116
 IR Inten    --     16.7352                 7.1598                 9.4958

                     43                     44                     45
                      A                      A                      A
 Frequencies --   1107.6494              1137.7500              1146.2188
 Red. masses --      2.1664                 1.8703                 2.0645
 Frc consts  --      1.5660                 1.4264                 1.5981
 IR Inten    --     52.3535                24.9489               173.3112

                     46                     47                     48
                      A                      A                      A
 Frequencies --   1146.9810              1178.4665              1226.1779
 Red. masses --      1.9234                 2.0973                 1.5740
 Frc consts  --      1.4908                 1.7161                 1.3943
 IR Inten    --      5.4685                81.4660                12.4140

                     49                     50                     51
                      A                      A                      A
 Frequencies --   1250.6051              1260.6674              1276.6991
 Red. masses --      1.5782                 2.0690                 1.4043
 Frc consts  --      1.4543                 1.9374                 1.3487
 IR Inten    --     14.5358                 6.1237                 8.7767

                     52                     53                     54
                      A                      A                      A
 Frequencies --   1284.7011              1294.2261              1327.8452
 Red. masses --      1.3931                 1.3216                 1.3930
 Frc consts  --      1.3547                 1.3043                 1.4471
 IR Inten    --     12.1864                 7.6949                10.7246

                     55                     56                     57
                      A                      A                      A
 Frequencies --   1347.6050              1365.2560              1382.6943
 Red. masses --      1.7896                 1.4484                 1.2137
 Frc consts  --      1.9149                 1.5906                 1.3671
 IR Inten    --      4.4556                12.2596                10.1400

                     58                     59                     60
                      A                      A                      A
 Frequencies --   1391.0578              1393.1255              1399.6994
 Red. masses --      2.5949                 1.2097                 2.4518
 Frc consts  --      2.9584                 1.3832                 2.8301
 IR Inten    --     20.1034                25.0629               171.5563

                     61                     62                     63
                      A                      A                      A
 Frequencies --   1448.6748              1481.9220              1482.7234
 Red. masses --      2.2105                 1.1582                 1.2105
 Frc consts  --      2.7333                 1.4986                 1.5680
 IR Inten    --     33.7585                 5.4350                21.3595

                     64                     65                     66
                      A                      A                      A
 Frequencies --   1500.4766              1502.3318              1544.4930
 Red. masses --      2.7411                 1.0921                 2.1029
 Frc consts  --      3.6361                 1.4523                 2.9556
 IR Inten    --     16.8015                 7.6966               241.4541

                     67                     68                     69
                      A                      A                      A
 Frequencies --   1609.4966              1664.3362              1704.3395
 Red. masses --      3.8731                 1.0944                 7.8213
 Frc consts  --      5.9113                 1.7861                13.3857
 IR Inten    --      8.3111                34.9483               217.1264

                     70                     71                     72
                      A                      A                      A
 Frequencies --   1810.0440              3030.8423              3033.6822
 Red. masses --      9.8852                 1.0608                 1.0593
 Frc consts  --     19.0816                 5.7415                 5.7441
 IR Inten    --    302.2259                20.1251                 9.3482

                     73                     74                     75
                      A                      A                      A
 Frequencies --   3045.5682              3067.2952              3077.7904
 Red. masses --      1.0645                 1.0993                 1.0993
 Frc consts  --      5.8174                 6.0938                 6.1353
 IR Inten    --     26.8200                 7.9342                 2.9468

                     76                     77                     78
                      A                      A                      A
 Frequencies --   3092.4157              3100.5617              3229.5980
 Red. masses --      1.0859                 1.1062                 1.0964
 Frc consts  --      6.1185                 6.2656                 6.7380
 IR Inten    --      7.0000                23.0876                 6.4911

                     79                     80                     81
                      A                      A                      A
 Frequencies --   3243.4811              3505.6876              3521.2906
 Red. masses --      1.0982                 1.0482                 1.0835
 Frc consts  --      6.8069                 7.5897                 7.9155
 IR Inten    --      0.9604                 0.8514               212.2081

                     82                     83                     84
                      A                      A                      A
 Frequencies --   3587.3086              3621.5168              3751.8313
 Red. masses --      1.0947                 1.0777                 1.0645
 Frc consts  --      8.3000                 8.3276                 8.8285
 IR Inten    --      1.9051                54.6934                94.2830

 - Thermochemistry -
 -------------------
 Temperature   298.150 Kelvin.  Pressure   1.00000 Atm.
 Atom     1 has atomic number  8 and mass  15.99491

 Molecular mass:   226.10659 amu.
 Principal axes and moments of inertia in atomic units:
                           1         2         3
     Eigenvalues --  3097.724824465.527166571.29122
           X            0.54009   0.83986  -0.05413
           Y           -0.51632   0.38145   0.76676
           Z            0.66462  -0.38617   0.63965
 This molecule is an asymmetric top.
 Rotational symmetry number  1.
 Warning -- assumption of classical behavior for rotation
           may cause significant error
 Rotational temperatures (Kelvin)      0.02796     0.01940     0.01318
 Rotational constants (GHZ):           0.58260     0.40415     0.27464
 Zero-point vibrational energy     641918.4 (Joules/Mol)
                                  153.42219 (Kcal/Mol)
 Warning -- explicit consideration of  21 degrees of freedom as
           vibrations may cause significant error
 Vibrational temperatures:     26.19    34.80    74.23    84.95   101.85
          (Kelvin)            119.64   141.08   203.12   234.65   256.16
                              286.33   390.87   411.80   436.56   458.88
                              491.30   564.55   653.07   724.11   759.29
                              862.21   893.20   905.39   946.33   964.84
                             1001.71  1016.09  1088.36  1113.71  1130.34
                             1152.99  1172.12  1202.59  1286.88  1343.13
                             1360.60  1406.76  1428.10  1446.83  1470.20
                             1500.50  1578.99  1593.66  1636.97  1649.15
                             1650.25  1695.55  1764.19  1799.34  1813.82
                             1836.88  1848.40  1862.10  1910.47  1938.90
                             1964.30  1989.39  2001.42  2004.39  2013.85
                             2084.32  2132.15  2133.31  2158.85  2161.52
                             2222.18  2315.70  2394.61  2452.16  2604.25
                             4360.70  4364.79  4381.89  4413.15  4428.25
                             4449.29  4461.01  4646.67  4666.64  5043.90
                             5066.35  5161.33  5210.55  5398.04

 Zero-point correction=                           0.244494 (Hartree/Particle)
 Thermal correction to Energy=                    0.260634
 Thermal correction to Enthalpy=                  0.261578
 Thermal correction to Gibbs Free Energy=         0.197891
 Sum of electronic and zero-point Energies=           -796.146257
 Sum of electronic and thermal Energies=              -796.130117
 Sum of electronic and thermal Enthalpies=            -796.129173
 Sum of electronic and thermal Free Energies=         -796.192860

                     E (Thermal)             CV                S
                      KCal/Mol        Cal/Mol-Kelvin    Cal/Mol-Kelvin
 Total                  163.550             58.461            134.041
 Electronic               0.000              0.000              0.000
 Translational            0.889              2.981             42.150
 Rotational               0.889              2.981             32.875
 Vibrational            161.773             52.499             59.016
 Vibration     1          0.593              1.986              6.821
 Vibration     2          0.593              1.985              6.257
 Vibration     3          0.596              1.977              4.755
 Vibration     4          0.596              1.974              4.489
 Vibration     5          0.598              1.968              4.131
 Vibration     6          0.600              1.961              3.815
 Vibration     7          0.603              1.951              3.493
 Vibration     8          0.615              1.912              2.788
 Vibration     9          0.623              1.888              2.514
 Vibration    10          0.628              1.869              2.349
 Vibration    11          0.637              1.841              2.142
 Vibration    12          0.675              1.725              1.586
 Vibration    13          0.684              1.699              1.496
 Vibration    14          0.695              1.667              1.398
 Vibration    15          0.705              1.637              1.316
 Vibration    16          0.721              1.593              1.205
 Vibration    17          0.760              1.486              0.991
 Vibration    18          0.812              1.352              0.784
 Vibration    19          0.859              1.243              0.650
 Vibration    20          0.883              1.189              0.592
 Vibration    21          0.957              1.033              0.451

 Optimization completed.
    -- Stationary point found.
 Normal termination of Gaussian 09 at Sat Jul 24 04:17:28 2021.
