 Gaussian 09, Revision D.01,
 Gaussian 09:  ES64L-G09RevD.01 24-Apr-2013

 ----------------------------------------------------------------------
 # B3LYP/6-311++G(d,p) EmpiricalDispersion=GD3BJ opt=calcfc freq=norama
 n nosymm integral(ultrafinegrid)
 ----------------------------------------------------------------------

 ------------------------------------------------------------
 Candidate Structure: Conf:609 OPT and FREQ calc in gas phase
 ------------------------------------------------------------
 Symbolic Z-matrix:
 Charge =  0 Multiplicity = 1

 SCF Done:  E(RB3LYP) =  -796.378798707     A.U. after   15 cycles
 SCF Done:  E(RB3LYP) =  -796.380909788     A.U. after   13 cycles
 SCF Done:  E(RB3LYP) =  -796.381171006     A.U. after   15 cycles
 SCF Done:  E(RB3LYP) =  -796.381557498     A.U. after   13 cycles
 SCF Done:  E(RB3LYP) =  -796.381467007     A.U. after   14 cycles
 SCF Done:  E(RB3LYP) =  -796.381813827     A.U. after   12 cycles
 SCF Done:  E(RB3LYP) =  -796.381831433     A.U. after   11 cycles
 SCF Done:  E(RB3LYP) =  -796.381844769     A.U. after   12 cycles
 SCF Done:  E(RB3LYP) =  -796.381846598     A.U. after   11 cycles
 SCF Done:  E(RB3LYP) =  -796.381846875     A.U. after   11 cycles
 SCF Done:  E(RB3LYP) =  -796.381846903     A.U. after    9 cycles
 Optimization completed.
    -- Stationary point found.
 Normal termination of Gaussian 09 at Sat Jul 24 03:07:33 2021.

 ----------------------------------------------------------------------
 #N Geom=AllCheck Guess=TCheck SCRF=Check GenChk RB3LYP/6-311++G(d,p) F
 req
 ----------------------------------------------------------------------

 Structure from the checkpoint file:  "conf-609.chk"
 ------------------------------------------------------------
 Candidate Structure: Conf:609 OPT and FREQ calc in gas phase
 ------------------------------------------------------------
 Charge =  0 Multiplicity = 1

                          Input orientation:
 ---------------------------------------------------------------------
 Center     Atomic      Atomic             Coordinates (Angstroms)
 Number     Number       Type             X           Y           Z
 ---------------------------------------------------------------------
      1          8           0        1.401218    1.199469   -0.559961
      2          6           0        1.625889    0.366879    0.306202
      3          7           0        0.631177   -0.447196    0.779034
      4          6           0       -0.671858   -0.453932    0.130354
      5          6           0       -0.471561   -0.789310   -1.355802
      6          8           0       -1.334321   -0.146305   -2.184112
      7          8           0        0.334878   -1.581499   -1.761528
      8          6           0       -1.486182    0.831027    0.429261
      9          6           0       -2.965218    0.633445    0.448398
     10          6           0       -3.862905    0.601952    1.489802
     11          7           0       -5.143811    0.384639    1.030632
     12          6           0       -5.033615    0.282462   -0.274479
     13          7           0       -3.736635    0.427363   -0.679640
     14          6           0        3.006229    0.149315    0.886850
     15          6           0        3.965417   -0.403924   -0.194038
     16          7           0        5.345350   -0.597694    0.234227
     17          1           0        0.887088   -1.244986    1.337908
     18          1           0       -1.221896   -1.303400    0.545507
     19          1           0       -1.106949   -0.421674   -3.085706
     20          1           0       -1.188468    1.159606    1.425954
     21          1           0       -1.186632    1.616988   -0.264711
     22          1           0       -3.655232    0.736250    2.540476
     23          1           0       -5.842026    0.107280   -0.967553
     24          1           0       -3.366745    0.362845   -1.615484
     25          1           0        3.375388    1.117841    1.235074
     26          1           0        2.978684   -0.528103    1.746430
     27          1           0        3.581700   -1.360307   -0.560344
     28          1           0        3.956832    0.280901   -1.043904
     29          1           0        5.413877   -1.254201    1.004478
     30          1           0        5.770396    0.274276    0.531122
 ---------------------------------------------------------------------

 SCF Done:  E(RB3LYP) =  -796.381846903     A.U. after    2 cycles

 Alpha  occ. eigenvalues --  -19.20269 -19.13997 -19.10789 -14.36822 -14.36283
 Alpha  occ. eigenvalues --  -14.30506 -14.29419 -10.33406 -10.29073 -10.25608
 Alpha  occ. eigenvalues --  -10.22573 -10.20957 -10.20734 -10.19870 -10.19251
 Alpha  occ. eigenvalues --  -10.18358  -1.14263  -1.06410  -1.05157  -1.01917
 Alpha  occ. eigenvalues --   -0.95259  -0.89730  -0.87541  -0.81953  -0.77472
 Alpha  occ. eigenvalues --   -0.74634  -0.69012  -0.66357  -0.63225  -0.61942
 Alpha  occ. eigenvalues --   -0.60261  -0.59452  -0.55809  -0.53451  -0.52520
 Alpha  occ. eigenvalues --   -0.51724  -0.51595  -0.49326  -0.47641  -0.46320
 Alpha  occ. eigenvalues --   -0.45830  -0.44591  -0.44101  -0.43227  -0.42655
 Alpha  occ. eigenvalues --   -0.41832  -0.41362  -0.40650  -0.40142  -0.39442
 Alpha  occ. eigenvalues --   -0.38325  -0.35991  -0.35280  -0.31058  -0.29330
 Alpha  occ. eigenvalues --   -0.28668  -0.28279  -0.27327  -0.25113  -0.23263
 Alpha virt. eigenvalues --   -0.03650  -0.02488  -0.02010  -0.00668  -0.00571
 Alpha virt. eigenvalues --    0.00460   0.00815   0.01157   0.01650   0.02026
 Alpha virt. eigenvalues --    0.02251   0.03259   0.03669   0.04432   0.04523

 Mulliken charges:
               1
     1  O   -0.229155
     2  C   -0.059462
     3  N    0.085025
     4  C   -0.406123
     5  C    0.050275
     6  O   -0.199966
     7  O   -0.214903
     8  C   -0.202165
     9  C    0.240767
    10  C   -0.651533
    11  N   -0.145496
    12  C    0.032183
    13  N   -0.205061
    14  C   -0.343541
    15  C   -0.496307
    16  N   -0.326071
    17  H    0.323102
    18  H    0.215623
    19  H    0.318379
    20  H    0.186595
    21  H    0.264034
    22  H    0.128225
    23  H    0.157411
    24  H    0.348748
    25  H    0.183548
    26  H    0.117162
    27  H    0.172397
    28  H    0.202469
    29  H    0.226107
    30  H    0.227731
 Sum of Mulliken charges =   0.00000

 Dipole moment (field-independent basis, Debye):
    X=              1.7971    Y=             -1.2582    Z=              0.3087  Tot=              2.2154
 Quadrupole moment (field-independent basis, Debye-Ang):
   XX=           -118.6780   YY=            -99.8619   ZZ=            -86.0896
   XY=              4.7525   XZ=             27.9732   YZ=             -3.3939

  Exact polarizability: 193.739  -4.770 110.598   0.693   2.348 136.848
 Approx polarizability: 231.316  -1.475 177.525  -1.681  -6.863 216.207

                      1                      2                      3
                      A                      A                      A
 Frequencies --     14.2081                24.1014                36.5969
 Red. masses --      4.0874                 5.1172                 5.4430
 Frc consts  --      0.0005                 0.0018                 0.0043
 IR Inten    --      1.3472                 9.2239                 5.7197

                      4                      5                      6
                      A                      A                      A
 Frequencies --     55.8835                69.4087                88.8558
 Red. masses --      4.7898                 2.9770                 2.5539
 Frc consts  --      0.0088                 0.0085                 0.0119
 IR Inten    --      1.2802                 3.4023                 2.5606

                      7                      8                      9
                      A                      A                      A
 Frequencies --     93.8885               127.7149               144.7636
 Red. masses --      9.5857                 6.3374                 6.4572
 Frc consts  --      0.0498                 0.0609                 0.0797
 IR Inten    --      2.5052                 2.2906                 5.4674

                     10                     11                     12
                      A                      A                      A
 Frequencies --    192.4140               220.7864               279.7753
 Red. masses --      4.4695                 5.3358                 2.1135
 Frc consts  --      0.0975                 0.1532                 0.0975
 IR Inten    --     10.1470                 2.3299                24.8279

                     13                     14                     15
                      A                      A                      A
 Frequencies --    289.3894               306.5878               339.0915
 Red. masses --      1.4892                 3.3801                 3.8941
 Frc consts  --      0.0735                 0.1872                 0.2638
 IR Inten    --     24.6365                 7.1373                 1.3626

                     16                     17                     18
                      A                      A                      A
 Frequencies --    368.4204               389.2763               433.4961
 Red. masses --      3.5444                 3.6781                 1.2406
 Frc consts  --      0.2835                 0.3284                 0.1374
 IR Inten    --      0.8881                12.5662                59.5634

                     19                     20                     21
                      A                      A                      A
 Frequencies --    442.5839               519.7905               547.8771
 Red. masses --      4.1653                 3.6213                 2.6584
 Frc consts  --      0.4807                 0.5765                 0.4701
 IR Inten    --     10.4505                31.9535                30.3080

                     22                     23                     24
                      A                      A                      A
 Frequencies --    588.1364               610.0278               669.9530
 Red. masses --      1.5662                 2.0906                 2.7727
 Frc consts  --      0.3192                 0.4584                 0.7332
 IR Inten    --     34.1773                90.2586                48.9230

                     25                     26                     27
                      A                      A                      A
 Frequencies --    682.3380               688.7773               730.0362
 Red. masses --      3.0842                 1.8386                 3.9107
 Frc consts  --      0.8460                 0.5139                 1.2280
 IR Inten    --     36.3855                 4.3859                23.4891

                     28                     29                     30
                      A                      A                      A
 Frequencies --    741.5228               770.5082               778.6294
 Red. masses --      5.6310                 1.3775                 2.4801
 Frc consts  --      1.8243                 0.4818                 0.8859
 IR Inten    --      4.4501                 2.2744                 1.9664

                     31                     32                     33
                      A                      A                      A
 Frequencies --    805.1614               805.6851               838.6787
 Red. masses --      1.4398                 1.4394                 1.5475
 Frc consts  --      0.5500                 0.5505                 0.6413
 IR Inten    --     79.2268               164.2281                23.4913

                     34                     35                     36
                      A                      A                      A
 Frequencies --    854.2874               913.1914               943.2786
 Red. masses --      2.9943                 2.5353                 5.5379
 Frc consts  --      1.2875                 1.2457                 2.9032
 IR Inten    --     10.4046                 0.6942                14.0844

                     37                     38                     39
                      A                      A                      A
 Frequencies --    967.7610               988.9825              1011.8871
 Red. masses --      1.7299                 2.1240                 4.8687
 Frc consts  --      0.9546                 1.2240                 2.9371
 IR Inten    --      7.3027                13.2116                71.4430

                     40                     41                     42
                      A                      A                      A
 Frequencies --   1030.8452              1049.5630              1087.4551
 Red. masses --      3.6243                 4.6500                 1.8684
 Frc consts  --      2.2692                 3.0180                 1.3018
 IR Inten    --     18.4038                 5.8354                16.5941

                     43                     44                     45
                      A                      A                      A
 Frequencies --   1098.8485              1110.9824              1136.9573
 Red. masses --      3.4151                 1.5591                 1.8034
 Frc consts  --      2.4296                 1.1338                 1.3735
 IR Inten    --     28.1170                43.7743                44.1576

                     46                     47                     48
                      A                      A                      A
 Frequencies --   1143.7020              1157.6430              1200.5491
 Red. masses --      2.2774                 2.3538                 1.4908
 Frc consts  --      1.7552                 1.8586                 1.2660
 IR Inten    --     75.5811               150.5390                30.8741

                     49                     50                     51
                      A                      A                      A
 Frequencies --   1250.3188              1259.6721              1272.7961
 Red. masses --      1.8037                 2.2669                 1.3736
 Frc consts  --      1.6613                 2.1193                 1.3111
 IR Inten    --     47.4835                30.4121                 5.3966

                     52                     53                     54
                      A                      A                      A
 Frequencies --   1291.8931              1305.0395              1328.3847
 Red. masses --      1.3294                 1.2654                 1.3797
 Frc consts  --      1.3072                 1.2698                 1.4345
 IR Inten    --      6.0328                 1.7130                 2.6625

                     55                     56                     57
                      A                      A                      A
 Frequencies --   1330.6541              1349.5256              1378.1921
 Red. masses --      1.4873                 1.8495                 1.6928
 Frc consts  --      1.5516                 1.9845                 1.8945
 IR Inten    --     56.1086                 5.9392                 4.9179

                     58                     59                     60
                      A                      A                      A
 Frequencies --   1383.8454              1392.0438              1396.1017
 Red. masses --      1.2065                 1.2108                 3.0548
 Frc consts  --      1.3613                 1.3824                 3.5080
 IR Inten    --     13.8560                14.8582                12.4910

                     61                     62                     63
                      A                      A                      A
 Frequencies --   1424.3241              1481.6123              1486.6881
 Red. masses --      2.8195                 1.1112                 1.2151
 Frc consts  --      3.3701                 1.4371                 1.5823
 IR Inten    --     26.9853                 2.6108                17.0473

                     64                     65                     66
                      A                      A                      A
 Frequencies --   1497.6461              1502.2212              1522.6189
 Red. masses --      2.8074                 1.0896                 1.9209
 Frc consts  --      3.7100                 1.4487                 2.6238
 IR Inten    --     35.0931                 6.0405               222.8857

                     67                     68                     69
                      A                      A                      A
 Frequencies --   1606.1944              1664.5381              1736.2115
 Red. masses --      4.4898                 1.0913                 9.1258
 Frc consts  --      6.8245                 1.7815                16.2079
 IR Inten    --      8.0582                32.2038               201.8482

                     70                     71                     72
                      A                      A                      A
 Frequencies --   1821.3890              3029.7238              3046.3894
 Red. masses --     10.1625                 1.0602                 1.0659
 Frc consts  --     19.8635                 5.7336                 5.8283
 IR Inten    --    313.5628                15.5123                20.4444

                     73                     74                     75
                      A                      A                      A
 Frequencies --   3058.4406              3074.4831              3075.4043
 Red. masses --      1.0821                 1.0620                 1.0974
 Frc consts  --      5.9635                 5.9144                 6.1156
 IR Inten    --      2.5538                 8.7937                 7.0505

                     76                     77                     78
                      A                      A                      A
 Frequencies --   3101.4463              3116.2810              3230.9029
 Red. masses --      1.1052                 1.1036                 1.0962
 Frc consts  --      6.2638                 6.3144                 6.7422
 IR Inten    --     22.1774                 2.8074                 7.1839

                     79                     80                     81
                      A                      A                      A
 Frequencies --   3241.5873              3503.5064              3584.4098
 Red. masses --      1.0983                 1.0482                 1.0945
 Frc consts  --      6.7995                 7.5803                 8.2854
 IR Inten    --      1.1362                 1.1181                 1.5753

                     82                     83                     84
                      A                      A                      A
 Frequencies --   3643.9289              3645.7649              3750.1889
 Red. masses --      1.0785                 1.0812                 1.0644
 Frc consts  --      8.4376                 8.4669                 8.8196
 IR Inten    --     28.3395               124.7391                83.8811

 - Thermochemistry -
 -------------------
 Temperature   298.150 Kelvin.  Pressure   1.00000 Atm.
 Atom     1 has atomic number  8 and mass  15.99491

 Molecular mass:   226.10659 amu.
 Principal axes and moments of inertia in atomic units:
                           1         2         3
     Eigenvalues --  1289.363497922.951198630.38853
           X            0.99624   0.04604   0.07339
           Y           -0.08499   0.35466   0.93112
           Z           -0.01684   0.93386  -0.35724
 This molecule is an asymmetric top.
 Rotational symmetry number  1.
 Warning -- assumption of classical behavior for rotation
           may cause significant error
 Rotational temperatures (Kelvin)      0.06718     0.01093     0.01004
 Rotational constants (GHZ):           1.39971     0.22779     0.20911
 Zero-point vibrational energy     641046.9 (Joules/Mol)
                                  153.21388 (Kcal/Mol)
 Warning -- explicit consideration of  23 degrees of freedom as
           vibrations may cause significant error
 Vibrational temperatures:     20.44    34.68    52.65    80.40    99.86
          (Kelvin)            127.84   135.08   183.75   208.28   276.84
                              317.66   402.53   416.37   441.11   487.88
                              530.07   560.08   623.70   636.78   747.86
                              788.27   846.20   877.69   963.91   981.73
                              991.00  1050.36  1066.88  1108.59  1120.27
                             1158.45  1159.20  1206.67  1229.13  1313.88
                             1357.17  1392.39  1422.92  1455.88  1483.15
                             1510.09  1564.60  1581.00  1598.45  1635.83
                             1645.53  1665.59  1727.32  1798.93  1812.38
                             1831.27  1858.74  1877.66  1911.25  1914.51
                             1941.66  1982.91  1991.04  2002.84  2008.68
                             2049.28  2131.71  2139.01  2154.78  2161.36
                             2190.71  2310.95  2394.90  2498.02  2620.57
                             4359.09  4383.07  4400.41  4423.49  4424.82
                             4462.28  4483.63  4648.54  4663.92  5040.76
                             5157.16  5242.79  5245.44  5395.68

 Zero-point correction=                           0.244162 (Hartree/Particle)
 Thermal correction to Energy=                    0.260425
 Thermal correction to Enthalpy=                  0.261369
 Thermal correction to Gibbs Free Energy=         0.196963
 Sum of electronic and zero-point Energies=           -796.137685
 Sum of electronic and thermal Energies=              -796.121422
 Sum of electronic and thermal Enthalpies=            -796.120478
 Sum of electronic and thermal Free Energies=         -796.184884

                     E (Thermal)             CV                S
                      KCal/Mol        Cal/Mol-Kelvin    Cal/Mol-Kelvin
 Total                  163.419             58.905            135.555
 Electronic               0.000              0.000              0.000
 Translational            0.889              2.981             42.150
 Rotational               0.889              2.981             32.844
 Vibrational            161.642             52.943             60.561
 Vibration     1          0.593              1.986              7.313
 Vibration     2          0.593              1.985              6.264
 Vibration     3          0.594              1.982              5.435
 Vibration     4          0.596              1.975              4.598
 Vibration     5          0.598              1.969              4.170
 Vibration     6          0.602              1.957              3.685
 Vibration     7          0.603              1.954              3.577
 Vibration     8          0.611              1.925              2.980
 Vibration     9          0.616              1.908              2.740
 Vibration    10          0.634              1.850              2.204
 Vibration    11          0.648              1.809              1.953
 Vibration    12          0.680              1.711              1.535
 Vibration    13          0.686              1.693              1.478
 Vibration    14          0.697              1.661              1.381
 Vibration    15          0.719              1.597              1.216
 Vibration    16          0.741              1.537              1.086
 Vibration    17          0.757              1.493              1.003
 Vibration    18          0.794              1.397              0.847
 Vibration    19          0.802              1.377              0.819
 Vibration    20          0.875              1.206              0.610
 Vibration    21          0.903              1.144              0.549
 Vibration    22          0.945              1.057              0.471
 Vibration    23          0.969              1.011              0.433

 Optimization completed.
    -- Stationary point found.
 Normal termination of Gaussian 09 at Sat Jul 24 04:18:13 2021.
