 Gaussian 09, Revision D.01,
 Gaussian 09:  ES64L-G09RevD.01 24-Apr-2013

 ----------------------------------------------------------------------
 # B3LYP/6-311++G(d,p) EmpiricalDispersion=GD3BJ guess=read geom=checkp
 oint opt=readfc freq=noraman nosymm integral(ultrafinegrid)
 ----------------------------------------------------------------------

 ------------------------------------------------------------
 Candidate Structure: Conf:801 OPT and FREQ calc in gas phase
 ------------------------------------------------------------
 Structure from the checkpoint file:  "conf-801.chk"
 Charge =  0 Multiplicity = 1

 SCF Done:  E(RB3LYP) =  -796.382563231     A.U. after    1 cycles
 Optimization completed on the basis of negligible forces.
    -- Stationary point found.
 Normal termination of Gaussian 09 at Thu Jul 29 14:26:21 2021.

 ----------------------------------------------------------------------
 #N Geom=AllCheck Guess=TCheck SCRF=Check GenChk RB3LYP/6-311++G(d,p) F
 req
 ----------------------------------------------------------------------

 Structure from the checkpoint file:  "conf-801.chk"
 ------------------------------------------------------------
 Candidate Structure: Conf:801 OPT and FREQ calc in gas phase
 ------------------------------------------------------------
 Charge =  0 Multiplicity = 1

                          Input orientation:
 ---------------------------------------------------------------------
 Center     Atomic      Atomic             Coordinates (Angstroms)
 Number     Number       Type             X           Y           Z
 ---------------------------------------------------------------------
      1          8           0        1.486310    0.983849   -1.007262
      2          6           0        1.764543    0.308906   -0.024502
      3          7           0        0.808737   -0.084439    0.865707
      4          6           0       -0.552780    0.386485    0.757387
      5          6           0       -1.216998    0.231962    2.127142
      6          8           0       -2.417779    0.815020    2.273177
      7          8           0       -0.712392   -0.384004    3.030079
      8          6           0       -1.327434   -0.380470   -0.353134
      9          6           0       -2.705242    0.148066   -0.585381
     10          6           0       -3.169508    1.390771   -0.959738
     11          7           0       -4.549028    1.410680   -0.987691
     12          6           0       -4.927196    0.204681   -0.636221
     13          7           0       -3.850122   -0.599223   -0.378788
     14          6           0        3.180983   -0.133211    0.293851
     15          6           0        3.952985   -0.529262   -0.964090
     16          7           0        5.351477   -0.806336   -0.625717
     17          1           0        1.050596   -0.560272    1.724443
     18          1           0       -0.540031    1.445585    0.479738
     19          1           0       -2.710687    1.217655    1.436938
     20          1           0       -1.361198   -1.440411   -0.086394
     21          1           0       -0.725928   -0.287715   -1.258736
     22          1           0       -2.587109    2.257171   -1.233849
     23          1           0       -5.944751   -0.143125   -0.549164
     24          1           0       -3.879436   -1.557446   -0.065987
     25          1           0        3.174860   -0.954924    1.017761
     26          1           0        3.696036    0.708368    0.768830
     27          1           0        3.923443    0.307515   -1.663149
     28          1           0        3.439034   -1.371671   -1.452238
     29          1           0        5.437468   -1.662942   -0.087843
     30          1           0        5.910912   -0.921362   -1.463457
 ---------------------------------------------------------------------

 SCF Done:  E(RB3LYP) =  -796.382563230     A.U. after    1 cycles

 Alpha  occ. eigenvalues --  -19.18993 -19.13652 -19.10301 -14.39529 -14.35662
 Alpha  occ. eigenvalues --  -14.31633 -14.30323 -10.33060 -10.28816 -10.25578
 Alpha  occ. eigenvalues --  -10.24745 -10.23542 -10.21716 -10.20682 -10.20369
 Alpha  occ. eigenvalues --  -10.18841  -1.13248  -1.05885  -1.05185  -1.04309
 Alpha  occ. eigenvalues --   -0.95025  -0.89869  -0.89446  -0.82986  -0.78058
 Alpha  occ. eigenvalues --   -0.75192  -0.69921  -0.65154  -0.64186  -0.63180
 Alpha  occ. eigenvalues --   -0.62032  -0.60302  -0.57677  -0.55682  -0.51605
 Alpha  occ. eigenvalues --   -0.51388  -0.49784  -0.49519  -0.48021  -0.47179
 Alpha  occ. eigenvalues --   -0.46661  -0.45553  -0.44475  -0.43710  -0.43473
 Alpha  occ. eigenvalues --   -0.43354  -0.42657  -0.40775  -0.40252  -0.40100
 Alpha  occ. eigenvalues --   -0.36655  -0.35928  -0.34913  -0.31238  -0.30851
 Alpha  occ. eigenvalues --   -0.29397  -0.28582  -0.27433  -0.25502  -0.25323
 Alpha virt. eigenvalues --   -0.03159  -0.02450  -0.01657  -0.00884  -0.00248
 Alpha virt. eigenvalues --   -0.00154  -0.00010   0.00890   0.01286   0.01837
 Alpha virt. eigenvalues --    0.02420   0.02866   0.03146   0.03820   0.04021

 Mulliken charges:
               1
     1  O   -0.311892
     2  C   -0.117284
     3  N   -0.013482
     4  C   -0.049029
     5  C   -0.227880
     6  O   -0.100300
     7  O   -0.260616
     8  C   -0.638649
     9  C    0.256441
    10  C   -0.449055
    11  N   -0.101470
    12  C    0.073445
    13  N   -0.099133
    14  C   -0.298910
    15  C   -0.440112
    16  N   -0.336572
    17  H    0.283652
    18  H    0.283892
    19  H    0.345299
    20  H    0.144077
    21  H    0.271605
    22  H    0.164535
    23  H    0.173473
    24  H    0.311655
    25  H    0.137598
    26  H    0.224140
    27  H    0.200402
    28  H    0.134997
    29  H    0.202322
    30  H    0.236849
 Sum of Mulliken charges =   0.00000

 Dipole moment (field-independent basis, Debye):
    X=              0.1241    Y=             -4.6638    Z=             -1.0181  Tot=              4.7752
 Quadrupole moment (field-independent basis, Debye-Ang):
   XX=            -94.0860   YY=            -92.8228   ZZ=           -112.2262
   XY=              6.1588   XZ=             -1.1992   YZ=              5.8633

  Exact polarizability: 189.590 -10.495 121.845   2.760 -10.697 126.641
 Approx polarizability: 228.022 -10.320 204.607   5.870 -28.814 191.761

                      1                      2                      3
                      A                      A                      A
 Frequencies --     15.2664                23.8913                43.7893
 Red. masses --      3.6654                 5.0598                 5.0892
 Frc consts  --      0.0005                 0.0017                 0.0057
 IR Inten    --      0.2048                 1.9118                 1.8969

                      4                      5                      6
                      A                      A                      A
 Frequencies --     54.1896                71.7819                80.4267
 Red. masses --      2.4493                 5.9890                 4.7577
 Frc consts  --      0.0042                 0.0182                 0.0181
 IR Inten    --      6.5553                11.1147                 4.4527

                      7                      8                      9
                      A                      A                      A
 Frequencies --     94.4483               100.7264               160.0068
 Red. masses --      4.1583                 7.2456                 4.2681
 Frc consts  --      0.0219                 0.0433                 0.0644
 IR Inten    --      1.8469                 2.4897                 8.4469

                     10                     11                     12
                      A                      A                      A
 Frequencies --    187.5730               209.1965               246.3045
 Red. masses --      4.2776                 4.6220                 1.2139
 Frc consts  --      0.0887                 0.1192                 0.0434
 IR Inten    --      7.6987                11.4413                47.4954

                     13                     14                     15
                      A                      A                      A
 Frequencies --    278.5424               323.4975               329.4466
 Red. masses --      5.7306                 5.7659                 2.5346
 Frc consts  --      0.2620                 0.3555                 0.1621
 IR Inten    --      1.7246                 2.4051                 4.1556

                     16                     17                     18
                      A                      A                      A
 Frequencies --    346.1987               392.0962               401.5821
 Red. masses --      5.7340                 4.0477                 4.2648
 Frc consts  --      0.4049                 0.3666                 0.4052
 IR Inten    --      8.0879                13.4035                 6.0359

                     19                     20                     21
                      A                      A                      A
 Frequencies --    528.2318               538.4631               552.0263
 Red. masses --      1.6448                 1.3762                 2.1702
 Frc consts  --      0.2704                 0.2351                 0.3897
 IR Inten    --     73.4116                64.6047                29.6745

                     22                     23                     24
                      A                      A                      A
 Frequencies --    608.5598               638.1961               645.9970
 Red. masses --      1.6043                 2.4377                 2.5306
 Frc consts  --      0.3500                 0.5850                 0.6222
 IR Inten    --     83.3616                16.3454                 4.8447

                     25                     26                     27
                      A                      A                      A
 Frequencies --    669.2732               678.9849               735.1156
 Red. masses --      2.7833                 3.3306                 3.4695
 Frc consts  --      0.7346                 0.9047                 1.1047
 IR Inten    --     11.0707                20.5226                 8.5197

                     28                     29                     30
                      A                      A                      A
 Frequencies --    751.5473               766.2577               799.1773
 Red. masses --      3.5790                 3.7641                 1.4172
 Frc consts  --      1.1910                 1.3021                 0.5333
 IR Inten    --     16.5582                 8.5064                30.6837

                     31                     32                     33
                      A                      A                      A
 Frequencies --    816.6596               826.3648               832.0350
 Red. masses --      1.4706                 2.2186                 1.3452
 Frc consts  --      0.5778                 0.8926                 0.5487
 IR Inten    --     22.7151                11.6430                85.1096

                     34                     35                     36
                      A                      A                      A
 Frequencies --    853.6371               943.2169               952.0651
 Red. masses --      1.4382                 5.7774                 3.0663
 Frc consts  --      0.6175                 3.0284                 1.6376
 IR Inten    --     33.9743                11.5716                20.2477

                     37                     38                     39
                      A                      A                      A
 Frequencies --    981.8391              1011.6477              1029.9441
 Red. masses --      2.1451                 3.4016                 3.5591
 Frc consts  --      1.2184                 2.0511                 2.2245
 IR Inten    --      3.6145                 6.0603                 9.5151

                     40                     41                     42
                      A                      A                      A
 Frequencies --   1037.0272              1062.3875              1092.8577
 Red. masses --      3.5036                 2.8072                 2.2311
 Frc consts  --      2.2199                 1.8668                 1.5700
 IR Inten    --      4.7369                19.3266                29.0709

                     43                     44                     45
                      A                      A                      A
 Frequencies --   1107.1498              1125.3610              1142.3978
 Red. masses --      1.6116                 2.1639                 2.3570
 Frc consts  --      1.1639                 1.6146                 1.8124
 IR Inten    --     14.6047                20.4175                13.0874

                     46                     47                     48
                      A                      A                      A
 Frequencies --   1164.8398              1169.2727              1204.1679
 Red. masses --      1.4193                 1.8179                 2.1781
 Frc consts  --      1.1346                 1.4643                 1.8608
 IR Inten    --      5.4534                25.3314                27.5006

                     49                     50                     51
                      A                      A                      A
 Frequencies --   1225.7242              1251.9901              1261.7894
 Red. masses --      1.5797                 1.9676                 1.4282
 Frc consts  --      1.3984                 1.8172                 1.3397
 IR Inten    --     33.3704                19.0637                 7.0006

                     52                     53                     54
                      A                      A                      A
 Frequencies --   1276.5350              1310.0003              1322.0522
 Red. masses --      1.4318                 1.3954                 1.4527
 Frc consts  --      1.3746                 1.4109                 1.4959
 IR Inten    --      1.3262                15.4056                99.9119

                     55                     56                     57
                      A                      A                      A
 Frequencies --   1335.4205              1359.2716              1362.0216
 Red. masses --      1.1101                 1.4381                 1.4178
 Frc consts  --      1.1664                 1.5655                 1.5496
 IR Inten    --     12.3943               146.0827                 2.4519

                     58                     59                     60
                      A                      A                      A
 Frequencies --   1397.6930              1406.9435              1425.5961
 Red. masses --      2.3702                 1.9143                 1.5510
 Frc consts  --      2.7281                 2.2326                 1.8572
 IR Inten    --     48.3995                86.4306                40.3699

                     61                     62                     63
                      A                      A                      A
 Frequencies --   1426.6530              1470.5808              1484.5587
 Red. masses --      3.0388                 1.0954                 1.4674
 Frc consts  --      3.6441                 1.3958                 1.9054
 IR Inten    --     34.4971                 9.1787                15.2729

                     64                     65                     66
                      A                      A                      A
 Frequencies --   1490.0092              1517.6124              1522.1389
 Red. masses --      2.2031                 1.0839                 2.2508
 Frc consts  --      2.8818                 1.4709                 3.0725
 IR Inten    --     22.8367                 1.4265               337.4780

                     67                     68                     69
                      A                      A                      A
 Frequencies --   1597.0724              1663.2873              1726.6916
 Red. masses --      4.1916                 1.0914                 9.3231
 Frc consts  --      6.2991                 1.7790                16.3773
 IR Inten    --     10.6055                29.3582               241.9700

                     70                     71                     72
                      A                      A                      A
 Frequencies --   1822.5358              2954.6648              3027.6831
 Red. masses --      9.6733                 1.0740                 1.0601
 Frc consts  --     18.9312                 5.5241                 5.7254
 IR Inten    --    318.4403                68.5016                16.5529

                     73                     74                     75
                      A                      A                      A
 Frequencies --   3038.7451              3052.9945              3066.1357
 Red. masses --      1.0786                 1.0661                 1.0988
 Frc consts  --      5.8682                 5.8549                 6.0863
 IR Inten    --      7.1823                17.9733                 8.3565

                     76                     77                     78
                      A                      A                      A
 Frequencies --   3097.8984              3101.5318              3234.3470
 Red. masses --      1.0911                 1.1025                 1.0966
 Frc consts  --      6.1692                 6.2484                 6.7591
 IR Inten    --     15.2812                 1.7778                 3.4943

                     79                     80                     81
                      A                      A                      A
 Frequencies --   3247.7000              3503.0785              3582.9294
 Red. masses --      1.0988                 1.0498                 1.0931
 Frc consts  --      6.8283                 7.5900                 8.2681
 IR Inten    --      1.1573                 0.3646                 1.7539

                     82                     83                     84
                      A                      A                      A
 Frequencies --   3593.3477              3642.8435              3645.2290
 Red. masses --      1.0779                 1.0701                 1.0783
 Frc consts  --      8.2002                 8.3669                 8.4417
 IR Inten    --     74.7302               206.1587               135.2529

 - Thermochemistry -
 -------------------
 Temperature   298.150 Kelvin.  Pressure   1.00000 Atm.
 Atom     1 has atomic number  8 and mass  15.99491

 Molecular mass:   226.10659 amu.
 Principal axes and moments of inertia in atomic units:
                           1         2         3
     Eigenvalues --  1685.955717794.074088832.00366
           X            0.99347   0.02157   0.11203
           Y           -0.10920  -0.10462   0.98850
           Z           -0.03305   0.99428   0.10158
 This molecule is an asymmetric top.
 Rotational symmetry number  1.
 Warning -- assumption of classical behavior for rotation
           may cause significant error
 Rotational temperatures (Kelvin)      0.05137     0.01111     0.00981
 Rotational constants (GHZ):           1.07046     0.23155     0.20434
 Zero-point vibrational energy     640414.7 (Joules/Mol)
                                  153.06278 (Kcal/Mol)
 Warning -- explicit consideration of  22 degrees of freedom as
           vibrations may cause significant error
 Vibrational temperatures:     21.96    34.37    63.00    77.97   103.28
          (Kelvin)            115.72   135.89   144.92   230.21   269.88
                              300.99   354.38   400.76   465.44   474.00
                              498.10   564.14   577.79   760.01   774.73
                              794.24   875.58   918.22   929.44   962.93
                              976.91  1057.67  1081.31  1102.47  1149.84
                             1174.99  1188.95  1197.11  1228.19  1357.08
                             1369.81  1412.65  1455.53  1481.86  1492.05
                             1528.54  1572.38  1592.94  1619.14  1643.65
                             1675.94  1682.32  1732.53  1763.54  1801.33
                             1815.43  1836.65  1884.80  1902.14  1921.37
                             1955.69  1959.64  2010.97  2024.28  2051.11
                             2052.63  2115.84  2135.95  2143.79  2183.50
                             2190.02  2297.83  2393.10  2484.32  2622.22
                             4251.10  4356.16  4372.07  4392.57  4411.48
                             4457.18  4462.41  4653.50  4672.71  5040.14
                             5155.03  5170.02  5241.23  5244.66

 Zero-point correction=                           0.243921 (Hartree/Particle)
 Thermal correction to Energy=                    0.260207
 Thermal correction to Enthalpy=                  0.261151
 Thermal correction to Gibbs Free Energy=         0.196542
 Sum of electronic and zero-point Energies=           -796.138642
 Sum of electronic and thermal Energies=              -796.122356
 Sum of electronic and thermal Enthalpies=            -796.121412
 Sum of electronic and thermal Free Energies=         -796.186021

                     E (Thermal)             CV                S
                      KCal/Mol        Cal/Mol-Kelvin    Cal/Mol-Kelvin
 Total                  163.282             58.601            135.982
 Electronic               0.000              0.000              0.000
 Translational            0.889              2.981             42.150
 Rotational               0.889              2.981             33.117
 Vibrational            161.505             52.639             60.714
 Vibration     1          0.593              1.986              7.171
 Vibration     2          0.593              1.985              6.281
 Vibration     3          0.595              1.980              5.080
 Vibration     4          0.596              1.976              4.658
 Vibration     5          0.598              1.967              4.104
 Vibration     6          0.600              1.962              3.880
 Vibration     7          0.603              1.953              3.566
 Vibration     8          0.604              1.949              3.440
 Vibration     9          0.622              1.891              2.550
 Vibration    10          0.632              1.857              2.252
 Vibration    11          0.642              1.827              2.051
 Vibration    12          0.661              1.769              1.757
 Vibration    13          0.679              1.713              1.543
 Vibration    14          0.708              1.628              1.292
 Vibration    15          0.712              1.617              1.263
 Vibration    16          0.724              1.583              1.183
 Vibration    17          0.760              1.487              0.992
 Vibration    18          0.767              1.467              0.957
 Vibration    19          0.883              1.188              0.591
 Vibration    20          0.894              1.165              0.569
 Vibration    21          0.907              1.135              0.540
 Vibration    22          0.967              1.014              0.435

 Optimization completed on the basis of negligible forces.
    -- Stationary point found.
 Normal termination of Gaussian 09 at Thu Jul 29 15:36:42 2021.
