 Gaussian 09, Revision D.01,
 Gaussian 09:  ES64L-G09RevD.01 24-Apr-2013

 ----------------------------------------------------------------------
 # B3LYP/6-311++G(d,p) EmpiricalDispersion=GD3BJ opt=calcfc freq=norama
 n nosymm integral(ultrafinegrid)
 ----------------------------------------------------------------------

 ------------------------------------------------------------
 Candidate Structure: Conf:340 OPT and FREQ calc in gas phase
 ------------------------------------------------------------
 Symbolic Z-matrix:
 Charge =  0 Multiplicity = 1

 SCF Done:  E(RB3LYP) =  -796.385605014     A.U. after   15 cycles
 SCF Done:  E(RB3LYP) =  -796.387745039     A.U. after   15 cycles
 SCF Done:  E(RB3LYP) =  -796.387520566     A.U. after   13 cycles
 SCF Done:  E(RB3LYP) =  -796.387916510     A.U. after   13 cycles
 SCF Done:  E(RB3LYP) =  -796.387933206     A.U. after   11 cycles
 SCF Done:  E(RB3LYP) =  -796.387947546     A.U. after   12 cycles
 SCF Done:  E(RB3LYP) =  -796.387956522     A.U. after   12 cycles
 SCF Done:  E(RB3LYP) =  -796.387959707     A.U. after   11 cycles
 SCF Done:  E(RB3LYP) =  -796.387960781     A.U. after   10 cycles
 SCF Done:  E(RB3LYP) =  -796.387960879     A.U. after    9 cycles
 Optimization completed.
    -- Stationary point found.
 Normal termination of Gaussian 09 at Sat Jul 24 03:12:52 2021.

 ----------------------------------------------------------------------
 #N Geom=AllCheck Guess=TCheck SCRF=Check GenChk RB3LYP/6-311++G(d,p) F
 req
 ----------------------------------------------------------------------

 Structure from the checkpoint file:  "conf-340.chk"
 ------------------------------------------------------------
 Candidate Structure: Conf:340 OPT and FREQ calc in gas phase
 ------------------------------------------------------------
 Charge =  0 Multiplicity = 1

                          Input orientation:
 ---------------------------------------------------------------------
 Center     Atomic      Atomic             Coordinates (Angstroms)
 Number     Number       Type             X           Y           Z
 ---------------------------------------------------------------------
      1          8           0        0.584127   -0.958451   -0.792965
      2          6           0        1.370218   -0.175971   -0.256088
      3          7           0        0.936861    0.985837    0.296428
      4          6           0       -0.451202    1.358650    0.165181
      5          6           0       -0.615232    2.840231    0.460925
      6          8           0       -1.861905    3.316582    0.278830
      7          8           0        0.277032    3.548017    0.844536
      8          6           0       -1.404016    0.498941    1.066669
      9          6           0       -2.591858    0.041445    0.298574
     10          6           0       -3.933261    0.348276    0.329162
     11          7           0       -4.603529   -0.316915   -0.676701
     12          6           0       -3.684663   -1.011003   -1.311238
     13          7           0       -2.447284   -0.828980   -0.763672
     14          6           0        2.857015   -0.449022   -0.180126
     15          6           0        3.152224   -1.897012    0.215882
     16          7           0        4.593351   -2.146526    0.148751
     17          1           0        1.574485    1.679147    0.664232
     18          1           0       -0.746286    1.192960   -0.875539
     19          1           0       -2.468793    2.617974   -0.017840
     20          1           0       -0.828051   -0.356180    1.422950
     21          1           0       -1.720742    1.062169    1.946486
     22          1           0       -4.453232    0.982291    1.031860
     23          1           0       -3.854762   -1.655040   -2.160151
     24          1           0       -1.551154   -1.205193   -1.059510
     25          1           0        3.283073   -0.266122   -1.171754
     26          1           0        3.341169    0.246101    0.513182
     27          1           0        2.652253   -2.556294   -0.495005
     28          1           0        2.711567   -2.097430    1.204861
     29          1           0        4.795709   -3.135055    0.247290
     30          1           0        5.086761   -1.663316    0.892650
 ---------------------------------------------------------------------

 SCF Done:  E(RB3LYP) =  -796.387960879     A.U. after    1 cycles

 Alpha  occ. eigenvalues --  -19.19499 -19.14097 -19.12010 -14.37419 -14.37019
 Alpha  occ. eigenvalues --  -14.31067 -14.30385 -10.33480 -10.30344 -10.25909
 Alpha  occ. eigenvalues --  -10.23576 -10.22226 -10.21670 -10.21349 -10.19876
 Alpha  occ. eigenvalues --  -10.19835  -1.13602  -1.07286  -1.05703  -1.02866
 Alpha  occ. eigenvalues --   -0.96178  -0.90276  -0.88499  -0.82857  -0.78526
 Alpha  occ. eigenvalues --   -0.75355  -0.69881  -0.65902  -0.63833  -0.62683
 Alpha  occ. eigenvalues --   -0.61820  -0.60538  -0.57611  -0.56138  -0.52544
 Alpha  occ. eigenvalues --   -0.51560  -0.50667  -0.49559  -0.48492  -0.47283
 Alpha  occ. eigenvalues --   -0.47190  -0.45362  -0.44837  -0.43867  -0.43421
 Alpha  occ. eigenvalues --   -0.42523  -0.42048  -0.41487  -0.41129  -0.40599
 Alpha  occ. eigenvalues --   -0.37615  -0.36968  -0.35290  -0.31468  -0.29963
 Alpha  occ. eigenvalues --   -0.29529  -0.29215  -0.28219  -0.26104  -0.24665
 Alpha virt. eigenvalues --   -0.03199  -0.02350  -0.01657  -0.01300  -0.00520
 Alpha virt. eigenvalues --   -0.00194   0.00294   0.00554   0.01476   0.01826
 Alpha virt. eigenvalues --    0.02626   0.02900   0.03751   0.03904   0.04139

 Mulliken charges:
               1
     1  O   -0.344695
     2  C   -0.041993
     3  N   -0.047118
     4  C   -0.025766
     5  C   -0.283188
     6  O   -0.118760
     7  O   -0.251122
     8  C   -0.585403
     9  C    0.439135
    10  C   -0.603577
    11  N   -0.117381
    12  C    0.057959
    13  N   -0.202464
    14  C   -0.344208
    15  C   -0.391419
    16  N   -0.332556
    17  H    0.300399
    18  H    0.280180
    19  H    0.297466
    20  H    0.202360
    21  H    0.259813
    22  H    0.147651
    23  H    0.171834
    24  H    0.397404
    25  H    0.231121
    26  H    0.133780
    27  H    0.190891
    28  H    0.136209
    29  H    0.237880
    30  H    0.205569
 Sum of Mulliken charges =   0.00000

 Dipole moment (field-independent basis, Debye):
    X=              3.5340    Y=             -2.5545    Z=              1.3161  Tot=              4.5549
 Quadrupole moment (field-independent basis, Debye-Ang):
   XX=           -111.1745   YY=           -108.0460   ZZ=            -92.6567
   XY=             -3.6053   XZ=              4.7518   YZ=             -3.8911

  Exact polarizability: 181.182  -4.081 141.595   9.420  18.067 115.395
 Approx polarizability: 237.943   4.177 204.416  14.262  33.297 184.109

                      1                      2                      3
                      A                      A                      A
 Frequencies --     16.3818                36.3640                57.8438
 Red. masses --      3.4426                 5.8982                 3.1053
 Frc consts  --      0.0005                 0.0046                 0.0061
 IR Inten    --      0.7778                 2.4142                 4.2491

                      4                      5                      6
                      A                      A                      A
 Frequencies --     74.6072                83.2204                87.8129
 Red. masses --      3.9361                 6.8073                 4.0668
 Frc consts  --      0.0129                 0.0278                 0.0185
 IR Inten    --      3.4889                 1.5462                 3.5973

                      7                      8                      9
                      A                      A                      A
 Frequencies --    100.7716               115.1684               167.1910
 Red. masses --      6.0129                 5.6324                 4.4973
 Frc consts  --      0.0360                 0.0440                 0.0741
 IR Inten    --      6.8585                 7.3204                 9.0845

                     10                     11                     12
                      A                      A                      A
 Frequencies --    191.3324               206.8657               244.9000
 Red. masses --      5.2202                 3.3995                 1.2958
 Frc consts  --      0.1126                 0.0857                 0.0458
 IR Inten    --      8.4920                 7.1717                45.3091

                     13                     14                     15
                      A                      A                      A
 Frequencies --    276.5301               317.2051               339.8449
 Red. masses --      4.8834                 5.5133                 2.4359
 Frc consts  --      0.2200                 0.3268                 0.1658
 IR Inten    --      4.4288                 1.8577                 7.0500

                     16                     17                     18
                      A                      A                      A
 Frequencies --    357.1378               396.0196               413.2408
 Red. masses --      5.8629                 3.9810                 3.9242
 Frc consts  --      0.4406                 0.3679                 0.3948
 IR Inten    --      8.6068                 7.0222                10.5338

                     19                     20                     21
                      A                      A                      A
 Frequencies --    524.2314               547.3323               589.2056
 Red. masses --      1.3233                 2.7209                 1.3220
 Frc consts  --      0.2143                 0.4803                 0.2704
 IR Inten    --     57.7847                13.8110                84.2067

                     22                     23                     24
                      A                      A                      A
 Frequencies --    630.1162               647.9809               661.1316
 Red. masses --      3.3350                 3.8158                 2.9441
 Frc consts  --      0.7802                 0.9440                 0.7582
 IR Inten    --     40.1423                 6.9008                 8.9667

                     25                     26                     27
                      A                      A                      A
 Frequencies --    679.0195               716.1928               746.7189
 Red. masses --      3.9383                 3.7813                 1.2408
 Frc consts  --      1.0698                 1.1428                 0.4076
 IR Inten    --     17.7243                 4.0157                51.9664

                     28                     29                     30
                      A                      A                      A
 Frequencies --    757.0164               774.6618               801.2975
 Red. masses --      2.8569                 3.8862                 1.3898
 Frc consts  --      0.9646                 1.3740                 0.5258
 IR Inten    --     19.2305                 4.6833                32.0503

                     31                     32                     33
                      A                      A                      A
 Frequencies --    827.9443               830.6119               842.1226
 Red. masses --      1.4118                 1.3342                 1.3515
 Frc consts  --      0.5702                 0.5423                 0.5647
 IR Inten    --     24.9509               100.0983                16.7481

                     34                     35                     36
                      A                      A                      A
 Frequencies --    865.2084               945.1735               950.8673
 Red. masses --      2.7429                 5.0485                 2.9764
 Frc consts  --      1.2098                 2.6573                 1.5856
 IR Inten    --     12.1440                 7.2762                13.7125

                     37                     38                     39
                      A                      A                      A
 Frequencies --    981.7818               987.8896              1022.9778
 Red. masses --      2.1248                 5.7201                 3.4967
 Frc consts  --      1.2067                 3.2890                 2.1560
 IR Inten    --      3.1353                 2.5148                14.0578

                     40                     41                     42
                      A                      A                      A
 Frequencies --   1034.2493              1063.6172              1093.0974
 Red. masses --      3.1362                 2.7807                 2.2909
 Frc consts  --      1.9766                 1.8534                 1.6128
 IR Inten    --      3.6388                18.4272                28.6299

                     43                     44                     45
                      A                      A                      A
 Frequencies --   1117.3881              1132.6527              1141.2539
 Red. masses --      1.6508                 1.8674                 2.2471
 Frc consts  --      1.2144                 1.4115                 1.7244
 IR Inten    --     36.9608                13.3745                 7.3619

                     46                     47                     48
                      A                      A                      A
 Frequencies --   1165.0172              1190.2172              1200.7089
 Red. masses --      1.6068                 1.6974                 1.9356
 Frc consts  --      1.2849                 1.4167                 1.6441
 IR Inten    --     13.0116                35.0542                 0.8971

                     49                     50                     51
                      A                      A                      A
 Frequencies --   1230.1455              1256.2128              1261.0811
 Red. masses --      1.5109                 2.2883                 1.3975
 Frc consts  --      1.3471                 2.1276                 1.3095
 IR Inten    --     32.3703                27.5292                 3.4317

                     52                     53                     54
                      A                      A                      A
 Frequencies --   1275.5158              1300.1234              1332.9487
 Red. masses --      1.3463                 1.3551                 1.3049
 Frc consts  --      1.2905                 1.3495                 1.3660
 IR Inten    --      6.5086                75.0917                 7.5894

                     55                     56                     57
                      A                      A                      A
 Frequencies --   1336.5299              1347.5844              1369.2168
 Red. masses --      1.1601                 1.7327                 1.4378
 Frc consts  --      1.2209                 1.8539                 1.5881
 IR Inten    --     47.7168               170.0644                 8.0960

                     58                     59                     60
                      A                      A                      A
 Frequencies --   1385.6758              1412.8009              1424.5433
 Red. masses --      3.2345                 1.6787                 1.5057
 Frc consts  --      3.6591                 1.9742                 1.8003
 IR Inten    --      6.1894                42.0953                57.5118

                     61                     62                     63
                      A                      A                      A
 Frequencies --   1433.1059              1472.8263              1487.2078
 Red. masses --      2.4723                 1.1055                 1.1508
 Frc consts  --      2.9917                 1.4129                 1.4997
 IR Inten    --     78.9940                10.7747                12.8307

                     64                     65                     66
                      A                      A                      A
 Frequencies --   1500.5255              1517.7503              1524.8201
 Red. masses --      3.2524                 1.0836                 2.5658
 Frc consts  --      4.3146                 1.4707                 3.5149
 IR Inten    --     48.8191                 1.4119               285.7238

                     67                     68                     69
                      A                      A                      A
 Frequencies --   1609.7373              1664.2099              1696.7282
 Red. masses --      4.4803                 1.0945                 8.2750
 Frc consts  --      6.8402                 1.7860                14.0360
 IR Inten    --     13.6855                27.1389               223.2226

                     70                     71                     72
                      A                      A                      A
 Frequencies --   1834.4311              2953.1223              3032.4311
 Red. masses --     10.0485                 1.0739                 1.0598
 Frc consts  --     19.9229                 5.5178                 5.7421
 IR Inten    --    348.3575                68.4764                14.3929

                     73                     74                     75
                      A                      A                      A
 Frequencies --   3038.6243              3064.6461              3071.2232
 Red. masses --      1.0819                 1.0606                 1.0985
 Frc consts  --      5.8856                 5.8692                 6.1047
 IR Inten    --      9.0975                15.2691                 5.7846

                     76                     77                     78
                      A                      A                      A
 Frequencies --   3097.1604              3105.2793              3226.9093
 Red. masses --      1.0921                 1.1051                 1.0966
 Frc consts  --      6.1720                 6.2787                 6.7280
 IR Inten    --     16.7595                 7.4435                 4.4762

                     79                     80                     81
                      A                      A                      A
 Frequencies --   3244.8238              3504.8892              3537.9353
 Red. masses --      1.0983                 1.0498                 1.0838
 Frc consts  --      6.8134                 7.5983                 7.9932
 IR Inten    --      0.9872                 0.3307               235.9177

                     82                     83                     84
                      A                      A                      A
 Frequencies --   3584.7323              3596.5748              3681.0727
 Red. masses --      1.0932                 1.0784                 1.0674
 Frc consts  --      8.2770                 8.2190                 8.5213
 IR Inten    --      2.4299                81.0687               217.7014

 - Thermochemistry -
 -------------------
 Temperature   298.150 Kelvin.  Pressure   1.00000 Atm.
 Atom     1 has atomic number  8 and mass  15.99491

 Molecular mass:   226.10659 amu.
 Principal axes and moments of inertia in atomic units:
                           1         2         3
     Eigenvalues --  2483.776766019.851068102.96684
           X            0.96110   0.25631  -0.10296
           Y           -0.27423   0.93004  -0.24460
           Z            0.03306   0.26332   0.96414
 This molecule is an asymmetric top.
 Rotational symmetry number  1.
 Warning -- assumption of classical behavior for rotation
           may cause significant error
 Rotational temperatures (Kelvin)      0.03487     0.01439     0.01069
 Rotational constants (GHZ):           0.72661     0.29980     0.22273
 Zero-point vibrational energy     642174.9 (Joules/Mol)
                                  153.48349 (Kcal/Mol)
 Warning -- explicit consideration of  21 degrees of freedom as
           vibrations may cause significant error
 Vibrational temperatures:     23.57    52.32    83.22   107.34   119.74
          (Kelvin)            126.34   144.99   165.70   240.55   275.28
                              297.63   352.36   397.86   456.39   488.96
                              513.84   569.78   594.56   754.25   787.49
                              847.73   906.60   932.30   951.22   976.96
                             1030.44  1074.36  1089.18  1114.56  1152.89
                             1191.23  1195.06  1211.63  1244.84  1359.89
                             1368.08  1412.56  1421.35  1471.84  1488.05
                             1530.31  1572.72  1607.67  1629.63  1642.01
                             1676.20  1712.45  1727.55  1769.90  1807.41
                             1814.41  1835.18  1870.59  1917.81  1922.97
                             1938.87  1970.00  1993.68  2032.70  2049.60
                             2061.92  2119.07  2139.76  2158.92  2183.70
                             2193.87  2316.05  2394.42  2441.21  2639.33
                             4248.88  4362.99  4371.90  4409.34  4418.80
                             4456.12  4467.80  4642.80  4668.57  5042.75
                             5090.29  5157.62  5174.66  5296.24

 Zero-point correction=                           0.244592 (Hartree/Particle)
 Thermal correction to Energy=                    0.260573
 Thermal correction to Enthalpy=                  0.261518
 Thermal correction to Gibbs Free Energy=         0.198533
 Sum of electronic and zero-point Energies=           -796.143369
 Sum of electronic and thermal Energies=              -796.127388
 Sum of electronic and thermal Enthalpies=            -796.126443
 Sum of electronic and thermal Free Energies=         -796.189428

                     E (Thermal)             CV                S
                      KCal/Mol        Cal/Mol-Kelvin    Cal/Mol-Kelvin
 Total                  163.512             58.104            132.563
 Electronic               0.000              0.000              0.000
 Translational            0.889              2.981             42.150
 Rotational               0.889              2.981             33.160
 Vibrational            161.735             52.142             57.253
 Vibration     1          0.593              1.986              7.031
 Vibration     2          0.594              1.982              5.448
 Vibration     3          0.596              1.974              4.529
 Vibration     4          0.599              1.966              4.028
 Vibration     5          0.600              1.961              3.813
 Vibration     6          0.601              1.958              3.708
 Vibration     7          0.604              1.949              3.439
 Vibration     8          0.608              1.937              3.180
 Vibration     9          0.624              1.883              2.467
 Vibration    10          0.634              1.852              2.215
 Vibration    11          0.641              1.830              2.071
 Vibration    12          0.660              1.771              1.767
 Vibration    13          0.678              1.717              1.555
 Vibration    14          0.704              1.641              1.324
 Vibration    15          0.720              1.596              1.213
 Vibration    16          0.732              1.561              1.135
 Vibration    17          0.763              1.479              0.977
 Vibration    18          0.777              1.441              0.915
 Vibration    19          0.879              1.196              0.600
 Vibration    20          0.903              1.146              0.550
 Vibration    21          0.946              1.055              0.469

 Normal termination of Gaussian 09 at Sat Jul 24 04:20:27 2021.
