 Gaussian 09, Revision D.01,
 Gaussian 09:  ES64L-G09RevD.01 24-Apr-2013

 ----------------------------------------------------------------------
 # B3LYP/6-311++G(d,p) EmpiricalDispersion=GD3BJ opt=calcfc freq=norama
 n nosymm integral(ultrafinegrid)
 ----------------------------------------------------------------------

 ------------------------------------------------------------
 Candidate Structure: Conf:599 OPT and FREQ calc in gas phase
 ------------------------------------------------------------
 Symbolic Z-matrix:
 Charge =  0 Multiplicity = 1

 SCF Done:  E(RB3LYP) =  -796.378907933     A.U. after   15 cycles
 SCF Done:  E(RB3LYP) =  -796.380386752     A.U. after   16 cycles
 SCF Done:  E(RB3LYP) =  -796.379340619     A.U. after   16 cycles
 SCF Done:  E(RB3LYP) =  -796.380839722     A.U. after   13 cycles
 SCF Done:  E(RB3LYP) =  -796.381088912     A.U. after   13 cycles
 SCF Done:  E(RB3LYP) =  -796.381118111     A.U. after   13 cycles
 SCF Done:  E(RB3LYP) =  -796.381124512     A.U. after   12 cycles
 SCF Done:  E(RB3LYP) =  -796.381124807     A.U. after   11 cycles
 Optimization completed.
    -- Stationary point found.
 Normal termination of Gaussian 09 at Sat Jul 24 02:50:43 2021.

 ----------------------------------------------------------------------
 #N Geom=AllCheck Guess=TCheck SCRF=Check GenChk RB3LYP/6-311++G(d,p) F
 req
 ----------------------------------------------------------------------

 Structure from the checkpoint file:  "conf-599.chk"
 ------------------------------------------------------------
 Candidate Structure: Conf:599 OPT and FREQ calc in gas phase
 ------------------------------------------------------------
 Charge =  0 Multiplicity = 1

                          Input orientation:
 ---------------------------------------------------------------------
 Center     Atomic      Atomic             Coordinates (Angstroms)
 Number     Number       Type             X           Y           Z
 ---------------------------------------------------------------------
      1          8           0        2.694604    1.644690    0.796521
      2          6           0        1.891826    0.830438    0.384675
      3          7           0        1.065706    1.163107   -0.688915
      4          6           0       -0.204122    0.509029   -1.000418
      5          6           0       -0.362158    0.379964   -2.526927
      6          8           0        0.784601    0.367629   -3.217524
      7          8           0       -1.427913    0.263839   -3.076877
      8          6           0       -1.424015    1.185453   -0.326892
      9          6           0       -2.576155    0.274132   -0.065263
     10          6           0       -3.137567   -0.155359    1.114956
     11          7           0       -4.196072   -1.001148    0.871960
     12          6           0       -4.278678   -1.088619   -0.437952
     13          7           0       -3.324272   -0.332522   -1.053830
     14          6           0        1.765819   -0.571127    0.955822
     15          6           0        2.881053   -0.897276    1.963252
     16          7           0        4.237963   -0.927574    1.436385
     17          1           0        1.099112    2.161931   -0.871955
     18          1           0       -0.143728   -0.518865   -0.637035
     19          1           0        1.510136    0.541748   -2.591210
     20          1           0       -1.729915    2.051233   -0.924315
     21          1           0       -1.087991    1.567028    0.639407
     22          1           0       -2.844369    0.109207    2.119778
     23          1           0       -4.997210   -1.675612   -0.988818
     24          1           0       -3.117460   -0.251894   -2.041786
     25          1           0        0.785925   -0.661657    1.442361
     26          1           0        1.771014   -1.301245    0.137974
     27          1           0        2.851157   -0.163992    2.771634
     28          1           0        2.659372   -1.870940    2.408878
     29          1           0        4.347031   -1.614239    0.698121
     30          1           0        4.506233   -0.017303    1.080284
 ---------------------------------------------------------------------

 SCF Done:  E(RB3LYP) =  -796.381124807     A.U. after    1 cycles

 Alpha  occ. eigenvalues --  -19.20486 -19.15087 -19.13261 -14.38372 -14.37068
 Alpha  occ. eigenvalues --  -14.30242 -14.29930 -10.34538 -10.31563 -10.27366
 Alpha  occ. eigenvalues --  -10.23053 -10.22197 -10.21789 -10.21342 -10.21071
 Alpha  occ. eigenvalues --  -10.19172  -1.14893  -1.08655  -1.06769  -1.02435
 Alpha  occ. eigenvalues --   -0.97372  -0.89868  -0.88027  -0.82723  -0.78816
 Alpha  occ. eigenvalues --   -0.76039  -0.70059  -0.67201  -0.65346  -0.62028
 Alpha  occ. eigenvalues --   -0.60632  -0.60175  -0.58392  -0.55748  -0.54695
 Alpha  occ. eigenvalues --   -0.52367  -0.50269  -0.49777  -0.49369  -0.48424
 Alpha  occ. eigenvalues --   -0.47054  -0.45608  -0.45211  -0.44595  -0.44279
 Alpha  occ. eigenvalues --   -0.42993  -0.42096  -0.41874  -0.41010  -0.40022
 Alpha  occ. eigenvalues --   -0.39391  -0.37613  -0.36293  -0.33474  -0.31579
 Alpha  occ. eigenvalues --   -0.29617  -0.29151  -0.27809  -0.25380  -0.24035
 Alpha virt. eigenvalues --   -0.04572  -0.03823  -0.02658  -0.01597  -0.00860
 Alpha virt. eigenvalues --   -0.00312   0.00444   0.00871   0.01473   0.01642
 Alpha virt. eigenvalues --    0.02457   0.03032   0.03294   0.03783   0.04280

 Mulliken charges:
               1
     1  O   -0.279903
     2  C    0.060086
     3  N   -0.161396
     4  C   -0.293697
     5  C   -0.132309
     6  O   -0.109149
     7  O   -0.278811
     8  C   -0.744728
     9  C    0.533701
    10  C   -0.498056
    11  N   -0.132210
    12  C    0.058108
    13  N   -0.170809
    14  C   -0.034021
    15  C   -0.685899
    16  N   -0.305888
    17  H    0.316325
    18  H    0.276890
    19  H    0.285771
    20  H    0.240139
    21  H    0.208547
    22  H    0.129403
    23  H    0.163516
    24  H    0.355010
    25  H    0.159513
    26  H    0.189648
    27  H    0.207438
    28  H    0.174330
    29  H    0.214130
    30  H    0.254324
 Sum of Mulliken charges =   0.00000

 Dipole moment (field-independent basis, Debye):
    X=              1.2423    Y=              0.4033    Z=             -1.7637  Tot=              2.1947
 Quadrupole moment (field-independent basis, Debye-Ang):
   XX=           -121.1450   YY=            -94.8844   ZZ=           -109.2769
   XY=             -6.9045   XZ=             -1.5955   YZ=              1.6964

  Exact polarizability: 174.085  18.028 119.037  10.827  -3.587 144.207
 Approx polarizability: 226.588  32.276 183.530  12.409   1.422 217.609

                      1                      2                      3
                      A                      A                      A
 Frequencies --     12.8809                34.6780                47.9131
 Red. masses --      5.5793                 4.8328                 3.5109
 Frc consts  --      0.0005                 0.0034                 0.0047
 IR Inten    --      0.2592                 0.3896                 2.7165

                      4                      5                      6
                      A                      A                      A
 Frequencies --     62.7393                78.7493                87.4876
 Red. masses --      6.6818                 5.1895                 6.2063
 Frc consts  --      0.0155                 0.0190                 0.0280
 IR Inten    --      0.6167                 1.0172                10.1938

                      7                      8                      9
                      A                      A                      A
 Frequencies --    134.6475               143.6187               152.2328
 Red. masses --      4.7412                 6.0104                 3.2572
 Frc consts  --      0.0506                 0.0730                 0.0445
 IR Inten    --      2.5240                13.0715                 4.5542

                     10                     11                     12
                      A                      A                      A
 Frequencies --    207.2440               246.0522               285.6390
 Red. masses --      4.5123                 2.6735                 4.4238
 Frc consts  --      0.1142                 0.0954                 0.2127
 IR Inten    --      7.4908                 6.5595                 9.1935

                     13                     14                     15
                      A                      A                      A
 Frequencies --    314.9153               340.3428               344.9550
 Red. masses --      4.4545                 2.3214                 1.2411
 Frc consts  --      0.2603                 0.1584                 0.0870
 IR Inten    --      1.4727                 5.7028                53.8741

                     16                     17                     18
                      A                      A                      A
 Frequencies --    365.1712               415.6358               445.2672
 Red. masses --      4.9568                 3.1936                 4.6389
 Frc consts  --      0.3894                 0.3251                 0.5419
 IR Inten    --     13.6732                10.0299                 0.5335

                     19                     20                     21
                      A                      A                      A
 Frequencies --    523.1910               555.4338               602.4045
 Red. masses --      2.3849                 2.7690                 3.9479
 Frc consts  --      0.3846                 0.5033                 0.8441
 IR Inten    --     15.5778                 3.9153                 8.6303

                     22                     23                     24
                      A                      A                      A
 Frequencies --    624.5623               647.9277               670.1911
 Red. masses --      3.3542                 3.2915                 2.5306
 Frc consts  --      0.7709                 0.8141                 0.6697
 IR Inten    --     36.8382                 8.2216                33.2386

                     25                     26                     27
                      A                      A                      A
 Frequencies --    683.4471               721.4996               729.5681
 Red. masses --      1.6224                 3.7754                 1.2259
 Frc consts  --      0.4465                 1.1579                 0.3844
 IR Inten    --     73.3510                 4.4395                60.4248

                     28                     29                     30
                      A                      A                      A
 Frequencies --    744.5537               793.3972               805.6291
 Red. masses --      3.3994                 1.4140                 1.4817
 Frc consts  --      1.1103                 0.5244                 0.5666
 IR Inten    --      2.4826               206.0377                82.5505

                     31                     32                     33
                      A                      A                      A
 Frequencies --    816.9126               824.9210               836.0485
 Red. masses --      1.4303                 2.2770                 2.1366
 Frc consts  --      0.5624                 0.9129                 0.8799
 IR Inten    --     47.3209                63.1615                21.8054

                     34                     35                     36
                      A                      A                      A
 Frequencies --    844.0148               886.5433               926.8006
 Red. masses --      1.4563                 2.5494                 1.6495
 Frc consts  --      0.6112                 1.1806                 0.8348
 IR Inten    --     27.9024                 4.8533                 3.4374

                     37                     38                     39
                      A                      A                      A
 Frequencies --    945.4195               983.7501              1023.5187
 Red. masses --      5.6488                 2.7448                 2.2036
 Frc consts  --      2.9748                 1.5651                 1.3601
 IR Inten    --     13.0114                 4.6919                39.0125

                     40                     41                     42
                      A                      A                      A
 Frequencies --   1029.3568              1054.6989              1106.7168
 Red. masses --      3.8477                 4.4146                 2.8598
 Frc consts  --      2.4021                 2.8933                 2.0638
 IR Inten    --      6.5530                24.4093                 8.9150

                     43                     44                     45
                      A                      A                      A
 Frequencies --   1118.5775              1131.8737              1146.5370
 Red. masses --      1.5778                 3.3885                 2.2397
 Frc consts  --      1.1632                 2.5577                 1.7347
 IR Inten    --     56.3902                29.9359                15.4959

                     46                     47                     48
                      A                      A                      A
 Frequencies --   1162.8011              1195.8337              1199.6704
 Red. masses --      1.4193                 2.3265                 1.3264
 Frc consts  --      1.1307                 1.9602                 1.1247
 IR Inten    --     31.5619                27.5335                 0.8929

                     49                     50                     51
                      A                      A                      A
 Frequencies --   1240.2521              1261.3586              1268.9309
 Red. masses --      1.7072                 2.3348                 1.5313
 Frc consts  --      1.5472                 2.1886                 1.4527
 IR Inten    --    100.3109                14.5890               106.8863

                     52                     53                     54
                      A                      A                      A
 Frequencies --   1274.1641              1306.1121              1323.5189
 Red. masses --      1.5648                 1.2709                 1.3407
 Frc consts  --      1.4968                 1.2774                 1.3837
 IR Inten    --     48.7656                 5.2254                35.8922

                     55                     56                     57
                      A                      A                      A
 Frequencies --   1363.8564              1365.8628              1381.8697
 Red. masses --      1.8460                 1.4928                 1.5544
 Frc consts  --      2.0232                 1.6408                 1.7488
 IR Inten    --    252.8560                 2.6976               193.3473

                     58                     59                     60
                      A                      A                      A
 Frequencies --   1393.1231              1396.6231              1407.9794
 Red. masses --      3.2206                 1.3028                 1.4680
 Frc consts  --      3.6827                 1.4972                 1.7146
 IR Inten    --     23.5364                 2.6119                64.8025

                     61                     62                     63
                      A                      A                      A
 Frequencies --   1428.4139              1451.3731              1477.1024
 Red. masses --      2.7192                 1.1199                 1.1447
 Frc consts  --      3.2689                 1.3899                 1.4716
 IR Inten    --     32.3749                 8.3282                17.0678

                     64                     65                     66
                      A                      A                      A
 Frequencies --   1481.4591              1484.3453              1497.8599
 Red. masses --      1.3921                 1.1141                 3.1302
 Frc consts  --      1.8001                 1.4462                 4.1378
 IR Inten    --     17.9703                14.2831                22.1024

                     67                     68                     69
                      A                      A                      A
 Frequencies --   1603.7368              1658.1692              1763.5256
 Red. masses --      4.4498                 1.0953                 7.9822
 Frc consts  --      6.7430                 1.7743                14.6264
 IR Inten    --     13.9833                31.3248               437.9410

                     70                     71                     72
                      A                      A                      A
 Frequencies --   1823.4231              3007.4898              3028.0064
 Red. masses --      9.8963                 1.0609                 1.0665
 Frc consts  --     19.3864                 5.6538                 5.7612
 IR Inten    --    266.9833                22.2754                21.7897

                     73                     74                     75
                      A                      A                      A
 Frequencies --   3040.9179              3049.2958              3083.4106
 Red. masses --      1.0875                 1.0746                 1.0830
 Frc consts  --      5.9249                 5.8872                 6.0667
 IR Inten    --      6.4814                34.8051                 8.9684

                     76                     77                     78
                      A                      A                      A
 Frequencies --   3090.8712              3092.4449              3228.1435
 Red. masses --      1.0953                 1.1023                 1.0966
 Frc consts  --      6.1654                 6.2110                 6.7329
 IR Inten    --      3.1753                16.7980                 6.7648

                     79                     80                     81
                      A                      A                      A
 Frequencies --   3244.3287              3510.8232              3531.4931
 Red. masses --      1.0982                 1.0481                 1.0749
 Frc consts  --      6.8106                 7.6116                 7.8985
 IR Inten    --      1.0691                 2.0657                23.2722

                     82                     83                     84
                      A                      A                      A
 Frequencies --   3581.7770              3597.7940              3644.3747
 Red. masses --      1.0825                 1.0948                 1.0648
 Frc consts  --      8.1822                 8.3491                 8.3322
 IR Inten    --    196.6336                 7.1543               201.1450

 - Thermochemistry -
 -------------------
 Temperature   298.150 Kelvin.  Pressure   1.00000 Atm.
 Atom     1 has atomic number  8 and mass  15.99491

 Molecular mass:   226.10659 amu.
 Principal axes and moments of inertia in atomic units:
                           1         2         3
     Eigenvalues --  2417.731856214.614327681.39663
           X            0.97359  -0.19418  -0.12008
           Y            0.06049  -0.28777   0.95579
           Z            0.22015   0.93781   0.26843
 This molecule is an asymmetric top.
 Rotational symmetry number  1.
 Warning -- assumption of classical behavior for rotation
           may cause significant error
 Rotational temperatures (Kelvin)      0.03582     0.01394     0.01128
 Rotational constants (GHZ):           0.74646     0.29040     0.23495
 Zero-point vibrational energy     642635.1 (Joules/Mol)
                                  153.59348 (Kcal/Mol)
 Warning -- explicit consideration of  21 degrees of freedom as
           vibrations may cause significant error
 Vibrational temperatures:     18.53    49.89    68.94    90.27   113.30
          (Kelvin)            125.87   193.73   206.64   219.03   298.18
                              354.01   410.97   453.09   489.68   496.31
                              525.40   598.01   640.64   752.75   799.14
                              866.72   898.60   932.22   964.25   983.33
                             1038.08  1049.68  1071.25  1141.52  1159.12
                             1175.35  1186.88  1202.89  1214.35  1275.54
                             1333.46  1360.25  1415.40  1472.61  1481.01
                             1517.47  1592.32  1609.38  1628.51  1649.61
                             1673.01  1720.54  1726.06  1784.44  1814.81
                             1825.71  1833.24  1879.20  1904.25  1962.28
                             1965.17  1988.20  2004.39  2009.43  2025.77
                             2055.17  2088.20  2125.22  2131.49  2135.64
                             2155.08  2307.42  2385.73  2537.32  2623.50
                             4327.10  4356.62  4375.20  4387.25  4436.33
                             4447.07  4449.33  4644.57  4667.86  5051.29
                             5081.02  5153.37  5176.42  5243.44

 Zero-point correction=                           0.244767 (Hartree/Particle)
 Thermal correction to Energy=                    0.260469
 Thermal correction to Enthalpy=                  0.261413
 Thermal correction to Gibbs Free Energy=         0.198762
 Sum of electronic and zero-point Energies=           -796.136358
 Sum of electronic and thermal Energies=              -796.120656
 Sum of electronic and thermal Enthalpies=            -796.119712
 Sum of electronic and thermal Free Energies=         -796.182363

                     E (Thermal)             CV                S
                      KCal/Mol        Cal/Mol-Kelvin    Cal/Mol-Kelvin
 Total                  163.447             57.831            131.860
 Electronic               0.000              0.000              0.000
 Translational            0.889              2.981             42.150
 Rotational               0.889              2.981             33.112
 Vibrational            161.669             51.870             56.598
 Vibration     1          0.593              1.987              7.508
 Vibration     2          0.594              1.983              5.542
 Vibration     3          0.595              1.978              4.902
 Vibration     4          0.597              1.972              4.369
 Vibration     5          0.600              1.963              3.922
 Vibration     6          0.601              1.958              3.715
 Vibration     7          0.613              1.919              2.879
 Vibration     8          0.616              1.910              2.755
 Vibration     9          0.619              1.900              2.644
 Vibration    10          0.641              1.830              2.068
 Vibration    11          0.661              1.769              1.759
 Vibration    12          0.683              1.700              1.500
 Vibration    13          0.702              1.645              1.336
 Vibration    14          0.720              1.595              1.211
 Vibration    15          0.723              1.586              1.189
 Vibration    16          0.738              1.544              1.100
 Vibration    17          0.779              1.436              0.907
 Vibration    18          0.805              1.371              0.810
 Vibration    19          0.878              1.199              0.603
 Vibration    20          0.911              1.128              0.533
 Vibration    21          0.961              1.027              0.446

 Optimization completed.
    -- Stationary point found.
 Normal termination of Gaussian 09 at Sat Jul 24 04:03:21 2021.
