 Gaussian 09, Revision D.01,
 Gaussian 09:  ES64L-G09RevD.01 24-Apr-2013

 ----------------------------------------------------------------------
 # B3LYP/6-311++G(d,p) EmpiricalDispersion=GD3BJ opt=calcfc freq=norama
 n nosymm integral(ultrafinegrid)
 ----------------------------------------------------------------------

 ------------------------------------------------------------
 Candidate Structure: Conf:422 OPT and FREQ calc in gas phase
 ------------------------------------------------------------
 Symbolic Z-matrix:
 Charge =  0 Multiplicity = 1

 SCF Done:  E(RB3LYP) =  -796.380814876     A.U. after   15 cycles
 SCF Done:  E(RB3LYP) =  -796.382301816     A.U. after   13 cycles
 SCF Done:  E(RB3LYP) =  -796.382345656     A.U. after   14 cycles
 SCF Done:  E(RB3LYP) =  -796.382471471     A.U. after   12 cycles
 SCF Done:  E(RB3LYP) =  -796.382482448     A.U. after   12 cycles
 SCF Done:  E(RB3LYP) =  -796.382484648     A.U. after   11 cycles
 SCF Done:  E(RB3LYP) =  -796.382485981     A.U. after   11 cycles
 SCF Done:  E(RB3LYP) =  -796.382486333     A.U. after   11 cycles
 SCF Done:  E(RB3LYP) =  -796.382486335     A.U. after    8 cycles
 Optimization completed.
    -- Stationary point found.
 Normal termination of Gaussian 09 at Sat Jul 24 02:32:39 2021.

 ----------------------------------------------------------------------
 #N Geom=AllCheck Guess=TCheck SCRF=Check GenChk RB3LYP/6-311++G(d,p) F
 req
 ----------------------------------------------------------------------

 Structure from the checkpoint file:  "conf-422.chk"
 ------------------------------------------------------------
 Candidate Structure: Conf:422 OPT and FREQ calc in gas phase
 ------------------------------------------------------------
 Charge =  0 Multiplicity = 1

                          Input orientation:
 ---------------------------------------------------------------------
 Center     Atomic      Atomic             Coordinates (Angstroms)
 Number     Number       Type             X           Y           Z
 ---------------------------------------------------------------------
      1          8           0        0.766460    0.655480    1.577891
      2          6           0        1.100608    0.115681    0.534376
      3          7           0        0.291409   -0.773664   -0.122136
      4          6           0       -0.962975   -1.221830    0.433806
      5          6           0       -0.907594   -2.724428    0.673467
      6          8           0       -1.896912   -3.134023    1.494349
      7          8           0       -0.109573   -3.475814    0.172494
      8          6           0       -2.172068   -0.902653   -0.473789
      9          6           0       -2.383494    0.563351   -0.671213
     10          6           0       -1.960392    1.683210    0.002478
     11          7           0       -2.477261    2.824818   -0.579010
     12          6           0       -3.203704    2.414007   -1.589262
     13          7           0       -3.181074    1.048421   -1.694706
     14          6           0        2.413397    0.421575   -0.162265
     15          6           0        3.530258    0.747655    0.826800
     16          7           0        4.736696    1.153996    0.099273
     17          1           0        0.688106   -1.327267   -0.866516
     18          1           0       -1.086535   -0.719665    1.394919
     19          1           0       -1.826153   -4.096864    1.583231
     20          1           0       -3.060600   -1.361974   -0.027609
     21          1           0       -2.015225   -1.392697   -1.443170
     22          1           0       -1.300987    1.733388    0.854126
     23          1           0       -3.759242    3.038241   -2.272209
     24          1           0       -3.662314    0.494978   -2.385841
     25          1           0        2.705942   -0.409999   -0.813148
     26          1           0        2.251038    1.289045   -0.810785
     27          1           0        3.684107   -0.112689    1.495086
     28          1           0        3.204944    1.579144    1.453016
     29          1           0        5.159780    0.364702   -0.378885
     30          1           0        5.433381    1.525789    0.735229
 ---------------------------------------------------------------------

 SCF Done:  E(RB3LYP) =  -796.382486335     A.U. after    2 cycles

 Alpha  occ. eigenvalues --  -19.20017 -19.14500 -19.09809 -14.37390 -14.35179
 Alpha  occ. eigenvalues --  -14.29786 -14.29318 -10.33374 -10.28336 -10.24815
 Alpha  occ. eigenvalues --  -10.22633 -10.21223 -10.21181 -10.19703 -10.18308
 Alpha  occ. eigenvalues --  -10.17912  -1.14300  -1.05628  -1.05140  -1.02021
 Alpha  occ. eigenvalues --   -0.94708  -0.88877  -0.87632  -0.82261  -0.76995
 Alpha  occ. eigenvalues --   -0.74819  -0.69332  -0.65783  -0.62127  -0.61785
 Alpha  occ. eigenvalues --   -0.60253  -0.58996  -0.55565  -0.53217  -0.52216
 Alpha  occ. eigenvalues --   -0.51147  -0.49369  -0.49181  -0.48581  -0.46355
 Alpha  occ. eigenvalues --   -0.45921  -0.45004  -0.44142  -0.43112  -0.42600
 Alpha  occ. eigenvalues --   -0.41762  -0.41128  -0.40647  -0.39647  -0.38997
 Alpha  occ. eigenvalues --   -0.36433  -0.35686  -0.35331  -0.31458  -0.28766
 Alpha  occ. eigenvalues --   -0.27988  -0.27210  -0.26900  -0.24786  -0.23209
 Alpha virt. eigenvalues --   -0.02952  -0.02589  -0.01627  -0.01138  -0.00119
 Alpha virt. eigenvalues --    0.00421   0.00950   0.01271   0.02013   0.02306
 Alpha virt. eigenvalues --    0.02523   0.03356   0.04099   0.04525   0.04981

 Mulliken charges:
               1
     1  O   -0.299488
     2  C   -0.271576
     3  N    0.043992
     4  C    0.115312
     5  C   -0.172225
     6  O   -0.121188
     7  O   -0.250144
     8  C   -1.406650
     9  C    0.992338
    10  C   -0.612043
    11  N   -0.093950
    12  C    0.172865
    13  N   -0.186791
    14  C   -0.132545
    15  C   -0.531011
    16  N   -0.329837
    17  H    0.302275
    18  H    0.309568
    19  H    0.297498
    20  H    0.221031
    21  H    0.172817
    22  H    0.174244
    23  H    0.176182
    24  H    0.299139
    25  H    0.119457
    26  H    0.226289
    27  H    0.140299
    28  H    0.204520
    29  H    0.203428
    30  H    0.236194
 Sum of Mulliken charges =   0.00000

 Dipole moment (field-independent basis, Debye):
    X=             -1.2698    Y=             -5.1572    Z=             -2.8648  Tot=              6.0345
 Quadrupole moment (field-independent basis, Debye-Ang):
   XX=            -77.1664   YY=           -106.1995   ZZ=            -90.7055
   XY=              7.8212   XZ=             11.6606   YZ=             -4.3807

  Exact polarizability: 152.635   1.394 156.488  10.536  -4.994 125.031
 Approx polarizability: 193.501   0.490 223.842   9.523  14.017 204.131

                      1                      2                      3
                      A                      A                      A
 Frequencies --     10.8803                30.0822                46.0895
 Red. masses --      3.7071                 2.9590                10.1365
 Frc consts  --      0.0003                 0.0016                 0.0127
 IR Inten    --      1.2249                 2.3978                 2.5250

                      4                      5                      6
                      A                      A                      A
 Frequencies --     47.4570                60.8268                76.3290
 Red. masses --      3.8676                 3.9122                 5.4331
 Frc consts  --      0.0051                 0.0085                 0.0186
 IR Inten    --      4.3172                 9.9587                 4.1728

                      7                      8                      9
                      A                      A                      A
 Frequencies --     88.1106               100.5811               140.5034
 Red. masses --      4.4987                 4.1483                 3.8835
 Frc consts  --      0.0206                 0.0247                 0.0452
 IR Inten    --      0.2485                 4.0297                 4.6889

                     10                     11                     12
                      A                      A                      A
 Frequencies --    177.9049               216.6234               240.3135
 Red. masses --      6.5101                 2.9435                 1.8121
 Frc consts  --      0.1214                 0.0814                 0.0617
 IR Inten    --      2.0359                 8.2176                23.4149

                     13                     14                     15
                      A                      A                      A
 Frequencies --    253.1196               282.2060               308.2524
 Red. masses --      2.1963                 3.4559                 4.1161
 Frc consts  --      0.0829                 0.1622                 0.2304
 IR Inten    --     28.0565                 1.8298                 7.3872

                     16                     17                     18
                      A                      A                      A
 Frequencies --    349.8425               396.8458               445.3650
 Red. masses --      4.4969                 3.8447                 2.8432
 Frc consts  --      0.3243                 0.3567                 0.3323
 IR Inten    --      3.0246                12.4819                23.8372

                     19                     20                     21
                      A                      A                      A
 Frequencies --    474.7291               486.5885               530.2228
 Red. masses --      1.6014                 1.4257                 3.3076
 Frc consts  --      0.2126                 0.1989                 0.5479
 IR Inten    --     53.5646                81.9187                18.0786

                     22                     23                     24
                      A                      A                      A
 Frequencies --    595.9367               620.7812               642.9574
 Red. masses --      1.3227                 2.5501                 2.6029
 Frc consts  --      0.2768                 0.5790                 0.6340
 IR Inten    --     98.6469                 2.6778                28.7055

                     25                     26                     27
                      A                      A                      A
 Frequencies --    651.9987               676.3884               694.3541
 Red. masses --      4.4240                 3.3588                 3.4683
 Frc consts  --      1.1080                 0.9054                 0.9852
 IR Inten    --     38.4541                 9.8792                22.1953

                     28                     29                     30
                      A                      A                      A
 Frequencies --    735.6918               785.2961               798.2793
 Red. masses --      4.3713                 4.0477                 1.3475
 Frc consts  --      1.3940                 1.4707                 0.5059
 IR Inten    --     10.2954                21.1667                18.0484

                     31                     32                     33
                      A                      A                      A
 Frequencies --    799.8681               833.7437               873.2096
 Red. masses --      1.3955                 1.3326                 1.3750
 Frc consts  --      0.5261                 0.5458                 0.6177
 IR Inten    --     29.8631               101.8880                18.1541

                     34                     35                     36
                      A                      A                      A
 Frequencies --    901.7252               921.6530               943.5806
 Red. masses --      1.8429                 4.3218                 5.8425
 Frc consts  --      0.8829                 2.1630                 3.0648
 IR Inten    --     14.5321                 8.5935                 7.9646

                     37                     38                     39
                      A                      A                      A
 Frequencies --    978.7849               997.6172              1027.8141
 Red. masses --      2.4075                 2.8371                 3.5999
 Frc consts  --      1.3589                 1.6636                 2.2406
 IR Inten    --      5.9856                 8.6803                13.6249

                     40                     41                     42
                      A                      A                      A
 Frequencies --   1059.0212              1062.6405              1093.5893
 Red. masses --      2.9929                 3.0161                 2.2131
 Frc consts  --      1.9777                 2.0066                 1.5594
 IR Inten    --     25.1615                 2.4093                38.9343

                     43                     44                     45
                      A                      A                      A
 Frequencies --   1105.1685              1119.5931              1144.7495
 Red. masses --      1.6233                 2.5410                 2.6739
 Frc consts  --      1.1682                 1.8766                 2.0645
 IR Inten    --     16.2358                86.4897                20.6977

                     46                     47                     48
                      A                      A                      A
 Frequencies --   1156.2423              1176.3986              1203.0482
 Red. masses --      1.6444                 2.1046                 1.9309
 Frc consts  --      1.2953                 1.7160                 1.6466
 IR Inten    --    127.8470                71.0278                33.1827

                     49                     50                     51
                      A                      A                      A
 Frequencies --   1228.7576              1254.3774              1264.8530
 Red. masses --      1.6452                 1.4292                 1.4537
 Frc consts  --      1.4635                 1.3249                 1.3703
 IR Inten    --     36.0895                27.4010                24.6080

                     52                     53                     54
                      A                      A                      A
 Frequencies --   1283.7616              1292.4863              1335.9729
 Red. masses --      1.3116                 1.4399                 1.1098
 Frc consts  --      1.2736                 1.4173                 1.1671
 IR Inten    --      9.0438                 3.7827                 5.2111

                     55                     56                     57
                      A                      A                      A
 Frequencies --   1336.4891              1351.5831              1369.0620
 Red. masses --      1.6609                 1.5649                 1.6512
 Frc consts  --      1.7479                 1.6843                 1.8235
 IR Inten    --      6.6581                 2.6794                16.0499

                     58                     59                     60
                      A                      A                      A
 Frequencies --   1394.2689              1411.9252              1423.9769
 Red. masses --      2.0534                 2.2123                 2.6883
 Frc consts  --      2.3519                 2.5985                 3.2117
 IR Inten    --    101.3321                21.7718                18.7297

                     61                     62                     63
                      A                      A                      A
 Frequencies --   1427.6273              1467.7486              1484.4475
 Red. masses --      1.5191                 1.0900                 1.3926
 Frc consts  --      1.8241                 1.3835                 1.8080
 IR Inten    --     47.0986                10.1112                32.9824

                     64                     65                     66
                      A                      A                      A
 Frequencies --   1499.5909              1516.7402              1540.6554
 Red. masses --      2.4346                 1.0831                 1.8627
 Frc consts  --      3.2256                 1.4680                 2.6050
 IR Inten    --      8.4918                 1.8119               244.3704

                     67                     68                     69
                      A                      A                      A
 Frequencies --   1608.4819              1663.3234              1741.2298
 Red. masses --      4.2942                 1.0909                 8.7463
 Frc consts  --      6.5459                 1.7782                15.6238
 IR Inten    --     13.1214                30.4648               212.8213

                     70                     71                     72
                      A                      A                      A
 Frequencies --   1811.2725              2963.5172              3004.8548
 Red. masses --      9.9349                 1.0740                 1.0634
 Frc consts  --     19.2036                 5.5575                 5.6573
 IR Inten    --    294.7079                62.2285                32.3129

                     73                     74                     75
                      A                      A                      A
 Frequencies --   3022.8354              3043.6425              3062.8821
 Red. masses --      1.0616                 1.0967                 1.0973
 Frc consts  --      5.7153                 5.9858                 6.0651
 IR Inten    --     19.1341                10.2691                 8.2609

                     76                     77                     78
                      A                      A                      A
 Frequencies --   3095.3658              3099.6908              3240.3857
 Red. masses --      1.0838                 1.0909                 1.0962
 Frc consts  --      6.1182                 6.1752                 6.7814
 IR Inten    --     11.4560                13.3444                 0.9201

                     79                     80                     81
                      A                      A                      A
 Frequencies --   3247.7983              3502.1439              3582.0193
 Red. masses --      1.1001                 1.0498                 1.0930
 Frc consts  --      6.8368                 7.5866                 8.2627
 IR Inten    --      4.8142                 0.4555                 1.6275

                     82                     83                     84
                      A                      A                      A
 Frequencies --   3623.3595              3649.0391              3752.5580
 Red. masses --      1.0770                 1.0811                 1.0645
 Frc consts  --      8.3311                 8.4813                 8.8319
 IR Inten    --     35.0352                47.0065                84.0395

 - Thermochemistry -
 -------------------
 Temperature   298.150 Kelvin.  Pressure   1.00000 Atm.
 Atom     1 has atomic number  8 and mass  15.99491

 Molecular mass:   226.10659 amu.
 Principal axes and moments of inertia in atomic units:
                           1         2         3
     Eigenvalues --  3372.562965102.738157690.85100
           X            0.97811   0.10221  -0.18126
           Y           -0.05165   0.96304   0.26437
           Z            0.20158  -0.24922   0.94723
 This molecule is an asymmetric top.
 Rotational symmetry number  1.
 Warning -- assumption of classical behavior for rotation
           may cause significant error
 Rotational temperatures (Kelvin)      0.02568     0.01697     0.01126
 Rotational constants (GHZ):           0.53512     0.35368     0.23466
 Zero-point vibrational energy     639773.2 (Joules/Mol)
                                  152.90947 (Kcal/Mol)
 Warning -- explicit consideration of  23 degrees of freedom as
           vibrations may cause significant error
 Vibrational temperatures:     15.65    43.28    66.31    68.28    87.52
          (Kelvin)            109.82   126.77   144.71   202.15   255.97
                              311.67   345.76   364.18   406.03   443.51
                              503.34   570.97   640.78   683.03   700.09
                              762.87   857.42   893.16   925.07   938.08
                              973.17   999.02  1058.50  1129.86  1148.54
                             1150.83  1199.57  1256.35  1297.38  1326.05
                             1357.60  1408.25  1435.35  1478.79  1523.69
                             1528.90  1573.43  1590.09  1610.84  1647.04
                             1663.57  1692.57  1730.92  1767.91  1804.77
                             1819.84  1847.04  1859.60  1922.16  1922.91
                             1944.62  1969.77  2006.04  2031.44  2048.78
                             2054.03  2111.76  2135.79  2157.57  2182.25
                             2216.66  2314.24  2393.15  2505.24  2606.01
                             4263.83  4323.31  4349.18  4379.12  4406.80
                             4453.54  4459.76  4662.19  4672.85  5038.80
                             5153.72  5213.20  5250.15  5399.09

 Zero-point correction=                           0.243677 (Hartree/Particle)
 Thermal correction to Energy=                    0.260240
 Thermal correction to Enthalpy=                  0.261184
 Thermal correction to Gibbs Free Energy=         0.195569
 Sum of electronic and zero-point Energies=           -796.138810
 Sum of electronic and thermal Energies=              -796.122246
 Sum of electronic and thermal Enthalpies=            -796.121302
 Sum of electronic and thermal Free Energies=         -796.186917

                     E (Thermal)             CV                S
                      KCal/Mol        Cal/Mol-Kelvin    Cal/Mol-Kelvin
 Total                  163.303             59.075            138.098
 Electronic               0.000              0.000              0.000
 Translational            0.889              2.981             42.150
 Rotational               0.889              2.981             33.248
 Vibrational            161.526             53.113             62.700
 Vibration     1          0.593              1.987              7.843
 Vibration     2          0.594              1.984              5.824
 Vibration     3          0.595              1.979              4.979
 Vibration     4          0.595              1.979              4.921
 Vibration     5          0.597              1.973              4.430
 Vibration     6          0.599              1.965              3.983
 Vibration     7          0.601              1.958              3.702
 Vibration     8          0.604              1.949              3.443
 Vibration     9          0.615              1.913              2.797
 Vibration    10          0.628              1.870              2.350
 Vibration    11          0.645              1.816              1.987
 Vibration    12          0.657              1.779              1.801
 Vibration    13          0.664              1.758              1.709
 Vibration    14          0.681              1.707              1.520
 Vibration    15          0.698              1.658              1.372
 Vibration    16          0.727              1.576              1.167
 Vibration    17          0.763              1.477              0.974
 Vibration    18          0.805              1.371              0.810
 Vibration    19          0.831              1.306              0.724
 Vibration    20          0.843              1.280              0.693
 Vibration    21          0.885              1.183              0.587
 Vibration    22          0.954              1.040              0.457
 Vibration    23          0.981              0.988              0.415

 Optimization completed.
    -- Stationary point found.
 Normal termination of Gaussian 09 at Sat Jul 24 03:35:50 2021.
