 Gaussian 09, Revision D.01,
 Gaussian 09:  ES64L-G09RevD.01 24-Apr-2013

 ----------------------------------------------------------------------
 # B3LYP/6-311++G(d,p) EmpiricalDispersion=GD3BJ opt=calcfc freq=norama
 n nosymm integral(ultrafinegrid)
 ----------------------------------------------------------------------

 ------------------------------------------------------------
 Candidate Structure: Conf:150 OPT and FREQ calc in gas phase
 ------------------------------------------------------------
 Symbolic Z-matrix:
 Charge =  0 Multiplicity = 1

 SCF Done:  E(RB3LYP) =  -796.386903320     A.U. after   15 cycles
 SCF Done:  E(RB3LYP) =  -796.387783532     A.U. after   15 cycles
 SCF Done:  E(RB3LYP) =  -796.369898081     A.U. after   15 cycles
 SCF Done:  E(RB3LYP) =  -796.387815431     A.U. after   10 cycles
 SCF Done:  E(RB3LYP) =  -796.388557170     A.U. after   14 cycles
 SCF Done:  E(RB3LYP) =  -796.388660448     A.U. after   12 cycles
 SCF Done:  E(RB3LYP) =  -796.388699290     A.U. after   12 cycles
 SCF Done:  E(RB3LYP) =  -796.388709632     A.U. after   12 cycles
 SCF Done:  E(RB3LYP) =  -796.388710851     A.U. after   10 cycles
 SCF Done:  E(RB3LYP) =  -796.388710912     A.U. after    8 cycles
 SCF Done:  E(RB3LYP) =  -796.388710961     A.U. after    8 cycles
 SCF Done:  E(RB3LYP) =  -796.388711059     A.U. after    9 cycles
 SCF Done:  E(RB3LYP) =  -796.388711244     A.U. after    9 cycles
 SCF Done:  E(RB3LYP) =  -796.388711390     A.U. after   10 cycles
 SCF Done:  E(RB3LYP) =  -796.388711396     A.U. after    7 cycles
 Optimization completed.
    -- Stationary point found.
 Normal termination of Gaussian 09 at Sat Jul 24 03:30:24 2021.

 ----------------------------------------------------------------------
 #N Geom=AllCheck Guess=TCheck SCRF=Check GenChk RB3LYP/6-311++G(d,p) F
 req
 ----------------------------------------------------------------------

 Structure from the checkpoint file:  "conf-150.chk"
 ------------------------------------------------------------
 Candidate Structure: Conf:150 OPT and FREQ calc in gas phase
 ------------------------------------------------------------
 Charge =  0 Multiplicity = 1

                          Input orientation:
 ---------------------------------------------------------------------
 Center     Atomic      Atomic             Coordinates (Angstroms)
 Number     Number       Type             X           Y           Z
 ---------------------------------------------------------------------
      1          8           0       -1.071683   -1.878707   -0.851258
      2          6           0       -1.246372   -0.755375   -0.400116
      3          7           0       -0.379656   -0.194553    0.492807
      4          6           0        0.727098   -0.949679    1.048381
      5          6           0        1.135632   -0.278409    2.346626
      6          8           0        2.131653   -0.943930    2.957968
      7          8           0        0.640060    0.729645    2.785509
      8          6           0        1.928272   -1.064603    0.072425
      9          6           0        2.581209    0.240609   -0.224684
     10          6           0        3.772561    0.788918    0.186225
     11          7           0        3.935553    2.057004   -0.328302
     12          6           0        2.858601    2.287328   -1.042806
     13          7           0        2.004431    1.219290   -1.015299
     14          6           0       -2.405696    0.128565   -0.828725
     15          6           0       -3.699095   -0.668104   -0.997631
     16          7           0       -4.744779    0.192028   -1.557992
     17          1           0       -0.615095    0.665974    0.968389
     18          1           0        0.389386   -1.966152    1.275389
     19          1           0        2.368298   -0.448333    3.756653
     20          1           0        1.549965   -1.544344   -0.833140
     21          1           0        2.666511   -1.735105    0.513547
     22          1           0        4.520796    0.333675    0.816433
     23          1           0        2.642457    3.189027   -1.594726
     24          1           0        1.104393    1.152556   -1.463164
     25          1           0       -2.151095    0.578319   -1.794577
     26          1           0       -2.548847    0.951837   -0.120721
     27          1           0       -3.509836   -1.485696   -1.694304
     28          1           0       -3.969128   -1.125527   -0.033779
     29          1           0       -5.060498    0.877273   -0.878799
     30          1           0       -5.554782   -0.353923   -1.829791
 ---------------------------------------------------------------------

 SCF Done:  E(RB3LYP) =  -796.388711396     A.U. after    1 cycles

 Alpha  occ. eigenvalues --  -19.20178 -19.14760 -19.10615 -14.37493 -14.35908
 Alpha  occ. eigenvalues --  -14.30620 -14.29728 -10.33742 -10.29118 -10.25185
 Alpha  occ. eigenvalues --  -10.22944 -10.21288 -10.20688 -10.20342 -10.19339
 Alpha  occ. eigenvalues --  -10.18673  -1.14608  -1.06228  -1.05643  -1.02322
 Alpha  occ. eigenvalues --   -0.95215  -0.89755  -0.87915  -0.82354  -0.77689
 Alpha  occ. eigenvalues --   -0.75194  -0.69627  -0.66276  -0.62496  -0.62007
 Alpha  occ. eigenvalues --   -0.60936  -0.59837  -0.54739  -0.54544  -0.52365
 Alpha  occ. eigenvalues --   -0.51400  -0.50939  -0.49547  -0.48279  -0.46855
 Alpha  occ. eigenvalues --   -0.46417  -0.45283  -0.44543  -0.43554  -0.43192
 Alpha  occ. eigenvalues --   -0.41670  -0.41483  -0.40957  -0.40315  -0.39643
 Alpha  occ. eigenvalues --   -0.37122  -0.36265  -0.35871  -0.31787  -0.29266
 Alpha  occ. eigenvalues --   -0.28738  -0.27790  -0.27559  -0.25660  -0.23580
 Alpha virt. eigenvalues --   -0.03243  -0.02388  -0.01578  -0.01181  -0.00625
 Alpha virt. eigenvalues --    0.00079   0.00622   0.01404   0.01676   0.02097
 Alpha virt. eigenvalues --    0.02718   0.03294   0.03709   0.04189   0.04366

 Mulliken charges:
               1
     1  O   -0.299224
     2  C   -0.290656
     3  N   -0.100101
     4  C   -0.015878
     5  C   -0.120888
     6  O   -0.121113
     7  O   -0.248359
     8  C   -0.466817
     9  C    0.317912
    10  C   -0.483655
    11  N   -0.118087
    12  C    0.046178
    13  N   -0.160009
    14  C   -0.228273
    15  C   -0.474229
    16  N   -0.330358
    17  H    0.290461
    18  H    0.281694
    19  H    0.307822
    20  H    0.211316
    21  H    0.242932
    22  H    0.137052
    23  H    0.160042
    24  H    0.327675
    25  H    0.206129
    26  H    0.143226
    27  H    0.202990
    28  H    0.138097
    29  H    0.203845
    30  H    0.240273
 Sum of Mulliken charges =   0.00000

 Dipole moment (field-independent basis, Debye):
    X=             -3.1316    Y=             -0.5572    Z=              1.5172  Tot=              3.5241
 Quadrupole moment (field-independent basis, Debye-Ang):
   XX=            -99.5797   YY=           -103.8379   ZZ=            -92.5781
   XY=            -11.6696   XZ=              2.3555   YZ=             -7.2717

  Exact polarizability: 164.345   7.957 139.782  19.362  -6.393 128.877
 Approx polarizability: 210.737   2.416 225.662  24.671   0.017 186.440

                      1                      2                      3
                      A                      A                      A
 Frequencies --     12.5389                21.4406                48.3352
 Red. masses --      4.1972                 3.9424                 5.1797
 Frc consts  --      0.0004                 0.0011                 0.0071
 IR Inten    --      1.0092                 1.5442                 6.4294

                      4                      5                      6
                      A                      A                      A
 Frequencies --     52.6900                63.6421                73.6410
 Red. masses --      3.3657                 7.7822                 8.2625
 Frc consts  --      0.0055                 0.0186                 0.0264
 IR Inten    --      7.2287                 0.0820                 1.8693

                      7                      8                      9
                      A                      A                      A
 Frequencies --     77.6418               121.7674               131.1692
 Red. masses --      2.9366                 4.7510                 4.2357
 Frc consts  --      0.0104                 0.0415                 0.0429
 IR Inten    --      1.8540                 3.9221                 5.3272

                     10                     11                     12
                      A                      A                      A
 Frequencies --    191.1675               216.4555               245.2550
 Red. masses --      5.1208                 3.0240                 1.5178
 Frc consts  --      0.1103                 0.0835                 0.0538
 IR Inten    --      1.7280                12.3627                37.4949

                     13                     14                     15
                      A                      A                      A
 Frequencies --    265.3139               306.1396               326.9927
 Red. masses --      3.6559                 5.4131                 5.9108
 Frc consts  --      0.1516                 0.2989                 0.3724
 IR Inten    --     19.7310                 0.9779                 2.0398

                     16                     17                     18
                      A                      A                      A
 Frequencies --    367.2203               396.9100               471.6071
 Red. masses --      2.2862                 3.5831                 3.0254
 Frc consts  --      0.1816                 0.3326                 0.3965
 IR Inten    --      3.0554                 4.9809                21.6765

                     19                     20                     21
                      A                      A                      A
 Frequencies --    492.2668               543.4018               570.2193
 Red. masses --      1.3474                 3.0228                 1.4877
 Frc consts  --      0.1924                 0.5259                 0.2850
 IR Inten    --    121.4349                26.1461                16.0873

                     22                     23                     24
                      A                      A                      A
 Frequencies --    592.2167               615.1333               643.7070
 Red. masses --      2.6549                 2.1210                 2.3155
 Frc consts  --      0.5486                 0.4729                 0.5653
 IR Inten    --     45.7190                78.8817                 1.9115

                     25                     26                     27
                      A                      A                      A
 Frequencies --    656.5308               678.4636               702.1925
 Red. masses --      2.3766                 2.7654                 3.4459
 Frc consts  --      0.6035                 0.7500                 1.0011
 IR Inten    --     11.0419                 4.5501                50.6518

                     28                     29                     30
                      A                      A                      A
 Frequencies --    741.4388               780.4234               803.9666
 Red. masses --      4.2846                 2.2777                 1.4254
 Frc consts  --      1.3878                 0.8173                 0.5428
 IR Inten    --      7.5732                37.7811                 8.9105

                     31                     32                     33
                      A                      A                      A
 Frequencies --    807.7038               833.8644               846.2720
 Red. masses --      1.5764                 1.3487                 1.4563
 Frc consts  --      0.6059                 0.5525                 0.6145
 IR Inten    --     28.1895               106.2474                13.6706

                     34                     35                     36
                      A                      A                      A
 Frequencies --    873.6013               925.0238               942.9266
 Red. masses --      2.7289                 3.5416                 5.1840
 Frc consts  --      1.2270                 1.7855                 2.7156
 IR Inten    --      5.2696                 9.0051                13.1188

                     37                     38                     39
                      A                      A                      A
 Frequencies --    967.2483               983.5573              1022.9049
 Red. masses --      2.9949                 2.0725                 2.8737
 Frc consts  --      1.6508                 1.1812                 1.7716
 IR Inten    --      6.6078                 4.5900                26.5463

                     40                     41                     42
                      A                      A                      A
 Frequencies --   1030.9271              1060.8692              1090.9275
 Red. masses --      3.0843                 2.7712                 2.2075
 Frc consts  --      1.9313                 1.8375                 1.5479
 IR Inten    --      1.8526                17.1241                30.2304

                     43                     44                     45
                      A                      A                      A
 Frequencies --   1106.3786              1113.7689              1143.1714
 Red. masses --      1.5809                 2.3460                 2.1933
 Frc consts  --      1.1402                 1.7146                 1.6888
 IR Inten    --     13.2611                58.1753                14.5796

                     46                     47                     48
                      A                      A                      A
 Frequencies --   1159.0943              1178.0058              1211.4276
 Red. masses --      1.5624                 2.2441                 1.4453
 Frc consts  --      1.2367                 1.8348                 1.2497
 IR Inten    --     59.8289               172.8254                 1.1540

                     49                     50                     51
                      A                      A                      A
 Frequencies --   1236.0937              1249.7737              1259.6948
 Red. masses --      1.7463                 1.9212                 1.5514
 Frc consts  --      1.5721                 1.7680                 1.4505
 IR Inten    --     32.4736                12.9493                 0.9479

                     52                     53                     54
                      A                      A                      A
 Frequencies --   1264.4972              1286.7333              1312.6251
 Red. masses --      1.5738                 1.3011                 1.4323
 Frc consts  --      1.4826                 1.2693                 1.4540
 IR Inten    --     20.9967                 3.8494                 0.5981

                     55                     56                     57
                      A                      A                      A
 Frequencies --   1336.8777              1360.4636              1373.7858
 Red. masses --      1.1123                 1.4709                 1.7484
 Frc consts  --      1.1712                 1.6040                 1.9442
 IR Inten    --      8.6342                 7.1546                15.2146

                     58                     59                     60
                      A                      A                      A
 Frequencies --   1391.9954              1409.6004              1422.9859
 Red. masses --      2.2696                 2.3382                 2.2908
 Frc consts  --      2.5911                 2.7373                 2.7330
 IR Inten    --     24.2217               119.7812                16.0553

                     61                     62                     63
                      A                      A                      A
 Frequencies --   1425.4350              1471.5763              1485.7782
 Red. masses --      1.7601                 1.0967                 1.2004
 Frc consts  --      2.1071                 1.3992                 1.5613
 IR Inten    --     60.1420                 9.5611                11.1125

                     64                     65                     66
                      A                      A                      A
 Frequencies --   1496.8895              1517.5974              1526.6786
 Red. masses --      3.1042                 1.0830                 2.1600
 Frc consts  --      4.0981                 1.4696                 2.9661
 IR Inten    --     65.1505                 1.8365               293.5274

                     67                     68                     69
                      A                      A                      A
 Frequencies --   1609.5955              1664.2305              1732.1625
 Red. masses --      4.6087                 1.0911                 9.2497
 Frc consts  --      7.0349                 1.7805                16.3514
 IR Inten    --      7.2731                30.6261               262.0570

                     70                     71                     72
                      A                      A                      A
 Frequencies --   1808.5457              2960.1700              3024.5850
 Red. masses --      9.8789                 1.0739                 1.0592
 Frc consts  --     19.0378                 5.5441                 5.7092
 IR Inten    --    234.0224                61.1708                17.5912

                     73                     74                     75
                      A                      A                      A
 Frequencies --   3045.2658              3061.2967              3064.0273
 Red. masses --      1.0816                 1.1001                 1.0640
 Frc consts  --      5.9096                 6.0743                 5.8856
 IR Inten    --     10.6033                11.7318                 7.7643

                     76                     77                     78
                      A                      A                      A
 Frequencies --   3098.6806              3114.2807              3235.5740
 Red. masses --      1.0909                 1.1014                 1.0960
 Frc consts  --      6.1717                 6.2935                 6.7602
 IR Inten    --     14.4313                 5.2016                 5.6539

                     79                     80                     81
                      A                      A                      A
 Frequencies --   3243.2317              3503.2543              3582.7705
 Red. masses --      1.0988                 1.0499                 1.0931
 Frc consts  --      6.8098                 7.5915                 8.2668
 IR Inten    --      0.8685                 0.3192                 1.9262

                     82                     83                     84
                      A                      A                      A
 Frequencies --   3593.5411              3655.9508              3759.3489
 Red. masses --      1.0777                 1.0812                 1.0646
 Frc consts  --      8.1999                 8.5144                 8.8643
 IR Inten    --     70.7076                54.5213                95.0931

 - Thermochemistry -
 -------------------
 Temperature   298.150 Kelvin.  Pressure   1.00000 Atm.
 Atom     1 has atomic number  8 and mass  15.99491

 Molecular mass:   226.10659 amu.
 Principal axes and moments of inertia in atomic units:
                           1         2         3
     Eigenvalues --  2282.500076250.471397319.75333
           X            0.95260  -0.11644  -0.28107
           Y            0.18586  -0.50869   0.84065
           Z            0.24087   0.85304   0.46293
 This molecule is an asymmetric top.
 Rotational symmetry number  1.
 Warning -- assumption of classical behavior for rotation
           may cause significant error
 Rotational temperatures (Kelvin)      0.03795     0.01386     0.01183
 Rotational constants (GHZ):           0.79069     0.28874     0.24656
 Zero-point vibrational energy     640559.3 (Joules/Mol)
                                  153.09735 (Kcal/Mol)
 Warning -- explicit consideration of  23 degrees of freedom as
           vibrations may cause significant error
 Vibrational temperatures:     18.04    30.85    69.54    75.81    91.57
          (Kelvin)            105.95   111.71   175.20   188.72   275.05
                              311.43   352.87   381.73   440.47   470.47
                              528.35   571.06   678.54   708.26   781.83
                              820.42   852.07   885.04   926.15   944.60
                              976.16  1010.30  1066.76  1122.85  1156.73
                             1162.10  1199.74  1217.60  1256.92  1330.90
                             1356.66  1391.65  1415.12  1471.73  1483.27
                             1526.35  1569.60  1591.83  1602.46  1644.77
                             1667.68  1694.89  1742.97  1778.46  1798.14
                             1812.42  1819.33  1851.32  1888.57  1923.47
                             1957.40  1976.57  2002.77  2028.10  2047.36
                             2050.88  2117.27  2137.70  2153.69  2183.48
                             2196.55  2315.85  2394.45  2492.19  2602.09
                             4259.02  4351.70  4381.45  4404.52  4408.45
                             4458.30  4480.75  4655.26  4666.28  5040.40
                             5154.80  5170.30  5260.09  5408.86

 Zero-point correction=                           0.243976 (Hartree/Particle)
 Thermal correction to Energy=                    0.260334
 Thermal correction to Enthalpy=                  0.261278
 Thermal correction to Gibbs Free Energy=         0.196146
 Sum of electronic and zero-point Energies=           -796.144735
 Sum of electronic and thermal Energies=              -796.128377
 Sum of electronic and thermal Enthalpies=            -796.127433
 Sum of electronic and thermal Free Energies=         -796.192566

                     E (Thermal)             CV                S
                      KCal/Mol        Cal/Mol-Kelvin    Cal/Mol-Kelvin
 Total                  163.362             58.727            137.083
 Electronic               0.000              0.000              0.000
 Translational            0.889              2.981             42.150
 Rotational               0.889              2.981             33.012
 Vibrational            161.585             52.765             61.921
 Vibration     1          0.593              1.987              7.562
 Vibration     2          0.593              1.985              6.496
 Vibration     3          0.595              1.978              4.884
 Vibration     4          0.596              1.977              4.714
 Vibration     5          0.597              1.972              4.341
 Vibration     6          0.599              1.966              4.054
 Vibration     7          0.599              1.964              3.950
 Vibration     8          0.609              1.931              3.072
 Vibration     9          0.612              1.922              2.929
 Vibration    10          0.634              1.852              2.216
 Vibration    11          0.645              1.816              1.989
 Vibration    12          0.660              1.771              1.764
 Vibration    13          0.671              1.737              1.627
 Vibration    14          0.697              1.662              1.383
 Vibration    15          0.711              1.622              1.275
 Vibration    16          0.740              1.540              1.091
 Vibration    17          0.763              1.477              0.974
 Vibration    18          0.829              1.313              0.733
 Vibration    19          0.848              1.267              0.678
 Vibration    20          0.899              1.154              0.558
 Vibration    21          0.926              1.096              0.504
 Vibration    22          0.950              1.048              0.463
 Vibration    23          0.975              1.000              0.424

 Optimization completed.
    -- Stationary point found.
 Normal termination of Gaussian 09 at Sat Jul 24 04:41:15 2021.
