 Gaussian 09, Revision D.01,
 Gaussian 09:  ES64L-G09RevD.01 24-Apr-2013

 ----------------------------------------------------------------------
 # B3LYP/6-311++G(d,p) EmpiricalDispersion=GD3BJ opt=calcfc freq=norama
 n nosymm integral(ultrafinegrid)
 ----------------------------------------------------------------------

 ------------------------------------------------------------
 Candidate Structure: Conf:273 OPT and FREQ calc in gas phase
 ------------------------------------------------------------
 Symbolic Z-matrix:
 Charge =  0 Multiplicity = 1

 SCF Done:  E(RB3LYP) =  -796.383029402     A.U. after   15 cycles
 SCF Done:  E(RB3LYP) =  -796.385589056     A.U. after   15 cycles
 SCF Done:  E(RB3LYP) =  -796.384791912     A.U. after   16 cycles
 SCF Done:  E(RB3LYP) =  -796.385679527     A.U. after   11 cycles
 SCF Done:  E(RB3LYP) =  -796.385783765     A.U. after   12 cycles
 SCF Done:  E(RB3LYP) =  -796.385793653     A.U. after   11 cycles
 SCF Done:  E(RB3LYP) =  -796.385796202     A.U. after   11 cycles
 SCF Done:  E(RB3LYP) =  -796.385797473     A.U. after   10 cycles
 SCF Done:  E(RB3LYP) =  -796.385797805     A.U. after   10 cycles
 SCF Done:  E(RB3LYP) =  -796.385797848     A.U. after    8 cycles
 Optimization completed.
    -- Stationary point found.
 Normal termination of Gaussian 09 at Sat Jul 24 02:57:44 2021.

 ----------------------------------------------------------------------
 #N Geom=AllCheck Guess=TCheck SCRF=Check GenChk RB3LYP/6-311++G(d,p) F
 req
 ----------------------------------------------------------------------

 Structure from the checkpoint file:  "conf-273.chk"
 ------------------------------------------------------------
 Candidate Structure: Conf:273 OPT and FREQ calc in gas phase
 ------------------------------------------------------------
 Charge =  0 Multiplicity = 1

                          Input orientation:
 ---------------------------------------------------------------------
 Center     Atomic      Atomic             Coordinates (Angstroms)
 Number     Number       Type             X           Y           Z
 ---------------------------------------------------------------------
      1          8           0        0.627257   -1.676027    1.632056
      2          6           0        0.857070   -0.653100    0.978690
      3          7           0        0.302111   -0.460946   -0.241737
      4          6           0       -0.801828   -1.285489   -0.747526
      5          6           0       -0.293585   -2.652616   -1.268903
      6          8           0        0.313170   -3.413964   -0.359801
      7          8           0       -0.456454   -3.009788   -2.407067
      8          6           0       -1.555595   -0.543525   -1.847043
      9          6           0       -2.141753    0.753511   -1.387728
     10          6           0       -2.307143    1.337702   -0.153999
     11          7           0       -2.941301    2.557906   -0.267542
     12          6           0       -3.163156    2.722290   -1.548913
     13          7           0       -2.694539    1.660041   -2.275446
     14          6           0        1.753355    0.446132    1.500089
     15          6           0        2.973377   -0.104926    2.240057
     16          7           0        3.732464    0.998666    2.831182
     17          1           0        0.455486    0.424486   -0.700878
     18          1           0       -1.473485   -1.491239    0.094213
     19          1           0        0.379137   -2.936020    0.505272
     20          1           0       -2.334817   -1.214041   -2.218849
     21          1           0       -0.877709   -0.388151   -2.693938
     22          1           0       -2.008837    0.952748    0.808228
     23          1           0       -3.645699    3.571034   -2.008427
     24          1           0       -2.759651    1.543503   -3.274846
     25          1           0        2.061914    1.107926    0.684254
     26          1           0        1.164934    1.053365    2.196340
     27          1           0        2.623658   -0.755679    3.042389
     28          1           0        3.559811   -0.732107    1.551881
     29          1           0        4.435144    0.651415    3.474083
     30          1           0        4.216628    1.537194    2.119946
 ---------------------------------------------------------------------

 SCF Done:  E(RB3LYP) =  -796.385797848     A.U. after    1 cycles

 Alpha  occ. eigenvalues --  -19.16113 -19.12906 -19.11706 -14.38825 -14.37879
 Alpha  occ. eigenvalues --  -14.31002 -14.30959 -10.31229 -10.30963 -10.25721
 Alpha  occ. eigenvalues --  -10.24172 -10.22860 -10.21541 -10.21280 -10.20236
 Alpha  occ. eigenvalues --  -10.20018  -1.11153  -1.07945  -1.03620  -1.02920
 Alpha  occ. eigenvalues --   -0.96801  -0.90240  -0.89229  -0.83216  -0.78623
 Alpha  occ. eigenvalues --   -0.75584  -0.69423  -0.65684  -0.63564  -0.62412
 Alpha  occ. eigenvalues --   -0.61654  -0.60691  -0.57357  -0.54567  -0.53994
 Alpha  occ. eigenvalues --   -0.52795  -0.51050  -0.48374  -0.47483  -0.46986
 Alpha  occ. eigenvalues --   -0.46021  -0.45344  -0.44675  -0.44067  -0.43901
 Alpha  occ. eigenvalues --   -0.42982  -0.42728  -0.41172  -0.40400  -0.38520
 Alpha  occ. eigenvalues --   -0.38243  -0.37056  -0.32645  -0.31916  -0.30442
 Alpha  occ. eigenvalues --   -0.29982  -0.28889  -0.27829  -0.26042  -0.24852
 Alpha virt. eigenvalues --   -0.03018  -0.02503  -0.02002  -0.01160  -0.00736
 Alpha virt. eigenvalues --   -0.00651   0.00148   0.00641   0.01417   0.01673
 Alpha virt. eigenvalues --    0.02311   0.03151   0.03889   0.03982   0.04133

 Mulliken charges:
               1
     1  O   -0.318870
     2  C    0.004457
     3  N    0.059189
     4  C    0.135987
     5  C   -0.101776
     6  O   -0.172315
     7  O   -0.256315
     8  C   -0.600273
     9  C   -0.026625
    10  C   -0.650454
    11  N   -0.113101
    12  C    0.183174
    13  N   -0.143343
    14  C   -0.352964
    15  C   -0.503821
    16  N   -0.327680
    17  H    0.290293
    18  H    0.253852
    19  H    0.314842
    20  H    0.250063
    21  H    0.229297
    22  H    0.178810
    23  H    0.189646
    24  H    0.307712
    25  H    0.138131
    26  H    0.233212
    27  H    0.201560
    28  H    0.150466
    29  H    0.244290
    30  H    0.202553
 Sum of Mulliken charges =   0.00000

 Dipole moment (field-independent basis, Debye):
    X=              1.3921    Y=              3.8746    Z=             -2.3534  Tot=              4.7423
 Quadrupole moment (field-independent basis, Debye-Ang):
   XX=            -84.2625   YY=           -120.0643   ZZ=            -93.7114
   XY=              4.8284   XZ=             13.8010   YZ=            -18.9980

  Exact polarizability: 132.035 -14.691 151.223  25.479   4.845 149.879
 Approx polarizability: 170.335 -14.817 211.617  16.569   0.693 239.731

                      1                      2                      3
                      A                      A                      A
 Frequencies --     16.0876                27.0753                45.7678
 Red. masses --      3.5891                 3.5425                 3.2977
 Frc consts  --      0.0005                 0.0015                 0.0041
 IR Inten    --      0.6711                 2.0628                 5.0595

                      4                      5                      6
                      A                      A                      A
 Frequencies --     62.2071                69.0980                83.0926
 Red. masses --      6.6344                 3.8142                 4.8420
 Frc consts  --      0.0151                 0.0107                 0.0197
 IR Inten    --      5.3222                11.0756                 0.5956

                      7                      8                      9
                      A                      A                      A
 Frequencies --     86.8403               158.8742               172.4776
 Red. masses --      4.4126                 4.7013                 4.0949
 Frc consts  --      0.0196                 0.0699                 0.0718
 IR Inten    --      1.5090                14.0335                 3.8077

                     10                     11                     12
                      A                      A                      A
 Frequencies --    212.5976               223.9607               237.9967
 Red. masses --      6.7059                 2.5774                 1.7013
 Frc consts  --      0.1786                 0.0762                 0.0568
 IR Inten    --      5.5210                16.2122                19.9620

                     13                     14                     15
                      A                      A                      A
 Frequencies --    259.0880               283.5890               315.7620
 Red. masses --      2.5636                 3.9580                 6.2074
 Frc consts  --      0.1014                 0.1875                 0.3647
 IR Inten    --     18.1758                15.8493                 4.8326

                     16                     17                     18
                      A                      A                      A
 Frequencies --    357.8195               385.4429               438.3738
 Red. masses --      5.7968                 4.4827                 3.0130
 Frc consts  --      0.4373                 0.3924                 0.3411
 IR Inten    --      1.8919                 1.9369                 5.8173

                     19                     20                     21
                      A                      A                      A
 Frequencies --    483.9467               516.2364               545.3191
 Red. masses --      1.2626                 1.4471                 4.3404
 Frc consts  --      0.1742                 0.2272                 0.7605
 IR Inten    --     85.6159                78.6481                17.9514

                     22                     23                     24
                      A                      A                      A
 Frequencies --    624.1282               628.7598               645.1219
 Red. masses --      5.4946                 2.7602                 2.3943
 Frc consts  --      1.2611                 0.6429                 0.5871
 IR Inten    --     11.7876                14.5358                17.1982

                     25                     26                     27
                      A                      A                      A
 Frequencies --    675.8620               732.6991               754.7415
 Red. masses --      3.0705                 4.5707                 3.8500
 Frc consts  --      0.8264                 1.4457                 1.2921
 IR Inten    --      5.6710                 2.0273                 9.7572

                     28                     29                     30
                      A                      A                      A
 Frequencies --    773.3857               800.1766               807.0589
 Red. masses --      4.2963                 1.4841                 1.4018
 Frc consts  --      1.5140                 0.5599                 0.5380
 IR Inten    --     34.4389                19.7389                19.7588

                     31                     32                     33
                      A                      A                      A
 Frequencies --    829.6007               841.2312               876.1231
 Red. masses --      1.3290                 1.3336                 2.2843
 Frc consts  --      0.5389                 0.5560                 1.0331
 IR Inten    --     90.7569                14.2382                19.5182

                     34                     35                     36
                      A                      A                      A
 Frequencies --    895.3137               939.4462               948.2794
 Red. masses --      1.1421                 5.0278                 3.9149
 Frc consts  --      0.5394                 2.6144                 2.0742
 IR Inten    --     86.8709                11.7592                 4.3629

                     37                     38                     39
                      A                      A                      A
 Frequencies --    966.2279              1000.5101              1027.2658
 Red. masses --      2.6020                 2.6950                 3.7191
 Frc consts  --      1.4312                 1.5895                 2.3124
 IR Inten    --      3.6749                 1.7701                10.1277

                     40                     41                     42
                      A                      A                      A
 Frequencies --   1062.3216              1084.9848              1095.3831
 Red. masses --      2.8502                 2.4473                 2.4086
 Frc consts  --      1.8951                 1.6974                 1.7027
 IR Inten    --     19.9553                13.4901                27.8951

                     43                     44                     45
                      A                      A                      A
 Frequencies --   1107.1916              1120.0832              1149.0387
 Red. masses --      1.6307                 2.8689                 2.5398
 Frc consts  --      1.1778                 2.1207                 1.9757
 IR Inten    --     16.1238                 7.2461                16.3696

                     46                     47                     48
                      A                      A                      A
 Frequencies --   1160.0614              1198.6278              1218.0682
 Red. masses --      1.3704                 1.7423                 2.5134
 Frc consts  --      1.0866                 1.4749                 2.1972
 IR Inten    --      3.3303                26.6076                24.1700

                     49                     50                     51
                      A                      A                      A
 Frequencies --   1238.1377              1261.7618              1277.5855
 Red. masses --      1.5669                 1.4811                 1.4820
 Frc consts  --      1.4153                 1.3892                 1.4252
 IR Inten    --     18.7874                 6.0662                 3.2956

                     52                     53                     54
                      A                      A                      A
 Frequencies --   1282.1999              1315.6264              1338.3298
 Red. masses --      1.5272                 1.6549                 1.1137
 Frc consts  --      1.4793                 1.6877                 1.1753
 IR Inten    --     51.3975                10.5221                 6.5775

                     55                     56                     57
                      A                      A                      A
 Frequencies --   1353.9966              1371.0437              1383.5393
 Red. masses --      1.7273                 1.5043                 1.5000
 Frc consts  --      1.8658                 1.6660                 1.6917
 IR Inten    --      1.6419                 6.6186                 9.7420

                     58                     59                     60
                      A                      A                      A
 Frequencies --   1421.6084              1422.4158              1427.0388
 Red. masses --      2.2087                 2.6405                 1.5233
 Frc consts  --      2.6299                 3.1477                 1.8277
 IR Inten    --      6.1700                19.2225                31.0078

                     61                     62                     63
                      A                      A                      A
 Frequencies --   1451.6002              1467.0372              1482.8435
 Red. masses --      1.3852                 1.1038                 1.1865
 Frc consts  --      1.7197                 1.3997                 1.5371
 IR Inten    --    262.6780                 9.1388                29.7956

                     64                     65                     66
                      A                      A                      A
 Frequencies --   1498.9597              1517.6472              1538.5318
 Red. masses --      3.2675                 1.0830                 2.2154
 Frc consts  --      4.3256                 1.4696                 3.0897
 IR Inten    --     18.1060                 2.1672               339.5824

                     67                     68                     69
                      A                      A                      A
 Frequencies --   1607.1025              1665.2027              1689.0548
 Red. masses --      4.3238                 1.0977                 7.0184
 Frc consts  --      6.5797                 1.7934                11.7971
 IR Inten    --      9.6821                27.5359               243.2991

                     70                     71                     72
                      A                      A                      A
 Frequencies --   1823.7905              2962.7377              3022.2421
 Red. masses --      9.0779                 1.0739                 1.0787
 Frc consts  --     17.7903                 5.5537                 5.8053
 IR Inten    --    393.4208                58.5322                 3.4007

                     73                     74                     75
                      A                      A                      A
 Frequencies --   3029.8572              3034.3666              3066.5516
 Red. masses --      1.0596                 1.0699                 1.0994
 Frc consts  --      5.7313                 5.8042                 6.0914
 IR Inten    --     14.0588                13.9754                 6.2548

                     76                     77                     78
                      A                      A                      A
 Frequencies --   3069.9212              3099.8907              3239.5855
 Red. masses --      1.0958                 1.0914                 1.0954
 Frc consts  --      6.0844                 6.1793                 6.7732
 IR Inten    --      5.8916                13.3531                 7.2396

                     79                     80                     81
                      A                      A                      A
 Frequencies --   3245.0252              3298.0615              3505.6435
 Red. masses --      1.0995                 1.0732                 1.0500
 Frc consts  --      6.8215                 6.8776                 7.6025
 IR Inten    --      1.2666               704.5653                 0.3984

                     82                     83                     84
                      A                      A                      A
 Frequencies --   3585.6784              3617.6142              3644.7916
 Red. masses --      1.0931                 1.0781                 1.0813
 Frc consts  --      8.2805                 8.3128                 8.4634
 IR Inten    --      2.7064                41.0593                57.5628

 - Thermochemistry -
 -------------------
 Temperature   298.150 Kelvin.  Pressure   1.00000 Atm.
 Atom     1 has atomic number  8 and mass  15.99491

 Molecular mass:   226.10659 amu.
 Principal axes and moments of inertia in atomic units:
                           1         2         3
     Eigenvalues --  3086.396655452.682327957.68958
           X            0.79123   0.05236  -0.60927
           Y           -0.29234   0.90749  -0.30166
           Z            0.53712   0.41679   0.73334
 This molecule is an asymmetric top.
 Rotational symmetry number  1.
 Warning -- assumption of classical behavior for rotation
           may cause significant error
 Rotational temperatures (Kelvin)      0.02806     0.01588     0.01088
 Rotational constants (GHZ):           0.58474     0.33098     0.22679
 Zero-point vibrational energy     641200.6 (Joules/Mol)
                                  153.25062 (Kcal/Mol)
 Warning -- explicit consideration of  21 degrees of freedom as
           vibrations may cause significant error
 Vibrational temperatures:     23.15    38.96    65.85    89.50    99.42
          (Kelvin)            119.55   124.94   228.58   248.16   305.88
                              322.23   342.42   372.77   408.02   454.31
                              514.82   554.57   630.72   696.29   742.75
                              784.59   897.98   904.64   928.19   972.41
                             1054.19  1085.90  1112.73  1151.27  1161.18
                             1193.61  1210.34  1260.54  1288.16  1351.65
                             1364.36  1390.18  1439.51  1478.00  1528.44
                             1561.05  1576.01  1593.00  1611.55  1653.21
                             1669.07  1724.56  1752.53  1781.40  1815.39
                             1838.16  1844.80  1892.89  1925.56  1948.10
                             1972.62  1990.60  2045.37  2046.54  2053.19
                             2088.53  2110.74  2133.48  2156.67  2183.55
                             2213.60  2312.26  2395.85  2430.17  2624.02
                             4262.71  4348.33  4359.28  4365.77  4412.08
                             4416.93  4460.05  4661.04  4668.86  4745.17
                             5043.83  5158.99  5204.93  5244.04

 Zero-point correction=                           0.244220 (Hartree/Particle)
 Thermal correction to Energy=                    0.260329
 Thermal correction to Enthalpy=                  0.261273
 Thermal correction to Gibbs Free Energy=         0.197390
 Sum of electronic and zero-point Energies=           -796.141577
 Sum of electronic and thermal Energies=              -796.125469
 Sum of electronic and thermal Enthalpies=            -796.124525
 Sum of electronic and thermal Free Energies=         -796.188408

                     E (Thermal)             CV                S
                      KCal/Mol        Cal/Mol-Kelvin    Cal/Mol-Kelvin
 Total                  163.359             58.144            134.454
 Electronic               0.000              0.000              0.000
 Translational            0.889              2.981             42.150
 Rotational               0.889              2.981             33.260
 Vibrational            161.581             52.183             59.045
 Vibration     1          0.593              1.986              7.067
 Vibration     2          0.593              1.984              6.033
 Vibration     3          0.595              1.979              4.992
 Vibration     4          0.597              1.972              4.386
 Vibration     5          0.598              1.969              4.179
 Vibration     6          0.600              1.961              3.816
 Vibration     7          0.601              1.958              3.730
 Vibration     8          0.621              1.893              2.563
 Vibration     9          0.626              1.876              2.408
 Vibration    10          0.644              1.822              2.021
 Vibration    11          0.649              1.805              1.927
 Vibration    12          0.656              1.782              1.818
 Vibration    13          0.668              1.747              1.668
 Vibration    14          0.682              1.704              1.512
 Vibration    15          0.703              1.644              1.332
 Vibration    16          0.733              1.559              1.132
 Vibration    17          0.754              1.501              1.018
 Vibration    18          0.799              1.387              0.832
 Vibration    19          0.840              1.286              0.700
 Vibration    20          0.871              1.214              0.619
 Vibration    21          0.900              1.150              0.554

 Optimization completed.
    -- Stationary point found.
 Normal termination of Gaussian 09 at Sat Jul 24 04:10:44 2021.
