 Gaussian 09, Revision D.01,
 Gaussian 09:  ES64L-G09RevD.01 24-Apr-2013

 ----------------------------------------------------------------------
 # B3LYP/6-311++G(d,p) EmpiricalDispersion=GD3BJ opt=calcfc freq=norama
 n nosymm integral(ultrafinegrid)
 ----------------------------------------------------------------------

 ------------------------------------------------------------
 Candidate Structure: Conf:118 OPT and FREQ calc in gas phase
 ------------------------------------------------------------
 Symbolic Z-matrix:
 Charge =  0 Multiplicity = 1

 SCF Done:  E(RB3LYP) =  -796.393290431     A.U. after   15 cycles
 SCF Done:  E(RB3LYP) =  -796.395565567     A.U. after   15 cycles
 SCF Done:  E(RB3LYP) =  -796.396055886     A.U. after   15 cycles
 SCF Done:  E(RB3LYP) =  -796.396582067     A.U. after   12 cycles
 SCF Done:  E(RB3LYP) =  -796.396805798     A.U. after   13 cycles
 SCF Done:  E(RB3LYP) =  -796.396850377     A.U. after   12 cycles
 SCF Done:  E(RB3LYP) =  -796.396871380     A.U. after   12 cycles
 SCF Done:  E(RB3LYP) =  -796.396872973     A.U. after   11 cycles
 SCF Done:  E(RB3LYP) =  -796.396873105     A.U. after    8 cycles
 Optimization completed.
    -- Stationary point found.
 Normal termination of Gaussian 09 at Sat Jul 24 02:55:44 2021.

 ----------------------------------------------------------------------
 #N Geom=AllCheck Guess=TCheck SCRF=Check GenChk RB3LYP/6-311++G(d,p) F
 req
 ----------------------------------------------------------------------

 Structure from the checkpoint file:  "conf-118.chk"
 ------------------------------------------------------------
 Candidate Structure: Conf:118 OPT and FREQ calc in gas phase
 ------------------------------------------------------------
 Charge =  0 Multiplicity = 1

                          Input orientation:
 ---------------------------------------------------------------------
 Center     Atomic      Atomic             Coordinates (Angstroms)
 Number     Number       Type             X           Y           Z
 ---------------------------------------------------------------------
      1          8           0       -0.974236   -1.979025    1.747005
      2          6           0       -1.001514   -1.337812    0.688322
      3          7           0        0.106808   -0.736059    0.202402
      4          6           0        1.432585   -0.893221    0.797956
      5          6           0        1.566046   -0.085447    2.110865
      6          8           0        0.736157   -0.446955    3.081134
      7          8           0        2.381166    0.795718    2.262369
      8          6           0        2.509012   -0.522446   -0.238655
      9          6           0        2.262224    0.777983   -0.929019
     10          6           0        1.845871    1.069940   -2.209255
     11          7           0        1.705848    2.430213   -2.378647
     12          6           0        2.028678    2.959870   -1.218331
     13          7           0        2.374292    2.004961   -0.307730
     14          6           0       -2.280346   -1.154504   -0.090845
     15          6           0       -3.322631   -0.358355    0.732650
     16          7           0       -4.616738   -0.177217    0.092326
     17          1           0        0.049002   -0.143840   -0.617220
     18          1           0        1.546331   -1.947568    1.071627
     19          1           0        0.111159   -1.150035    2.762098
     20          1           0        2.532887   -1.308594   -0.996421
     21          1           0        3.477976   -0.522670    0.264653
     22          1           0        1.667354    0.377964   -3.018971
     23          1           0        2.030836    4.012949   -0.983115
     24          1           0        2.607622    2.113461    0.672333
     25          1           0       -2.677319   -2.151264   -0.303732
     26          1           0       -2.094259   -0.655042   -1.046212
     27          1           0       -3.471854   -0.868293    1.686105
     28          1           0       -2.915687    0.630555    0.964214
     29          1           0       -4.542532    0.327782   -0.784001
     30          1           0       -5.074643   -1.063045   -0.092416
 ---------------------------------------------------------------------

 SCF Done:  E(RB3LYP) =  -796.396873105     A.U. after    1 cycles

 Alpha  occ. eigenvalues --  -19.17329 -19.13194 -19.13131 -14.38198 -14.37479
 Alpha  occ. eigenvalues --  -14.31279 -14.30469 -10.32624 -10.31272 -10.26187
 Alpha  occ. eigenvalues --  -10.23560 -10.22225 -10.21856 -10.21691 -10.20564
 Alpha  occ. eigenvalues --  -10.19800  -1.12463  -1.08218  -1.04234  -1.02885
 Alpha  occ. eigenvalues --   -0.97115  -0.90642  -0.88459  -0.83127  -0.78682
 Alpha  occ. eigenvalues --   -0.75546  -0.69380  -0.66277  -0.63365  -0.63060
 Alpha  occ. eigenvalues --   -0.61899  -0.60677  -0.57356  -0.56198  -0.53453
 Alpha  occ. eigenvalues --   -0.52262  -0.51754  -0.48787  -0.47595  -0.47213
 Alpha  occ. eigenvalues --   -0.46419  -0.45770  -0.45029  -0.44328  -0.43516
 Alpha  occ. eigenvalues --   -0.42526  -0.42495  -0.41893  -0.40800  -0.39911
 Alpha  occ. eigenvalues --   -0.38896  -0.37142  -0.34018  -0.32778  -0.30587
 Alpha  occ. eigenvalues --   -0.29799  -0.28887  -0.28332  -0.26004  -0.24756
 Alpha virt. eigenvalues --   -0.03517  -0.02974  -0.01660  -0.01401  -0.00465
 Alpha virt. eigenvalues --   -0.00184   0.00305   0.00906   0.01250   0.02010
 Alpha virt. eigenvalues --    0.02444   0.03108   0.03557   0.03791   0.04921

 Mulliken charges:
               1
     1  O   -0.313866
     2  C   -0.111590
     3  N   -0.011390
     4  C    0.157730
     5  C   -0.125414
     6  O   -0.137857
     7  O   -0.304415
     8  C   -1.051576
     9  C    0.406911
    10  C   -0.495325
    11  N   -0.106434
    12  C    0.066210
    13  N   -0.164592
    14  C   -0.100923
    15  C   -0.499040
    16  N   -0.330359
    17  H    0.268658
    18  H    0.304355
    19  H    0.304505
    20  H    0.198499
    21  H    0.219625
    22  H    0.134939
    23  H    0.164074
    24  H    0.355546
    25  H    0.191768
    26  H    0.143300
    27  H    0.201775
    28  H    0.174262
    29  H    0.230398
    30  H    0.230225
 Sum of Mulliken charges =   0.00000

 Dipole moment (field-independent basis, Debye):
    X=             -0.5480    Y=             -2.5787    Z=             -2.4072  Tot=              3.5699
 Quadrupole moment (field-independent basis, Debye-Ang):
   XX=            -97.1964   YY=            -95.7719   ZZ=           -116.9849
   XY=             -0.8907   XZ=              6.2538   YZ=              9.4551

  Exact polarizability: 150.881  13.474 141.803   2.287 -12.606 142.008
 Approx polarizability: 195.645  16.589 216.278   8.779 -13.649 216.969

                      1                      2                      3
                      A                      A                      A
 Frequencies --     14.1577                42.7287                55.1732
 Red. masses --      4.2691                 6.7057                 3.0109
 Frc consts  --      0.0005                 0.0072                 0.0054
 IR Inten    --      0.1854                 1.2746                 4.3307

                      4                      5                      6
                      A                      A                      A
 Frequencies --     73.5836                83.1323                93.0614
 Red. masses --      4.1915                 2.8451                 5.1412
 Frc consts  --      0.0134                 0.0116                 0.0262
 IR Inten    --      6.0202                 0.1505                 5.0591

                      7                      8                      9
                      A                      A                      A
 Frequencies --    132.1687               154.2532               196.5581
 Red. masses --      8.9040                 5.5413                 4.2814
 Frc consts  --      0.0916                 0.0777                 0.0975
 IR Inten    --      9.7283                 7.8729                11.8870

                     10                     11                     12
                      A                      A                      A
 Frequencies --    211.4337               230.5310               274.6325
 Red. masses --      4.6851                 7.1905                 6.5944
 Frc consts  --      0.1234                 0.2251                 0.2930
 IR Inten    --      3.9873                15.5149                 0.5065

                     13                     14                     15
                      A                      A                      A
 Frequencies --    290.3939               302.5771               345.6826
 Red. masses --      1.1191                 5.4883                 4.5899
 Frc consts  --      0.0556                 0.2960                 0.3232
 IR Inten    --     41.1033                 1.9789                 4.4924

                     16                     17                     18
                      A                      A                      A
 Frequencies --    362.1313               381.4469               442.0520
 Red. masses --      2.4652                 3.9500                 3.3778
 Frc consts  --      0.1905                 0.3386                 0.3889
 IR Inten    --      6.4909                 4.9356                23.4768

                     19                     20                     21
                      A                      A                      A
 Frequencies --    564.5284               575.1442               606.8920
 Red. masses --      1.5471                 3.2327                 3.5780
 Frc consts  --      0.2905                 0.6300                 0.7765
 IR Inten    --     32.7618                23.6389                10.8217

                     22                     23                     24
                      A                      A                      A
 Frequencies --    633.6222               663.1545               670.7291
 Red. masses --      3.4398                 2.8241                 3.5278
 Frc consts  --      0.8137                 0.7317                 0.9351
 IR Inten    --     11.1283                 8.8167                35.3115

                     25                     26                     27
                      A                      A                      A
 Frequencies --    729.7959               738.7342               763.4374
 Red. masses --      1.6329                 2.0846                 5.8075
 Frc consts  --      0.5124                 0.6703                 1.9943
 IR Inten    --     21.2301                53.9725                 8.0980

                     28                     29                     30
                      A                      A                      A
 Frequencies --    771.0624               784.9723               797.5321
 Red. masses --      1.3248                 3.0858                 1.6374
 Frc consts  --      0.4641                 1.1203                 0.6136
 IR Inten    --      3.6197                19.5166               238.3297

                     31                     32                     33
                      A                      A                      A
 Frequencies --    826.1479               839.2884               856.3680
 Red. masses --      1.4044                 1.4706                 2.6032
 Frc consts  --      0.5648                 0.6103                 1.1248
 IR Inten    --     25.7610                22.1743                17.3346

                     34                     35                     36
                      A                      A                      A
 Frequencies --    919.3488               945.6510               947.6729
 Red. masses --      1.1657                 4.9303                 2.5417
 Frc consts  --      0.5805                 2.5977                 1.3449
 IR Inten    --     85.1307                 8.5564                 8.9169

                     37                     38                     39
                      A                      A                      A
 Frequencies --    977.1546               989.2148              1008.6356
 Red. masses --      1.3831                 4.4972                 4.6487
 Frc consts  --      0.7781                 2.5928                 2.7865
 IR Inten    --      1.1013                 7.1844                54.5976

                     40                     41                     42
                      A                      A                      A
 Frequencies --   1015.0156              1058.6551              1092.6620
 Red. masses --      4.0413                 2.3860                 2.2396
 Frc consts  --      2.4531                 1.5755                 1.5754
 IR Inten    --      9.7215                12.4326                 6.9299

                     43                     44                     45
                      A                      A                      A
 Frequencies --   1103.6942              1117.0202              1140.0835
 Red. masses --      3.7506                 1.5721                 1.4541
 Frc consts  --      2.6918                 1.1557                 1.1136
 IR Inten    --     22.2676                43.4597                 4.9239

                     46                     47                     48
                      A                      A                      A
 Frequencies --   1145.1009              1221.2828              1233.8655
 Red. masses --      2.1858                 1.5936                 2.5398
 Frc consts  --      1.6887                 1.4005                 2.2782
 IR Inten    --      8.5295                11.4185                48.5105

                     49                     50                     51
                      A                      A                      A
 Frequencies --   1255.5589              1261.8070              1284.5828
 Red. masses --      1.5565                 2.2218                 1.3064
 Frc consts  --      1.4457                 2.0842                 1.2701
 IR Inten    --     22.5445                 3.9306                 5.7682

                     52                     53                     54
                      A                      A                      A
 Frequencies --   1291.3733              1305.6950              1350.7921
 Red. masses --      1.3309                 1.4709                 1.6827
 Frc consts  --      1.3077                 1.4774                 1.8090
 IR Inten    --      1.7103                23.0797                11.7072

                     55                     56                     57
                      A                      A                      A
 Frequencies --   1368.1997              1380.9423              1385.2397
 Red. masses --      1.6002                 1.4444                 1.2146
 Frc consts  --      1.7649                 1.6229                 1.3732
 IR Inten    --     14.5250                 2.3018                18.1109

                     58                     59                     60
                      A                      A                      A
 Frequencies --   1391.9287              1397.3830              1424.1533
 Red. masses --      1.2003                 3.0689                 2.6714
 Frc consts  --      1.3701                 3.5307                 3.1923
 IR Inten    --     13.4943                25.1832                65.6681

                     61                     62                     63
                      A                      A                      A
 Frequencies --   1455.8925              1472.3494              1479.9486
 Red. masses --      1.4115                 1.1442                 1.1264
 Frc consts  --      1.7628                 1.4614                 1.4535
 IR Inten    --    219.7458                18.9929                 3.0165

                     64                     65                     66
                      A                      A                      A
 Frequencies --   1498.6549              1501.0967              1537.5725
 Red. masses --      3.3158                 1.0904                 2.3865
 Frc consts  --      4.3877                 1.4476                 3.3242
 IR Inten    --     20.8009                 7.2561               470.6126

                     67                     68                     69
                      A                      A                      A
 Frequencies --   1601.3838              1664.5274              1675.1732
 Red. masses --      4.4190                 1.1595                 5.2774
 Frc consts  --      6.6767                 1.8927                 8.7255
 IR Inten    --     14.0565                74.8493               193.8581

                     70                     71                     72
                      A                      A                      A
 Frequencies --   1800.1733              3034.2305              3037.7045
 Red. masses --      8.3163                 1.0593                 1.0824
 Frc consts  --     15.8784                 5.7459                 5.8846
 IR Inten    --    381.7989                 2.7332                 4.2764

                     73                     74                     75
                      A                      A                      A
 Frequencies --   3042.5931              3060.8519              3077.2048
 Red. masses --      1.0654                 1.0612                 1.0998
 Frc consts  --      5.8108                 5.8575                 6.1359
 IR Inten    --     28.7977                18.6283                 2.4550

                     76                     77                     78
                      A                      A                      A
 Frequencies --   3101.2941              3101.5028              3224.7911
 Red. masses --      1.1047                 1.1042                 1.0965
 Frc consts  --      6.2599                 6.2584                 6.7186
 IR Inten    --     18.7665                 6.4941                 5.0740

                     79                     80                     81
                      A                      A                      A
 Frequencies --   3245.0682              3247.5303              3507.7394
 Red. masses --      1.0982                 1.0745                 1.0481
 Frc consts  --      6.8134                 6.6764                 7.5983
 IR Inten    --      7.0026               700.2562                 1.3836

                     82                     83                     84
                      A                      A                      A
 Frequencies --   3554.1613              3574.4952              3589.7641
 Red. masses --      1.0789                 1.0829                 1.0949
 Frc consts  --      8.0299                 8.1518                 8.3131
 IR Inten    --    134.3471               202.7352                 2.5934

 - Thermochemistry -
 -------------------
 Temperature   298.150 Kelvin.  Pressure   1.00000 Atm.
 Atom     1 has atomic number  8 and mass  15.99491

 Molecular mass:   226.10659 amu.
 Principal axes and moments of inertia in atomic units:
                           1         2         3
     Eigenvalues --  2717.639345250.047426780.59546
           X            0.86948   0.42938  -0.24419
           Y            0.42198  -0.38868   0.81906
           Z           -0.25678   0.81520   0.51914
 This molecule is an asymmetric top.
 Rotational symmetry number  1.
 Warning -- assumption of classical behavior for rotation
           may cause significant error
 Rotational temperatures (Kelvin)      0.03187     0.01650     0.01277
 Rotational constants (GHZ):           0.66408     0.34376     0.26616
 Zero-point vibrational energy     643624.0 (Joules/Mol)
                                  153.82982 (Kcal/Mol)
 Warning -- explicit consideration of  21 degrees of freedom as
           vibrations may cause significant error
 Vibrational temperatures:     20.37    61.48    79.38   105.87   119.61
          (Kelvin)            133.89   190.16   221.94   282.80   304.21
                              331.68   395.13   417.81   435.34   497.36
                              521.03   548.82   636.01   812.23   827.50
                              873.18   911.64   954.13   965.03  1050.01
                             1062.87  1098.41  1109.39  1129.40  1147.47
                             1188.64  1207.55  1232.12  1322.74  1360.58
                             1363.49  1405.91  1423.26  1451.20  1460.38
                             1523.17  1572.10  1587.97  1607.14  1640.32
                             1647.54  1757.15  1775.26  1806.47  1815.46
                             1848.23  1858.00  1878.60  1943.49  1968.53
                             1986.87  1993.05  2002.67  2010.52  2049.04
                             2094.70  2118.38  2129.31  2156.23  2159.74
                             2212.22  2304.03  2394.88  2410.20  2590.04
                             4365.58  4370.57  4377.61  4403.88  4427.41
                             4462.06  4462.37  4639.75  4668.92  4672.47
                             5046.85  5113.64  5142.89  5164.86

 Zero-point correction=                           0.245143 (Hartree/Particle)
 Thermal correction to Energy=                    0.260682
 Thermal correction to Enthalpy=                  0.261626
 Thermal correction to Gibbs Free Energy=         0.199915
 Sum of electronic and zero-point Energies=           -796.151730
 Sum of electronic and thermal Energies=              -796.136191
 Sum of electronic and thermal Enthalpies=            -796.135247
 Sum of electronic and thermal Free Energies=         -796.196958

                     E (Thermal)             CV                S
                      KCal/Mol        Cal/Mol-Kelvin    Cal/Mol-Kelvin
 Total                  163.581             57.247            129.882
 Electronic               0.000              0.000              0.000
 Translational            0.889              2.981             42.150
 Rotational               0.889              2.981             32.936
 Vibrational            161.803             51.285             54.796
 Vibration     1          0.593              1.986              7.320
 Vibration     2          0.595              1.980              5.128
 Vibration     3          0.596              1.976              4.623
 Vibration     4          0.599              1.966              4.055
 Vibration     5          0.600              1.961              3.816
 Vibration     6          0.602              1.954              3.595
 Vibration     7          0.612              1.921              2.914
 Vibration     8          0.620              1.898              2.619
 Vibration     9          0.636              1.845              2.165
 Vibration    10          0.643              1.823              2.031
 Vibration    11          0.652              1.794              1.875
 Vibration    12          0.677              1.720              1.567
 Vibration    13          0.686              1.692              1.472
 Vibration    14          0.694              1.669              1.403
 Vibration    15          0.724              1.584              1.186
 Vibration    16          0.736              1.550              1.113
 Vibration    17          0.751              1.510              1.033
 Vibration    18          0.802              1.378              0.820
 Vibration    19          0.920              1.108              0.515
 Vibration    20          0.932              1.085              0.494
 Vibration    21          0.966              1.017              0.438

 Normal termination of Gaussian 09 at Sat Jul 24 04:08:33 2021.
