 Gaussian 09, Revision D.01,
 Gaussian 09:  ES64L-G09RevD.01 24-Apr-2013

 ----------------------------------------------------------------------
 # B3LYP/6-311++G(d,p) EmpiricalDispersion=GD3BJ opt=calcfc freq=norama
 n nosymm integral(ultrafinegrid)
 ----------------------------------------------------------------------

 ------------------------------------------------------------
 Candidate Structure: Conf:900 OPT and FREQ calc in gas phase
 ------------------------------------------------------------
 Symbolic Z-matrix:
 Charge =  0 Multiplicity = 1

 SCF Done:  E(RB3LYP) =  -796.391971063     A.U. after   15 cycles
 SCF Done:  E(RB3LYP) =  -796.393582419     A.U. after   13 cycles
 SCF Done:  E(RB3LYP) =  -796.393481545     A.U. after   15 cycles
 SCF Done:  E(RB3LYP) =  -796.393614241     A.U. after   12 cycles
 SCF Done:  E(RB3LYP) =  -796.393838129     A.U. after   13 cycles
 SCF Done:  E(RB3LYP) =  -796.393840687     A.U. after   10 cycles
 SCF Done:  E(RB3LYP) =  -796.393840811     A.U. after    9 cycles
 Optimization completed.
    -- Stationary point found.
 Normal termination of Gaussian 09 at Sat Jul 24 02:37:36 2021.

 ----------------------------------------------------------------------
 #N Geom=AllCheck Guess=TCheck SCRF=Check GenChk RB3LYP/6-311++G(d,p) F
 req
 ----------------------------------------------------------------------

 Structure from the checkpoint file:  "conf-900.chk"
 ------------------------------------------------------------
 Candidate Structure: Conf:900 OPT and FREQ calc in gas phase
 ------------------------------------------------------------
 Charge =  0 Multiplicity = 1

                          Input orientation:
 ---------------------------------------------------------------------
 Center     Atomic      Atomic             Coordinates (Angstroms)
 Number     Number       Type             X           Y           Z
 ---------------------------------------------------------------------
      1          8           0       -0.748630    0.496958   -1.209406
      2          6           0       -1.182201   -0.579480   -0.793413
      3          7           0       -0.425017   -1.424139   -0.057788
      4          6           0        0.961341   -1.151514    0.266422
      5          6           0        1.577764   -2.448376    0.748548
      6          8           0        2.912400   -2.345759    0.862705
      7          8           0        0.957249   -3.446756    1.024185
      8          6           0        1.138542   -0.019673    1.346804
      9          6           0        1.931233    1.144827    0.867893
     10          6           0        3.100365    1.721717    1.303628
     11          7           0        3.433751    2.799734    0.513371
     12          6           0        2.483284    2.873166   -0.394419
     13          7           0        1.546019    1.897104   -0.223796
     14          6           0       -2.595477   -1.050187   -1.091460
     15          6           0       -3.542083    0.115592   -1.368867
     16          7           0       -3.618052    0.996681   -0.199117
     17          1           0       -0.803908   -2.301697    0.272387
     18          1           0        1.488750   -0.843310   -0.638750
     19          1           0        3.247323   -3.187647    1.207291
     20          1           0        0.131831    0.286075    1.643935
     21          1           0        1.622981   -0.421041    2.238076
     22          1           0        3.714220    1.420368    2.138574
     23          1           0        2.423299    3.602255   -1.187720
     24          1           0        0.728191    1.681438   -0.789045
     25          1           0       -2.971011   -1.643793   -0.253617
     26          1           0       -2.543966   -1.707114   -1.967939
     27          1           0       -4.538191   -0.291499   -1.558994
     28          1           0       -3.215685    0.630726   -2.281304
     29          1           0       -2.791984    1.584929   -0.158851
     30          1           0       -4.422202    1.610704   -0.259205
 ---------------------------------------------------------------------

 SCF Done:  E(RB3LYP) =  -796.393840811     A.U. after    1 cycles

 Alpha  occ. eigenvalues --  -19.20518 -19.15210 -19.11859 -14.36608 -14.35318
 Alpha  occ. eigenvalues --  -14.30151 -14.28505 -10.34201 -10.30114 -10.25625
 Alpha  occ. eigenvalues --  -10.21620 -10.20828 -10.20642 -10.20094 -10.19583
 Alpha  occ. eigenvalues --  -10.17638  -1.15022  -1.07091  -1.06138  -1.00862
 Alpha  occ. eigenvalues --   -0.95969  -0.89508  -0.86548  -0.82152  -0.77651
 Alpha  occ. eigenvalues --   -0.75051  -0.69178  -0.66921  -0.62420  -0.61533
 Alpha  occ. eigenvalues --   -0.60614  -0.58541  -0.54948  -0.54112  -0.52651
 Alpha  occ. eigenvalues --   -0.51966  -0.50305  -0.49627  -0.49086  -0.48471
 Alpha  occ. eigenvalues --   -0.46013  -0.44927  -0.44274  -0.43661  -0.42623
 Alpha  occ. eigenvalues --   -0.40812  -0.40547  -0.40180  -0.39987  -0.39311
 Alpha  occ. eigenvalues --   -0.38277  -0.37249  -0.36276  -0.32294  -0.29496
 Alpha  occ. eigenvalues --   -0.29174  -0.27636  -0.26432  -0.25468  -0.22496
 Alpha virt. eigenvalues --   -0.03695  -0.02379  -0.01847  -0.01188  -0.00107
 Alpha virt. eigenvalues --    0.00658   0.00749   0.01526   0.01920   0.02284
 Alpha virt. eigenvalues --    0.02740   0.03306   0.03713   0.04277   0.04863

 Mulliken charges:
               1
     1  O   -0.355996
     2  C   -0.134117
     3  N    0.009045
     4  C   -0.321208
     5  C    0.020073
     6  O   -0.103218
     7  O   -0.266667
     8  C   -0.454397
     9  C    0.390625
    10  C   -0.548998
    11  N   -0.141184
    12  C    0.022705
    13  N   -0.264258
    14  C   -0.210178
    15  C   -0.475220
    16  N   -0.370212
    17  H    0.297155
    18  H    0.291720
    19  H    0.299149
    20  H    0.222538
    21  H    0.232786
    22  H    0.126733
    23  H    0.156867
    24  H    0.436372
    25  H    0.152816
    26  H    0.186339
    27  H    0.165006
    28  H    0.161359
    29  H    0.221399
    30  H    0.252965
 Sum of Mulliken charges =   0.00000

 Dipole moment (field-independent basis, Debye):
    X=             -3.2213    Y=             -3.5575    Z=             -1.0559  Tot=              4.9140
 Quadrupole moment (field-independent basis, Debye-Ang):
   XX=            -99.9655   YY=           -101.1124   ZZ=            -93.1580
   XY=            -18.5815   XZ=              5.7443   YZ=             -4.0195

  Exact polarizability: 160.043  14.027 157.185  17.944 -14.020 120.651
 Approx polarizability: 214.146  24.537 223.342  16.961 -27.850 187.077

                      1                      2                      3
                      A                      A                      A
 Frequencies --     11.7193                34.8594                54.0657
 Red. masses --      3.8152                 5.9459                 4.6436
 Frc consts  --      0.0003                 0.0043                 0.0080
 IR Inten    --      1.0662                 0.8485                 1.4031

                      4                      5                      6
                      A                      A                      A
 Frequencies --     57.4780                79.2923                88.6069
 Red. masses --      9.6539                 4.9862                 6.2018
 Frc consts  --      0.0188                 0.0185                 0.0287
 IR Inten    --      1.3985                 1.5063                 6.1188

                      7                      8                      9
                      A                      A                      A
 Frequencies --    115.1167               131.5307               143.4948
 Red. masses --      4.1454                 4.1124                 5.2372
 Frc consts  --      0.0324                 0.0419                 0.0635
 IR Inten    --      2.0153                 4.9800                 3.7632

                     10                     11                     12
                      A                      A                      A
 Frequencies --    191.8523               243.3702               286.3937
 Red. masses --      4.6422                 2.3453                 1.4203
 Frc consts  --      0.1007                 0.0818                 0.0686
 IR Inten    --      2.5307                34.5687                46.3775

                     13                     14                     15
                      A                      A                      A
 Frequencies --    293.7815               298.9887               319.6369
 Red. masses --      5.4281                 2.1072                 3.8691
 Frc consts  --      0.2760                 0.1110                 0.2329
 IR Inten    --      1.8691                 3.2172                 3.3359

                     16                     17                     18
                      A                      A                      A
 Frequencies --    351.9735               404.5224               439.5814
 Red. masses --      5.3236                 3.5395                 2.7237
 Frc consts  --      0.3886                 0.3413                 0.3101
 IR Inten    --      0.9850                10.4971                28.9615

                     19                     20                     21
                      A                      A                      A
 Frequencies --    533.7549               562.1783               593.6917
 Red. masses --      1.5147                 2.9407                 1.4277
 Frc consts  --      0.2543                 0.5476                 0.2965
 IR Inten    --     61.5486                38.7016                75.9777

                     22                     23                     24
                      A                      A                      A
 Frequencies --    629.3320               633.4803               647.1777
 Red. masses --      3.1208                 2.7378                 2.9653
 Frc consts  --      0.7282                 0.6473                 0.7317
 IR Inten    --     26.4693                 9.2381                 0.9047

                     25                     26                     27
                      A                      A                      A
 Frequencies --    672.7372               684.5755               719.4329
 Red. masses --      3.4865                 2.7587                 3.5235
 Frc consts  --      0.9297                 0.7617                 1.0745
 IR Inten    --     49.2324                 4.2126                20.0586

                     28                     29                     30
                      A                      A                      A
 Frequencies --    775.0033               779.0440               813.0104
 Red. masses --      4.2504                 1.0900                 1.4376
 Frc consts  --      1.5041                 0.3898                 0.5599
 IR Inten    --     13.7693                30.3807                27.2756

                     31                     32                     33
                      A                      A                      A
 Frequencies --    837.2869               850.9578               858.6206
 Red. masses --      1.4021                 1.4762                 2.3859
 Frc consts  --      0.5791                 0.6298                 1.0364
 IR Inten    --     27.3365                92.1938                20.5288

                     34                     35                     36
                      A                      A                      A
 Frequencies --    889.9349               899.1061               946.6457
 Red. masses --      1.8895                 2.3636                 5.6555
 Frc consts  --      0.8817                 1.1257                 2.9861
 IR Inten    --     11.7016                12.1117                15.2497

                     37                     38                     39
                      A                      A                      A
 Frequencies --    954.9193               979.9055              1022.2243
 Red. masses --      2.8671                 4.1471                 2.9388
 Frc consts  --      1.5404                 2.3462                 1.8093
 IR Inten    --      2.9878                 7.2818                22.1015

                     40                     41                     42
                      A                      A                      A
 Frequencies --   1027.8059              1058.4370              1098.2824
 Red. masses --      3.6282                 2.3660                 2.8649
 Frc consts  --      2.2582                 1.5617                 2.0360
 IR Inten    --      1.5378                15.7299                38.4426

                     43                     44                     45
                      A                      A                      A
 Frequencies --   1125.2000              1129.9950              1144.7156
 Red. masses --      2.0298                 1.7375                 2.1167
 Frc consts  --      1.5142                 1.3072                 1.6342
 IR Inten    --     32.1410                45.5284                 3.9510

                     46                     47                     48
                      A                      A                      A
 Frequencies --   1168.4591              1183.9149              1209.9391
 Red. masses --      1.6674                 2.1453                 1.3280
 Frc consts  --      1.3412                 1.7717                 1.1455
 IR Inten    --    121.5994                85.9462                 7.9861

                     49                     50                     51
                      A                      A                      A
 Frequencies --   1232.6144              1258.8087              1261.5135
 Red. masses --      1.3104                 1.4738                 2.3077
 Frc consts  --      1.1730                 1.3760                 2.1638
 IR Inten    --     14.8461                20.5275                 9.8273

                     52                     53                     54
                      A                      A                      A
 Frequencies --   1274.8858              1290.5139              1326.4985
 Red. masses --      1.4032                 1.2983                 1.3794
 Frc consts  --      1.3437                 1.2739                 1.4300
 IR Inten    --     10.0137                 8.2646                 2.0359

                     55                     56                     57
                      A                      A                      A
 Frequencies --   1348.1172              1357.5559              1382.2655
 Red. masses --      1.2571                 1.4318                 1.6319
 Frc consts  --      1.3461                 1.5547                 1.8371
 IR Inten    --      6.5482                35.2006                39.6744

                     58                     59                     60
                      A                      A                      A
 Frequencies --   1388.6261              1418.4596              1421.2565
 Red. masses --      3.4513                 2.0399                 1.4730
 Frc consts  --      3.9211                 2.4182                 1.7530
 IR Inten    --      7.2781                65.4621                30.8700

                     61                     62                     63
                      A                      A                      A
 Frequencies --   1440.1138              1451.1808              1479.8664
 Red. masses --      2.4092                 1.1111                 1.1605
 Frc consts  --      2.9439                 1.3786                 1.4974
 IR Inten    --     83.4707                16.4585                14.5804

                     64                     65                     66
                      A                      A                      A
 Frequencies --   1498.3947              1498.9786              1545.6507
 Red. masses --      2.6453                 1.1624                 2.4163
 Frc consts  --      3.4993                 1.5389                 3.4012
 IR Inten    --     22.1735                10.3017               318.4098

                     67                     68                     69
                      A                      A                      A
 Frequencies --   1611.3781              1654.9165              1705.9182
 Red. masses --      4.3274                 1.1646                 5.4918
 Frc consts  --      6.6201                 1.8793                 9.4163
 IR Inten    --     17.2206                91.4614               179.7703

                     70                     71                     72
                      A                      A                      A
 Frequencies --   1802.5140              2997.0988              3026.7504
 Red. masses --      9.6827                 1.0697                 1.0628
 Frc consts  --     18.5355                 5.6611                 5.7365
 IR Inten    --    339.3618                48.3102                13.2124

                     73                     74                     75
                      A                      A                      A
 Frequencies --   3046.4227              3068.9883              3073.4916
 Red. masses --      1.0647                 1.0933                 1.0840
 Frc consts  --      5.8218                 6.0668                 6.0331
 IR Inten    --     15.9647                26.6179                 8.1383

                     76                     77                     78
                      A                      A                      A
 Frequencies --   3079.5777              3098.5636              3232.3549
 Red. masses --      1.0992                 1.0989                 1.0962
 Frc consts  --      6.1421                 6.2163                 6.7479
 IR Inten    --     22.2948                 9.1693                 7.6432

                     79                     80                     81
                      A                      A                      A
 Frequencies --   3241.8954              3500.1984              3511.1828
 Red. masses --      1.0983                 1.0847                 1.0497
 Frc consts  --      6.8010                 7.8294                 7.6247
 IR Inten    --      0.9886               422.3349                 0.7345

                     82                     83                     84
                      A                      A                      A
 Frequencies --   3588.5509              3591.8201              3757.6827
 Red. masses --      1.0933                 1.0780                 1.0646
 Frc consts  --      8.2953                 8.1939                 8.8565
 IR Inten    --      6.4091                84.9966                98.9807

 - Thermochemistry -
 -------------------
 Temperature   298.150 Kelvin.  Pressure   1.00000 Atm.
 Atom     1 has atomic number  8 and mass  15.99491

 Molecular mass:   226.10659 amu.
 Principal axes and moments of inertia in atomic units:
                           1         2         3
     Eigenvalues --  3050.089114790.150317305.11315
           X            0.94111  -0.15705  -0.29942
           Y            0.20904   0.96630   0.15020
           Z            0.26575  -0.20394   0.94222
 This molecule is an asymmetric top.
 Rotational symmetry number  1.
 Warning -- assumption of classical behavior for rotation
           may cause significant error
 Rotational temperatures (Kelvin)      0.02840     0.01808     0.01186
 Rotational constants (GHZ):           0.59170     0.37676     0.24705
 Zero-point vibrational energy     642637.7 (Joules/Mol)
                                  153.59410 (Kcal/Mol)
 Warning -- explicit consideration of  21 degrees of freedom as
           vibrations may cause significant error
 Vibrational temperatures:     16.86    50.15    77.79    82.70   114.08
          (Kelvin)            127.49   165.63   189.24   206.46   276.03
                              350.15   412.06   422.69   430.18   459.89
                              506.41   582.02   632.46   767.95   808.85
                              854.19   905.47   911.44   931.14   967.92
                              984.95  1035.10  1115.06  1120.87  1169.74
                             1204.67  1224.34  1235.36  1280.42  1293.61
                             1362.01  1373.91  1409.86  1470.75  1478.78
                             1522.85  1580.18  1618.91  1625.81  1646.99
                             1681.15  1703.39  1740.83  1773.45  1811.14
                             1815.03  1834.27  1856.76  1908.53  1939.64
                             1953.22  1988.77  1997.92  2040.84  2044.87
                             2072.00  2087.92  2129.19  2155.85  2156.69
                             2223.84  2318.41  2381.05  2454.43  2593.41
                             4312.15  4354.81  4383.12  4415.58  4422.06
                             4430.82  4458.14  4650.63  4664.36  5036.00
                             5051.80  5163.12  5167.82  5406.46

 Zero-point correction=                           0.244768 (Hartree/Particle)
 Thermal correction to Energy=                    0.260689
 Thermal correction to Enthalpy=                  0.261634
 Thermal correction to Gibbs Free Energy=         0.198378
 Sum of electronic and zero-point Energies=           -796.149073
 Sum of electronic and thermal Energies=              -796.133151
 Sum of electronic and thermal Enthalpies=            -796.132207
 Sum of electronic and thermal Free Energies=         -796.195463

                     E (Thermal)             CV                S
                      KCal/Mol        Cal/Mol-Kelvin    Cal/Mol-Kelvin
 Total                  163.585             58.022            133.133
 Electronic               0.000              0.000              0.000
 Translational            0.889              2.981             42.150
 Rotational               0.889              2.981             33.034
 Vibrational            161.808             52.060             57.949
 Vibration     1          0.593              1.987              7.696
 Vibration     2          0.594              1.983              5.532
 Vibration     3          0.596              1.976              4.663
 Vibration     4          0.596              1.975              4.542
 Vibration     5          0.600              1.963              3.908
 Vibration     6          0.601              1.957              3.691
 Vibration     7          0.608              1.937              3.181
 Vibration     8          0.612              1.922              2.924
 Vibration     9          0.616              1.910              2.757
 Vibration    10          0.634              1.851              2.210
 Vibration    11          0.659              1.774              1.778
 Vibration    12          0.684              1.699              1.495
 Vibration    13          0.689              1.685              1.452
 Vibration    14          0.692              1.676              1.423
 Vibration    15          0.706              1.636              1.312
 Vibration    16          0.729              1.571              1.157
 Vibration    17          0.770              1.460              0.946
 Vibration    18          0.800              1.384              0.828
 Vibration    19          0.889              1.175              0.579
 Vibration    20          0.918              1.113              0.520
 Vibration    21          0.951              1.045              0.461

 Normal termination of Gaussian 09 at Sat Jul 24 03:49:34 2021.
