 Gaussian 09, Revision D.01,
 Gaussian 09:  ES64L-G09RevD.01 24-Apr-2013

 ----------------------------------------------------------------------
 # B3LYP/6-311++G(d,p) EmpiricalDispersion=GD3BJ opt=calcfc freq=norama
 n nosymm integral(ultrafinegrid)
 ----------------------------------------------------------------------

 ------------------------------------------------------------
 Candidate Structure: Conf:683 OPT and FREQ calc in gas phase
 ------------------------------------------------------------
 Symbolic Z-matrix:
 Charge =  0 Multiplicity = 1

 SCF Done:  E(RB3LYP) =  -796.394647335     A.U. after   15 cycles
 SCF Done:  E(RB3LYP) =  -796.396725935     A.U. after   13 cycles
 SCF Done:  E(RB3LYP) =  -796.397333295     A.U. after   15 cycles
 SCF Done:  E(RB3LYP) =  -796.397501850     A.U. after   13 cycles
 SCF Done:  E(RB3LYP) =  -796.397099268     A.U. after   13 cycles
 SCF Done:  E(RB3LYP) =  -796.397534510     A.U. after    9 cycles
 SCF Done:  E(RB3LYP) =  -796.397550854     A.U. after   12 cycles
 SCF Done:  E(RB3LYP) =  -796.397555016     A.U. after   12 cycles
 SCF Done:  E(RB3LYP) =  -796.397555373     A.U. after   10 cycles
 Optimization completed.
    -- Stationary point found.
 Normal termination of Gaussian 09 at Sat Jul 24 02:40:35 2021.

 ----------------------------------------------------------------------
 #N Geom=AllCheck Guess=TCheck SCRF=Check GenChk RB3LYP/6-311++G(d,p) F
 req
 ----------------------------------------------------------------------

 Structure from the checkpoint file:  "conf-683.chk"
 ------------------------------------------------------------
 Candidate Structure: Conf:683 OPT and FREQ calc in gas phase
 ------------------------------------------------------------
 Charge =  0 Multiplicity = 1

                          Input orientation:
 ---------------------------------------------------------------------
 Center     Atomic      Atomic             Coordinates (Angstroms)
 Number     Number       Type             X           Y           Z
 ---------------------------------------------------------------------
      1          8           0       -0.645298    0.112589   -2.155265
      2          6           0        0.313435    0.361936   -1.420409
      3          7           0        0.179115    0.668792   -0.110412
      4          6           0       -1.112831    0.851231    0.505548
      5          6           0       -1.129955    2.170210    1.261724
      6          8           0       -2.384861    2.501538    1.637614
      7          8           0       -0.163734    2.838156    1.527516
      8          6           0       -1.521141   -0.298060    1.465078
      9          6           0       -1.410117   -1.664697    0.870137
     10          6           0       -1.150825   -2.879201    1.460080
     11          7           0       -1.215188   -3.897652    0.534038
     12          6           0       -1.502175   -3.309708   -0.606357
     13          7           0       -1.652166   -1.959578   -0.458621
     14          6           0        1.740567    0.304921   -1.947109
     15          6           0        2.731254    1.303648   -1.338294
     16          7           0        2.977441    1.013664    0.084624
     17          1           0        1.035530    0.866509    0.413138
     18          1           0       -1.850671    0.916762   -0.296978
     19          1           0       -2.330473    3.328730    2.139921
     20          1           0       -0.891609   -0.263570    2.359199
     21          1           0       -2.546296   -0.096606    1.791275
     22          1           0       -0.932156   -3.074027    2.499058
     23          1           0       -1.608480   -3.798498   -1.562476
     24          1           0       -1.679557   -1.280098   -1.216486
     25          1           0        2.103611   -0.719404   -1.796645
     26          1           0        1.672988    0.453972   -3.025646
     27          1           0        2.313474    2.312087   -1.400681
     28          1           0        3.648112    1.296559   -1.941561
     29          1           0        3.530629    0.169147    0.194582
     30          1           0        3.481472    1.770635    0.533193
 ---------------------------------------------------------------------

 SCF Done:  E(RB3LYP) =  -796.397555373     A.U. after    1 cycles

 Alpha  occ. eigenvalues --  -19.19693 -19.14146 -19.10344 -14.35294 -14.34610
 Alpha  occ. eigenvalues --  -14.32689 -14.28417 -10.33117 -10.28802 -10.24652
 Alpha  occ. eigenvalues --  -10.22349 -10.21343 -10.20220 -10.20150 -10.19513
 Alpha  occ. eigenvalues --  -10.17369  -1.13969  -1.05653  -1.05038  -1.00675
 Alpha  occ. eigenvalues --   -0.94714  -0.91439  -0.86352  -0.81653  -0.77719
 Alpha  occ. eigenvalues --   -0.74802  -0.68403  -0.66404  -0.63228  -0.60640
 Alpha  occ. eigenvalues --   -0.59646  -0.58309  -0.55385  -0.53207  -0.52401
 Alpha  occ. eigenvalues --   -0.51806  -0.49999  -0.49173  -0.47826  -0.47571
 Alpha  occ. eigenvalues --   -0.46149  -0.45539  -0.43926  -0.42968  -0.41932
 Alpha  occ. eigenvalues --   -0.41457  -0.40979  -0.40451  -0.40010  -0.39005
 Alpha  occ. eigenvalues --   -0.38505  -0.36495  -0.35382  -0.31177  -0.28530
 Alpha  occ. eigenvalues --   -0.28078  -0.27595  -0.27311  -0.26242  -0.22199
 Alpha virt. eigenvalues --   -0.02678  -0.02590  -0.01770  -0.00339   0.00087
 Alpha virt. eigenvalues --    0.00748   0.01111   0.01583   0.01933   0.02404
 Alpha virt. eigenvalues --    0.02900   0.03605   0.04107   0.04544   0.05101

 Mulliken charges:
               1
     1  O   -0.351605
     2  C   -0.242203
     3  N    0.016085
     4  C   -0.105258
     5  C   -0.000187
     6  O   -0.124004
     7  O   -0.251178
     8  C   -1.776930
     9  C    1.062581
    10  C   -0.205760
    11  N   -0.129295
    12  C    0.076548
    13  N   -0.128213
    14  C   -0.220836
    15  C   -0.395106
    16  N   -0.461719
    17  H    0.438203
    18  H    0.288522
    19  H    0.298754
    20  H    0.192124
    21  H    0.202058
    22  H    0.137014
    23  H    0.162585
    24  H    0.307434
    25  H    0.200897
    26  H    0.183487
    27  H    0.180655
    28  H    0.167804
    29  H    0.224277
    30  H    0.253265
 Sum of Mulliken charges =   0.00000

 Dipole moment (field-independent basis, Debye):
    X=              3.0355    Y=              4.6634    Z=              0.4712  Tot=              5.5842
 Quadrupole moment (field-independent basis, Debye-Ang):
   XX=            -82.5429   YY=           -112.5812   ZZ=            -93.4142
   XY=             -6.3732   XZ=             -6.2015   YZ=              6.5626

  Exact polarizability: 134.075   6.572 156.167  -6.031  10.482 141.719
 Approx polarizability: 191.129   2.029 214.472  10.678  12.536 219.600

                      1                      2                      3
                      A                      A                      A
 Frequencies --     18.5645                43.3556                51.8457
 Red. masses --      4.9558                 7.8546                 4.4251
 Frc consts  --      0.0010                 0.0087                 0.0070
 IR Inten    --      4.7426                 2.4369                 1.6076

                      4                      5                      6
                      A                      A                      A
 Frequencies --     64.2964                86.0323               100.7584
 Red. masses --      3.9830                 4.2626                 5.0402
 Frc consts  --      0.0097                 0.0186                 0.0301
 IR Inten    --      0.7564                 2.5040                 1.4255

                      7                      8                      9
                      A                      A                      A
 Frequencies --    117.9028               144.5775               177.9011
 Red. masses --      4.0107                 6.1990                 6.8334
 Frc consts  --      0.0328                 0.0763                 0.1274
 IR Inten    --      7.3689                14.6829                 1.4622

                     10                     11                     12
                      A                      A                      A
 Frequencies --    202.2905               227.9836               268.7484
 Red. masses --      2.1764                 5.1124                 4.0026
 Frc consts  --      0.0525                 0.1566                 0.1703
 IR Inten    --      2.8147                 9.6305                 0.8609

                     13                     14                     15
                      A                      A                      A
 Frequencies --    303.2680               309.3341               345.3838
 Red. masses --      1.3915                 4.8307                 4.0173
 Frc consts  --      0.0754                 0.2723                 0.2823
 IR Inten    --     10.2393                 3.8857                 0.5479

                     16                     17                     18
                      A                      A                      A
 Frequencies --    355.2317               433.0799               486.2574
 Red. masses --      3.3648                 3.3176                 2.8540
 Frc consts  --      0.2502                 0.3666                 0.3976
 IR Inten    --      5.1863                13.9876                11.5440

                     19                     20                     21
                      A                      A                      A
 Frequencies --    514.9990               588.3624               595.8599
 Red. masses --      3.0515                 2.2674                 1.7087
 Frc consts  --      0.4768                 0.4625                 0.3574
 IR Inten    --     39.6324                26.1908                68.4756

                     22                     23                     24
                      A                      A                      A
 Frequencies --    627.8684               645.1443               670.9130
 Red. masses --      3.5626                 4.4207                 3.4261
 Frc consts  --      0.8275                 1.0841                 0.9086
 IR Inten    --     13.2851                38.1559                43.3863

                     25                     26                     27
                      A                      A                      A
 Frequencies --    685.9613               700.0967               738.0002
 Red. masses --      3.0512                 3.4632                 1.2128
 Frc consts  --      0.8459                 1.0001                 0.3892
 IR Inten    --     34.9816                16.8029               103.8475

                     28                     29                     30
                      A                      A                      A
 Frequencies --    780.3232               800.7144               808.8725
 Red. masses --      3.7653                 1.2020                 1.4095
 Frc consts  --      1.3508                 0.4541                 0.5434
 IR Inten    --      9.3792                63.4748                17.5759

                     31                     32                     33
                      A                      A                      A
 Frequencies --    830.7663               840.1846               879.8153
 Red. masses --      1.3560                 1.4096                 2.8115
 Frc consts  --      0.5514                 0.5863                 1.2822
 IR Inten    --     16.7841                81.6423                 1.9813

                     34                     35                     36
                      A                      A                      A
 Frequencies --    898.5696               914.6549               946.4803
 Red. masses --      2.3233                 1.9880                 5.5551
 Frc consts  --      1.1052                 0.9799                 2.9320
 IR Inten    --     21.5597                30.7864                16.3291

                     37                     38                     39
                      A                      A                      A
 Frequencies --    961.5332               992.3256              1013.9764
 Red. masses --      2.5550                 2.2712                 2.4058
 Frc consts  --      1.3918                 1.3177                 1.4574
 IR Inten    --      5.0606                 2.0070                14.3435

                     40                     41                     42
                      A                      A                      A
 Frequencies --   1026.6507              1049.8639              1081.9598
 Red. masses --      2.6053                 3.0476                 2.6911
 Frc consts  --      1.6179                 1.9791                 1.8561
 IR Inten    --     31.4380                12.3295                 7.9990

                     43                     44                     45
                      A                      A                      A
 Frequencies --   1131.0748              1140.8321              1150.1388
 Red. masses --      3.2699                 2.1882                 1.7972
 Frc consts  --      2.4647                 1.6779                 1.4007
 IR Inten    --    156.6023                19.4984                22.1439

                     46                     47                     48
                      A                      A                      A
 Frequencies --   1158.9901              1178.9332              1231.1009
 Red. masses --      1.3919                 2.1870                 1.5266
 Frc consts  --      1.1016                 1.7909                 1.3632
 IR Inten    --     42.2910                71.6583                 8.0785

                     49                     50                     51
                      A                      A                      A
 Frequencies --   1260.0244              1267.4164              1275.1932
 Red. masses --      2.1543                 1.3839                 1.4521
 Frc consts  --      2.0152                 1.3098                 1.3912
 IR Inten    --      3.5696                29.0555                11.4867

                     52                     53                     54
                      A                      A                      A
 Frequencies --   1290.0402              1312.9463              1316.4274
 Red. masses --      1.3669                 1.3368                 1.7012
 Frc consts  --      1.3402                 1.3577                 1.7370
 IR Inten    --      3.6951                 2.7915                10.1915

                     55                     56                     57
                      A                      A                      A
 Frequencies --   1341.3959              1364.3994              1373.6423
 Red. masses --      1.7387                 1.4154                 1.4796
 Frc consts  --      1.8433                 1.5524                 1.6449
 IR Inten    --     13.6597                13.5828                11.2062

                     58                     59                     60
                      A                      A                      A
 Frequencies --   1390.9642              1398.5864              1421.3912
 Red. masses --      2.5379                 2.2589                 1.4034
 Frc consts  --      2.8931                 2.6033                 1.6705
 IR Inten    --     11.9538                85.1837                16.0324

                     61                     62                     63
                      A                      A                      A
 Frequencies --   1455.9652              1462.9877              1484.4367
 Red. masses --      2.1559                 1.0807                 1.2848
 Frc consts  --      2.6927                 1.3628                 1.6680
 IR Inten    --     41.3462                12.1111                18.8367

                     64                     65                     66
                      A                      A                      A
 Frequencies --   1498.7405              1511.5681              1590.8344
 Red. masses --      2.5371                 1.0831                 1.9175
 Frc consts  --      3.3577                 1.4581                 2.8591
 IR Inten    --     15.6227                 3.9383               274.3044

                     67                     68                     69
                      A                      A                      A
 Frequencies --   1610.0702              1654.5630              1697.5877
 Red. masses --      3.6450                 1.0909                 6.8744
 Frc consts  --      5.5672                 1.7596                11.6721
 IR Inten    --     13.8382                38.2132               330.4941

                     70                     71                     72
                      A                      A                      A
 Frequencies --   1814.3995              2992.3445              3024.0236
 Red. masses --      9.9830                 1.0711                 1.0705
 Frc consts  --     19.3632                 5.6507                 5.7675
 IR Inten    --    299.0535                74.8708                 4.6287

                     73                     74                     75
                      A                      A                      A
 Frequencies --   3031.8722              3063.6253              3067.5185
 Red. masses --      1.0597                 1.0983                 1.0925
 Frc consts  --      5.7392                 6.0738                 6.0570
 IR Inten    --     18.9105                 5.8412                20.0002

                     76                     77                     78
                      A                      A                      A
 Frequencies --   3083.8867              3104.5404              3228.8657
 Red. masses --      1.0873                 1.0924                 1.0963
 Frc consts  --      6.0926                 6.2033                 6.7339
 IR Inten    --     10.0776                 7.9079                 7.5011

                     79                     80                     81
                      A                      A                      A
 Frequencies --   3242.5209              3371.3139              3471.1972
 Red. masses --      1.0980                 1.0826                 1.0853
 Frc consts  --      6.8015                 7.2496                 7.7046
 IR Inten    --      1.0496               405.2976               311.3531

                     82                     83                     84
                      A                      A                      A
 Frequencies --   3503.7136              3585.2297              3756.0362
 Red. masses --      1.0501                 1.0934                 1.0645
 Frc consts  --      7.5952                 8.2805                 8.8485
 IR Inten    --      0.5593                 6.4725                85.3049

 - Thermochemistry -
 -------------------
 Temperature   298.150 Kelvin.  Pressure   1.00000 Atm.
 Atom     1 has atomic number  8 and mass  15.99491

 Molecular mass:   226.10659 amu.
 Principal axes and moments of inertia in atomic units:
                           1         2         3
     Eigenvalues --  3067.371004339.633926030.50671
           X            0.45498   0.67671   0.57885
           Y            0.88853  -0.38817  -0.24461
           Z           -0.05916  -0.62562   0.77788
 This molecule is an asymmetric top.
 Rotational symmetry number  1.
 Warning -- assumption of classical behavior for rotation
           may cause significant error
 Rotational temperatures (Kelvin)      0.02824     0.01996     0.01436
 Rotational constants (GHZ):           0.58837     0.41587     0.29927
 Zero-point vibrational energy     643842.4 (Joules/Mol)
                                  153.88203 (Kcal/Mol)
 Warning -- explicit consideration of  21 degrees of freedom as
           vibrations may cause significant error
 Vibrational temperatures:     26.71    62.38    74.59    92.51   123.78
          (Kelvin)            144.97   169.64   208.01   255.96   291.05
                              328.02   386.67   436.33   445.06   496.93
                              511.10   623.10   699.62   740.97   846.52
                              857.31   903.36   928.22   965.29   986.94
                             1007.28  1061.82  1122.71  1152.05  1163.79
                             1195.29  1208.84  1265.86  1292.84  1315.98
                             1361.77  1383.43  1427.73  1458.88  1477.12
                             1510.52  1556.70  1627.36  1641.40  1654.79
                             1667.53  1696.22  1771.28  1812.89  1823.53
                             1834.72  1856.08  1889.03  1894.04  1929.97
                             1963.06  1976.36  2001.28  2012.25  2045.06
                             2094.81  2104.91  2135.77  2156.35  2174.81
                             2288.85  2316.53  2380.54  2442.45  2610.51
                             4305.31  4350.89  4362.18  4407.87  4413.47
                             4437.02  4466.74  4645.61  4665.26  4850.56
                             4994.27  5041.06  5158.34  5404.09

 Zero-point correction=                           0.245227 (Hartree/Particle)
 Thermal correction to Energy=                    0.260831
 Thermal correction to Enthalpy=                  0.261775
 Thermal correction to Gibbs Free Energy=         0.200101
 Sum of electronic and zero-point Energies=           -796.152329
 Sum of electronic and thermal Energies=              -796.136724
 Sum of electronic and thermal Enthalpies=            -796.135780
 Sum of electronic and thermal Free Energies=         -796.197454

                     E (Thermal)             CV                S
                      KCal/Mol        Cal/Mol-Kelvin    Cal/Mol-Kelvin
 Total                  163.674             57.410            129.804
 Electronic               0.000              0.000              0.000
 Translational            0.889              2.981             42.150
 Rotational               0.889              2.981             32.751
 Vibrational            161.897             51.448             54.903
 Vibration     1          0.593              1.986              6.782
 Vibration     2          0.595              1.980              5.100
 Vibration     3          0.596              1.977              4.746
 Vibration     4          0.597              1.971              4.321
 Vibration     5          0.601              1.959              3.748
 Vibration     6          0.604              1.949              3.440
 Vibration     7          0.608              1.934              3.134
 Vibration     8          0.616              1.909              2.742
 Vibration     9          0.628              1.870              2.350
 Vibration    10          0.639              1.837              2.112
 Vibration    11          0.651              1.798              1.895
 Vibration    12          0.673              1.731              1.604
 Vibration    13          0.695              1.668              1.399
 Vibration    14          0.699              1.656              1.366
 Vibration    15          0.724              1.585              1.187
 Vibration    16          0.731              1.565              1.143
 Vibration    17          0.794              1.398              0.849
 Vibration    18          0.842              1.281              0.693
 Vibration    19          0.870              1.217              0.622
 Vibration    20          0.946              1.057              0.470
 Vibration    21          0.954              1.041              0.457

 Normal termination of Gaussian 09 at Sat Jul 24 03:46:57 2021.
