 Gaussian 09, Revision D.01,
 Gaussian 09:  ES64L-G09RevD.01 24-Apr-2013

 ----------------------------------------------------------------------
 # B3LYP/6-311++G(d,p) EmpiricalDispersion=GD3BJ opt=calcfc freq=norama
 n nosymm integral(ultrafinegrid)
 ----------------------------------------------------------------------

 ------------------------------------------------------------
 Candidate Structure: Conf:455 OPT and FREQ calc in gas phase
 ------------------------------------------------------------
 Symbolic Z-matrix:
 Charge =  0 Multiplicity = 1

 SCF Done:  E(RB3LYP) =  -796.373636734     A.U. after   16 cycles
 SCF Done:  E(RB3LYP) =  -796.375678721     A.U. after   14 cycles
 SCF Done:  E(RB3LYP) =  -796.375796232     A.U. after   15 cycles
 SCF Done:  E(RB3LYP) =  -796.376399345     A.U. after   13 cycles
 SCF Done:  E(RB3LYP) =  -796.376570548     A.U. after   13 cycles
 SCF Done:  E(RB3LYP) =  -796.376612721     A.U. after   14 cycles
 SCF Done:  E(RB3LYP) =  -796.376610630     A.U. after   12 cycles
 SCF Done:  E(RB3LYP) =  -796.376636016     A.U. after   13 cycles
 SCF Done:  E(RB3LYP) =  -796.376636888     A.U. after   11 cycles
 SCF Done:  E(RB3LYP) =  -796.376636973     A.U. after    9 cycles
 Optimization completed.
    -- Stationary point found.
 Normal termination of Gaussian 09 at Sat Jul 24 03:12:17 2021.

 ----------------------------------------------------------------------
 #N Geom=AllCheck Guess=TCheck SCRF=Check GenChk RB3LYP/6-311++G(d,p) F
 req
 ----------------------------------------------------------------------

 Structure from the checkpoint file:  "conf-455.chk"
 ------------------------------------------------------------
 Candidate Structure: Conf:455 OPT and FREQ calc in gas phase
 ------------------------------------------------------------
 Charge =  0 Multiplicity = 1

                          Input orientation:
 ---------------------------------------------------------------------
 Center     Atomic      Atomic             Coordinates (Angstroms)
 Number     Number       Type             X           Y           Z
 ---------------------------------------------------------------------
      1          8           0        0.424986   -0.923232   -1.182089
      2          6           0        1.043119   -0.546037   -0.190632
      3          7           0        0.555579   -0.705944    1.071206
      4          6           0       -0.580575   -1.551158    1.382216
      5          6           0       -0.178187   -3.038725    1.249456
      6          8           0       -1.195854   -3.933192    1.259856
      7          8           0        0.957812   -3.409956    1.201378
      8          6           0       -1.881945   -1.190185    0.608239
      9          6           0       -2.134048    0.274845    0.497339
     10          6           0       -2.799605    1.173208    1.297315
     11          7           0       -2.728296    2.442742    0.768061
     12          6           0       -2.030821    2.321422   -0.340849
     13          7           0       -1.651150    1.028258   -0.553560
     14          6           0        2.347414    0.213785   -0.307257
     15          6           0        2.144608    1.537279   -1.080133
     16          7           0        3.348931    2.323011   -1.313471
     17          1           0        1.177851   -0.493064    1.833907
     18          1           0       -0.786333   -1.394469    2.445854
     19          1           0       -2.052637   -3.490189    1.239468
     20          1           0       -2.729790   -1.629714    1.145618
     21          1           0       -1.844729   -1.633782   -0.386786
     22          1           0       -3.332155    0.975212    2.215325
     23          1           0       -1.779354    3.119751   -1.021810
     24          1           0       -1.071068    0.658617   -1.295768
     25          1           0        2.784692    0.418651    0.674593
     26          1           0        3.044384   -0.424777   -0.857287
     27          1           0        1.692382    1.304437   -2.046619
     28          1           0        1.430758    2.163382   -0.536046
     29          1           0        3.792592    2.601572   -0.444921
     30          1           0        4.031348    1.808150   -1.859649
 ---------------------------------------------------------------------

 SCF Done:  E(RB3LYP) =  -796.376636973     A.U. after    2 cycles

 Alpha  occ. eigenvalues --  -19.19479 -19.13333 -19.11578 -14.37221 -14.37076
 Alpha  occ. eigenvalues --  -14.31075 -14.29957 -10.32833 -10.30062 -10.26535
 Alpha  occ. eigenvalues --  -10.23045 -10.22064 -10.21772 -10.21580 -10.19794
 Alpha  occ. eigenvalues --  -10.19111  -1.13226  -1.07093  -1.05212  -1.02463
 Alpha  occ. eigenvalues --   -0.96198  -0.90379  -0.88053  -0.82925  -0.78140
 Alpha  occ. eigenvalues --   -0.75194  -0.69700  -0.65920  -0.64202  -0.62366
 Alpha  occ. eigenvalues --   -0.61457  -0.60186  -0.57349  -0.54632  -0.54554
 Alpha  occ. eigenvalues --   -0.52611  -0.50064  -0.48633  -0.47629  -0.46866
 Alpha  occ. eigenvalues --   -0.46428  -0.44854  -0.44650  -0.43774  -0.43098
 Alpha  occ. eigenvalues --   -0.42749  -0.41991  -0.41821  -0.41010  -0.40140
 Alpha  occ. eigenvalues --   -0.38729  -0.36647  -0.34825  -0.31010  -0.29841
 Alpha  occ. eigenvalues --   -0.29219  -0.28960  -0.27796  -0.25690  -0.23970
 Alpha virt. eigenvalues --   -0.03780  -0.02641  -0.02175  -0.01495  -0.00834
 Alpha virt. eigenvalues --    0.00121   0.00567   0.00893   0.01272   0.01873
 Alpha virt. eigenvalues --    0.02897   0.03287   0.03429   0.03951   0.04418

 Mulliken charges:
               1
     1  O   -0.281826
     2  C   -0.240491
     3  N   -0.065178
     4  C    0.198490
     5  C   -0.066261
     6  O   -0.107076
     7  O   -0.222195
     8  C   -1.014091
     9  C    0.354193
    10  C   -0.326931
    11  N   -0.111881
    12  C   -0.031071
    13  N   -0.056556
    14  C   -0.152327
    15  C   -0.629123
    16  N   -0.299195
    17  H    0.342433
    18  H    0.225886
    19  H    0.260256
    20  H    0.141679
    21  H    0.266468
    22  H    0.135913
    23  H    0.159842
    24  H    0.317636
    25  H    0.127545
    26  H    0.197461
    27  H    0.213701
    28  H    0.200845
    29  H    0.232056
    30  H    0.229799
 Sum of Mulliken charges =   0.00000

 Dipole moment (field-independent basis, Debye):
    X=              0.9890    Y=             -0.0993    Z=              1.6182  Tot=              1.8991
 Quadrupole moment (field-independent basis, Debye-Ang):
   XX=            -91.0765   YY=           -123.6685   ZZ=            -91.3385
   XY=             18.1138   XZ=              1.1425   YZ=             -2.9847

  Exact polarizability: 147.727   0.218 158.711 -15.705 -13.430 125.047
 Approx polarizability: 204.467  -2.533 215.798 -18.209  -3.364 208.373

                      1                      2                      3
                      A                      A                      A
 Frequencies --     17.6866                27.4427                45.2798
 Red. masses --      4.2857                 5.3849                 4.0879
 Frc consts  --      0.0008                 0.0024                 0.0049
 IR Inten    --      0.6113                 3.4988                 9.4683

                      4                      5                      6
                      A                      A                      A
 Frequencies --     61.3131                74.7650                88.8076
 Red. masses --      4.7153                 5.1761                 4.9735
 Frc consts  --      0.0104                 0.0170                 0.0231
 IR Inten    --      3.5523                 7.7965                 1.3530

                      7                      8                      9
                      A                      A                      A
 Frequencies --     91.0123               123.9107               160.9514
 Red. masses --      2.3805                 5.2437                 5.2137
 Frc consts  --      0.0116                 0.0474                 0.0796
 IR Inten    --      1.3086                 9.2475                11.7257

                     10                     11                     12
                      A                      A                      A
 Frequencies --    200.5825               208.1796               283.0379
 Red. masses --      5.7045                 5.4393                 1.6561
 Frc consts  --      0.1352                 0.1389                 0.0782
 IR Inten    --      7.0641                10.2340                35.6095

                     13                     14                     15
                      A                      A                      A
 Frequencies --    288.4914               328.7268               345.0839
 Red. masses --      2.0696                 4.1753                 2.4522
 Frc consts  --      0.1015                 0.2658                 0.1721
 IR Inten    --     10.5613                 1.3892                 8.8226

                     16                     17                     18
                      A                      A                      A
 Frequencies --    347.3284               402.6207               408.4677
 Red. masses --      4.9430                 3.3716                 2.6594
 Frc consts  --      0.3513                 0.3220                 0.2614
 IR Inten    --     16.8396                12.6735                30.0244

                     19                     20                     21
                      A                      A                      A
 Frequencies --    474.1344               496.5127               521.3157
 Red. masses --      1.3527                 1.3693                 3.9768
 Frc consts  --      0.1792                 0.1989                 0.6368
 IR Inten    --     50.6777                55.9332                 5.8727

                     22                     23                     24
                      A                      A                      A
 Frequencies --    598.7711               630.3495               667.5193
 Red. masses --      3.9117                 2.5565                 4.1489
 Frc consts  --      0.8263                 0.5985                 1.0892
 IR Inten    --     17.4825                53.9695                14.0691

                     25                     26                     27
                      A                      A                      A
 Frequencies --    675.5253               712.5440               717.1924
 Red. masses --      3.8416                 4.1049                 1.3024
 Frc consts  --      1.0329                 1.2279                 0.3947
 IR Inten    --     30.3469                 0.5949                57.2383

                     28                     29                     30
                      A                      A                      A
 Frequencies --    758.5916               772.1597               787.1667
 Red. masses --      5.1630                 1.2232                 3.1451
 Frc consts  --      1.7505                 0.4297                 1.1482
 IR Inten    --      7.7335                 2.7479                 5.5549

                     31                     32                     33
                      A                      A                      A
 Frequencies --    808.0835               813.5698               833.2438
 Red. masses --      1.4821                 1.4129                 1.6298
 Frc consts  --      0.5702                 0.5510                 0.6667
 IR Inten    --    215.4718                26.5193                19.6826

                     34                     35                     36
                      A                      A                      A
 Frequencies --    861.0341               924.0048               937.1457
 Red. masses --      3.0703                 2.6589                 4.3175
 Frc consts  --      1.3411                 1.3375                 2.2341
 IR Inten    --      2.9942                 5.0746                 8.6733

                     37                     38                     39
                      A                      A                      A
 Frequencies --    950.1482               981.9814              1016.4040
 Red. masses --      4.8374                 1.4014                 4.7242
 Frc consts  --      2.5730                 0.7962                 2.8755
 IR Inten    --     10.2007                 0.8117                47.6262

                     40                     41                     42
                      A                      A                      A
 Frequencies --   1030.2632              1040.1704              1095.5680
 Red. masses --      3.4727                 3.1048                 2.3690
 Frc consts  --      2.1717                 1.9792                 1.6753
 IR Inten    --     22.3108                 6.7029                27.6434

                     43                     44                     45
                      A                      A                      A
 Frequencies --   1108.4232              1118.5145              1144.2723
 Red. masses --      2.3104                 1.5826                 2.1221
 Frc consts  --      1.6724                 1.1665                 1.6371
 IR Inten    --     11.1683                24.6316                11.7122

                     46                     47                     48
                      A                      A                      A
 Frequencies --   1146.9543              1172.6612              1204.9112
 Red. masses --      2.2146                 2.2476                 1.4641
 Frc consts  --      1.7164                 1.8210                 1.2524
 IR Inten    --     32.4885                 1.3857                 6.3620

                     49                     50                     51
                      A                      A                      A
 Frequencies --   1253.6709              1263.1472              1274.2174
 Red. masses --      1.7270                 2.1344                 1.4693
 Frc consts  --      1.5992                 2.0065                 1.4056
 IR Inten    --    130.0577                19.0638                21.3845

                     52                     53                     54
                      A                      A                      A
 Frequencies --   1293.2082              1293.4337              1304.5736
 Red. masses --      1.5996                 1.3125                 1.4627
 Frc consts  --      1.5762                 1.2937                 1.4667
 IR Inten    --    261.8424                11.4696                96.1718

                     55                     56                     57
                      A                      A                      A
 Frequencies --   1344.5032              1359.3636              1383.5406
 Red. masses --      1.4793                 1.4635                 1.2460
 Frc consts  --      1.5756                 1.5934                 1.4052
 IR Inten    --     17.5779                18.9971                25.5844

                     58                     59                     60
                      A                      A                      A
 Frequencies --   1386.1486              1392.9138              1404.2671
 Red. masses --      1.4623                 1.2025                 2.6226
 Frc consts  --      1.6554                 1.3746                 3.0470
 IR Inten    --     16.6268                11.3277                15.3271

                     61                     62                     63
                      A                      A                      A
 Frequencies --   1433.5963              1478.2398              1481.2433
 Red. masses --      2.9736                 1.1255                 1.1338
 Frc consts  --      3.6007                 1.4491                 1.4657
 IR Inten    --     22.2736                 5.2837                15.1502

                     64                     65                     66
                      A                      A                      A
 Frequencies --   1494.9170              1505.9518              1549.4849
 Red. masses --      3.3324                 1.0933                 1.8791
 Frc consts  --      4.3878                 1.4608                 2.6581
 IR Inten    --     30.2414                 4.5089               197.8314

                     67                     68                     69
                      A                      A                      A
 Frequencies --   1606.5028              1665.2234              1720.0882
 Red. masses --      4.4345                 1.0920                 7.8030
 Frc consts  --      6.7431                 1.7841                13.6024
 IR Inten    --      7.9948                33.3331               180.1443

                     70                     71                     72
                      A                      A                      A
 Frequencies --   1849.6464              3020.0060              3032.2536
 Red. masses --     11.0497                 1.0697                 1.0592
 Frc consts  --     22.2730                 5.7479                 5.7381
 IR Inten    --    281.0056                36.8343                 4.8737

                     73                     74                     75
                      A                      A                      A
 Frequencies --   3039.2886              3047.1102              3073.5720
 Red. masses --      1.0642                 1.0825                 1.0990
 Frc consts  --      5.7916                 5.9217                 6.1169
 IR Inten    --     35.8424                11.5665                 1.0535

                     76                     77                     78
                      A                      A                      A
 Frequencies --   3095.5616              3107.2895              3227.5671
 Red. masses --      1.1060                 1.0941                 1.0966
 Frc consts  --      6.2446                 6.2240                 6.7304
 IR Inten    --     24.5411                 2.8716                 6.6845

                     79                     80                     81
                      A                      A                      A
 Frequencies --   3243.9413              3505.1266              3586.0484
 Red. masses --      1.0982                 1.0483                 1.0946
 Frc consts  --      6.8092                 7.5880                 8.2934
 IR Inten    --      1.1048                 0.9796                 3.4687

                     82                     83                     84
                      A                      A                      A
 Frequencies --   3588.5206              3643.8066              3807.0767
 Red. masses --      1.0828                 1.0779                 1.0658
 Frc consts  --      8.2152                 8.4325                 9.1014
 IR Inten    --    129.8395                35.9105                63.1829

 - Thermochemistry -
 -------------------
 Temperature   298.150 Kelvin.  Pressure   1.00000 Atm.
 Atom     1 has atomic number  8 and mass  15.99491

 Molecular mass:   226.10659 amu.
 Principal axes and moments of inertia in atomic units:
                           1         2         3
     Eigenvalues --  3290.800493986.141366656.86530
           X            0.31008   0.91179   0.26925
           Y            0.88098  -0.38204   0.27914
           Z           -0.35738  -0.15065   0.92173
 This molecule is an asymmetric top.
 Rotational symmetry number  1.
 Warning -- assumption of classical behavior for rotation
           may cause significant error
 Rotational temperatures (Kelvin)      0.02632     0.02173     0.01301
 Rotational constants (GHZ):           0.54842     0.45275     0.27111
 Zero-point vibrational energy     641544.6 (Joules/Mol)
                                  153.33283 (Kcal/Mol)
 Warning -- explicit consideration of  22 degrees of freedom as
           vibrations may cause significant error
 Vibrational temperatures:     25.45    39.48    65.15    88.22   107.57
          (Kelvin)            127.77   130.95   178.28   231.57   288.59
                              299.52   407.23   415.07   472.96   496.50
                              499.73   579.28   587.69   682.17   714.37
                              750.06   861.50   906.93   960.41   971.93
                             1025.19  1031.88  1091.44  1110.96  1132.56
                             1162.65  1170.54  1198.85  1238.83  1329.44
                             1348.34  1367.05  1412.85  1462.38  1482.32
                             1496.57  1576.28  1594.77  1609.29  1646.35
                             1650.21  1687.20  1733.60  1803.75  1817.38
                             1833.31  1860.64  1860.96  1876.99  1934.44
                             1955.82  1990.60  1994.36  2004.09  2020.42
                             2062.62  2126.85  2131.18  2150.85  2166.73
                             2229.36  2311.40  2395.88  2474.82  2661.23
                             4345.11  4362.73  4372.85  4384.11  4422.18
                             4453.82  4470.69  4643.74  4667.30  5043.09
                             5159.52  5163.07  5242.62  5477.53

 Zero-point correction=                           0.244351 (Hartree/Particle)
 Thermal correction to Energy=                    0.260523
 Thermal correction to Enthalpy=                  0.261467
 Thermal correction to Gibbs Free Energy=         0.197823
 Sum of electronic and zero-point Energies=           -796.132286
 Sum of electronic and thermal Energies=              -796.116114
 Sum of electronic and thermal Enthalpies=            -796.115170
 Sum of electronic and thermal Free Energies=         -796.178814

                     E (Thermal)             CV                S
                      KCal/Mol        Cal/Mol-Kelvin    Cal/Mol-Kelvin
 Total                  163.481             58.777            133.950
 Electronic               0.000              0.000              0.000
 Translational            0.889              2.981             42.150
 Rotational               0.889              2.981             32.835
 Vibrational            161.703             52.816             58.965
 Vibration     1          0.593              1.986              6.878
 Vibration     2          0.593              1.984              6.006
 Vibration     3          0.595              1.979              5.014
 Vibration     4          0.597              1.973              4.414
 Vibration     5          0.599              1.966              4.024
 Vibration     6          0.602              1.957              3.686
 Vibration     7          0.602              1.956              3.638
 Vibration     8          0.610              1.929              3.038
 Vibration     9          0.622              1.890              2.539
 Vibration    10          0.638              1.839              2.128
 Vibration    11          0.641              1.828              2.060
 Vibration    12          0.682              1.705              1.515
 Vibration    13          0.685              1.695              1.483
 Vibration    14          0.712              1.618              1.266
 Vibration    15          0.723              1.585              1.189
 Vibration    16          0.725              1.581              1.178
 Vibration    17          0.768              1.464              0.953
 Vibration    18          0.773              1.452              0.932
 Vibration    19          0.831              1.307              0.726
 Vibration    20          0.852              1.258              0.667
 Vibration    21          0.876              1.203              0.607
 Vibration    22          0.957              1.034              0.452

 Normal termination of Gaussian 09 at Sat Jul 24 04:29:17 2021.
