 Gaussian 09, Revision D.01,
 Gaussian 09:  ES64L-G09RevD.01 24-Apr-2013

 ----------------------------------------------------------------------
 # B3LYP/6-311++G(d,p) EmpiricalDispersion=GD3BJ opt=calcfc freq=norama
 n nosymm integral(ultrafinegrid)
 ----------------------------------------------------------------------

 ------------------------------------------------------------
 Candidate Structure: Conf:295 OPT and FREQ calc in gas phase
 ------------------------------------------------------------
 Symbolic Z-matrix:
 Charge =  0 Multiplicity = 1

 SCF Done:  E(RB3LYP) =  -796.382737020     A.U. after   15 cycles
 SCF Done:  E(RB3LYP) =  -796.385796945     A.U. after   14 cycles
 SCF Done:  E(RB3LYP) =  -796.385702436     A.U. after   14 cycles
 SCF Done:  E(RB3LYP) =  -796.386023207     A.U. after   12 cycles
 SCF Done:  E(RB3LYP) =  -796.386382149     A.U. after   12 cycles
 SCF Done:  E(RB3LYP) =  -796.386633905     A.U. after   13 cycles
 SCF Done:  E(RB3LYP) =  -796.386768777     A.U. after   13 cycles
 SCF Done:  E(RB3LYP) =  -796.386859048     A.U. after   13 cycles
 SCF Done:  E(RB3LYP) =  -796.386851788     A.U. after   12 cycles
 SCF Done:  E(RB3LYP) =  -796.386893769     A.U. after   12 cycles
 SCF Done:  E(RB3LYP) =  -796.386900940     A.U. after   12 cycles
 SCF Done:  E(RB3LYP) =  -796.386901489     A.U. after   11 cycles
 SCF Done:  E(RB3LYP) =  -796.386901547     A.U. after    9 cycles
 Optimization completed.
    -- Stationary point found.
 Normal termination of Gaussian 09 at Sat Jul 24 03:33:13 2021.

 ----------------------------------------------------------------------
 #N Geom=AllCheck Guess=TCheck SCRF=Check GenChk RB3LYP/6-311++G(d,p) F
 req
 ----------------------------------------------------------------------

 Structure from the checkpoint file:  "conf-295.chk"
 ------------------------------------------------------------
 Candidate Structure: Conf:295 OPT and FREQ calc in gas phase
 ------------------------------------------------------------
 Charge =  0 Multiplicity = 1

                          Input orientation:
 ---------------------------------------------------------------------
 Center     Atomic      Atomic             Coordinates (Angstroms)
 Number     Number       Type             X           Y           Z
 ---------------------------------------------------------------------
      1          8           0        1.316167    1.036432   -0.589166
      2          6           0        1.746742    0.129622    0.111337
      3          7           0        0.928591   -0.585495    0.934534
      4          6           0       -0.471915   -0.246891    1.080649
      5          6           0       -0.947990   -0.883417    2.371440
      6          8           0       -2.233528   -0.572398    2.671408
      7          8           0       -0.289147   -1.611093    3.070094
      8          6           0       -1.319639   -0.708550   -0.151315
      9          6           0       -2.467517    0.171439   -0.510910
     10          6           0       -2.686672    0.941459   -1.627882
     11          7           0       -3.902245    1.584805   -1.551493
     12          6           0       -4.419306    1.219932   -0.400642
     13          7           0       -3.596465    0.356540    0.267159
     14          6           0        3.211156   -0.283874    0.137352
     15          6           0        4.010313    0.341598   -1.002431
     16          7           0        3.503657   -0.125163   -2.296414
     17          1           0        1.305492   -1.281423    1.562291
     18          1           0       -0.574807    0.839628    1.163443
     19          1           0       -2.448018   -1.029003    3.499790
     20          1           0       -0.637256   -0.702067   -0.999602
     21          1           0       -1.636823   -1.747146   -0.004681
     22          1           0       -2.031161    1.064961   -2.475761
     23          1           0       -5.369382    1.540447   -0.001444
     24          1           0       -3.715759   -0.004037    1.200709
     25          1           0        3.630457    0.021292    1.103563
     26          1           0        3.277517   -1.374608    0.080122
     27          1           0        5.051461    0.022873   -0.905233
     28          1           0        3.988020    1.434418   -0.894718
     29          1           0        2.626335    0.343397   -2.500112
     30          1           0        4.151739    0.106325   -3.040846
 ---------------------------------------------------------------------

 SCF Done:  E(RB3LYP) =  -796.386901547     A.U. after    1 cycles

 Alpha  occ. eigenvalues --  -19.21746 -19.15967 -19.10332 -14.36669 -14.35490
 Alpha  occ. eigenvalues --  -14.29128 -14.29053 -10.34928 -10.28677 -10.25569
 Alpha  occ. eigenvalues --  -10.22370 -10.20715 -10.20567 -10.19910 -10.18699
 Alpha  occ. eigenvalues --  -10.18000  -1.15925  -1.07061  -1.05735  -1.01688
 Alpha  occ. eigenvalues --   -0.94994  -0.88469  -0.87330  -0.82084  -0.77160
 Alpha  occ. eigenvalues --   -0.74981  -0.69628  -0.66519  -0.62164  -0.61554
 Alpha  occ. eigenvalues --   -0.60677  -0.59217  -0.55333  -0.53705  -0.53295
 Alpha  occ. eigenvalues --   -0.50967  -0.50845  -0.49319  -0.48983  -0.47215
 Alpha  occ. eigenvalues --   -0.46631  -0.45146  -0.43995  -0.43184  -0.42510
 Alpha  occ. eigenvalues --   -0.41183  -0.40959  -0.40295  -0.40006  -0.38346
 Alpha  occ. eigenvalues --   -0.37380  -0.37114  -0.36468  -0.32809  -0.28650
 Alpha  occ. eigenvalues --   -0.28258  -0.27383  -0.27036  -0.24448  -0.23008
 Alpha virt. eigenvalues --   -0.04336  -0.03295  -0.01130  -0.00526   0.00185
 Alpha virt. eigenvalues --    0.00410   0.00758   0.01140   0.01743   0.02323
 Alpha virt. eigenvalues --    0.03178   0.03450   0.03864   0.04395   0.04489

 Mulliken charges:
               1
     1  O   -0.319405
     2  C   -0.263091
     3  N   -0.003849
     4  C   -0.215476
     5  C    0.008632
     6  O   -0.209362
     7  O   -0.256578
     8  C   -0.276605
     9  C    0.069618
    10  C   -0.351294
    11  N   -0.142443
    12  C    0.047247
    13  N   -0.148219
    14  C   -0.117886
    15  C   -0.583476
    16  N   -0.378532
    17  H    0.305800
    18  H    0.299407
    19  H    0.313436
    20  H    0.251898
    21  H    0.192719
    22  H    0.147355
    23  H    0.157229
    24  H    0.333609
    25  H    0.169751
    26  H    0.170200
    27  H    0.165579
    28  H    0.159324
    29  H    0.229684
    30  H    0.244728
 Sum of Mulliken charges =   0.00000

 Dipole moment (field-independent basis, Debye):
    X=              0.7614    Y=             -2.4589    Z=              4.7104  Tot=              5.3678
 Quadrupole moment (field-independent basis, Debye-Ang):
   XX=            -87.0580   YY=           -104.5011   ZZ=            -93.5796
   XY=             10.6453   XZ=            -19.1134   YZ=              3.1798

  Exact polarizability: 172.452 -15.575 120.367  -5.637 -21.772 144.363
 Approx polarizability: 217.085 -24.759 193.357  -3.940 -36.950 212.969

                      1                      2                      3
                      A                      A                      A
 Frequencies --      9.7945                28.8954                33.9814
 Red. masses --      3.5914                 4.6407                 7.3223
 Frc consts  --      0.0002                 0.0023                 0.0050
 IR Inten    --      2.0998                 1.2617                 1.0375

                      4                      5                      6
                      A                      A                      A
 Frequencies --     45.3414                66.7054                74.9012
 Red. masses --      4.3709                 8.4035                 5.3460
 Frc consts  --      0.0053                 0.0220                 0.0177
 IR Inten    --      1.8804                 2.2232                 3.2622

                      7                      8                      9
                      A                      A                      A
 Frequencies --    127.0943               132.3974               150.7307
 Red. masses --      5.4446                 4.7620                 3.7410
 Frc consts  --      0.0518                 0.0492                 0.0501
 IR Inten    --      4.4944                 4.9818                 3.6711

                     10                     11                     12
                      A                      A                      A
 Frequencies --    193.6695               241.3036               279.2799
 Red. masses --      4.7562                 2.7202                 5.3507
 Frc consts  --      0.1051                 0.0933                 0.2459
 IR Inten    --      0.9209                29.2909                 1.6405

                     13                     14                     15
                      A                      A                      A
 Frequencies --    303.5786               312.7534               328.9620
 Red. masses --      2.4757                 1.2359                 3.6215
 Frc consts  --      0.1344                 0.0712                 0.2309
 IR Inten    --      8.9348                44.5967                 1.4323

                     16                     17                     18
                      A                      A                      A
 Frequencies --    344.8583               382.2770               430.0550
 Red. masses --      4.8694                 4.1776                 2.7271
 Frc consts  --      0.3412                 0.3597                 0.2972
 IR Inten    --      7.7613                 5.7537                35.9876

                     19                     20                     21
                      A                      A                      A
 Frequencies --    486.2159               561.3225               568.0977
 Red. masses --      1.2783                 2.0813                 1.9753
 Frc consts  --      0.1781                 0.3864                 0.3756
 IR Inten    --     70.4740                24.5598                37.6174

                     22                     23                     24
                      A                      A                      A
 Frequencies --    593.2063               615.8339               630.7658
 Red. masses --      1.7704                 2.1451                 3.6934
 Frc consts  --      0.3671                 0.4793                 0.8658
 IR Inten    --     47.0471                 1.8579                41.0988

                     25                     26                     27
                      A                      A                      A
 Frequencies --    663.6508               677.0384               682.0006
 Red. masses --      2.3270                 3.0909                 2.2011
 Frc consts  --      0.6038                 0.8348                 0.6032
 IR Inten    --     93.7907                 5.0779                 1.2043

                     28                     29                     30
                      A                      A                      A
 Frequencies --    736.8471               773.4281               804.0539
 Red. masses --      3.3663                 4.0239                 1.4216
 Frc consts  --      1.0768                 1.4182                 0.5415
 IR Inten    --     20.3030                 4.7090                21.7483

                     31                     32                     33
                      A                      A                      A
 Frequencies --    816.0239               849.3931               861.4183
 Red. masses --      2.7127                 1.4280                 1.5111
 Frc consts  --      1.0643                 0.6070                 0.6606
 IR Inten    --     10.5681                15.6218                99.4309

                     34                     35                     36
                      A                      A                      A
 Frequencies --    885.5892               902.9055               942.4184
 Red. masses --      1.9004                 2.1623                 5.4732
 Frc consts  --      0.8781                 1.0386                 2.8640
 IR Inten    --      9.2002                23.7955                12.2915

                     37                     38                     39
                      A                      A                      A
 Frequencies --    956.8123              1005.7808              1015.3033
 Red. masses --      2.3378                 4.8198                 3.1988
 Frc consts  --      1.2610                 2.8727                 1.9428
 IR Inten    --      7.9404                 5.0310                12.4401

                     40                     41                     42
                      A                      A                      A
 Frequencies --   1032.3279              1061.0629              1099.1075
 Red. masses --      3.4845                 2.4903                 3.3108
 Frc consts  --      2.1879                 1.6519                 2.3565
 IR Inten    --     11.0253                14.7040                48.0617

                     43                     44                     45
                      A                      A                      A
 Frequencies --   1114.4801              1121.6829              1143.8490
 Red. masses --      1.5820                 1.8228                 2.1744
 Frc consts  --      1.1577                 1.3512                 1.6762
 IR Inten    --     28.7142                27.6898                20.5757

                     46                     47                     48
                      A                      A                      A
 Frequencies --   1162.5209              1185.9668              1192.7560
 Red. masses --      1.7880                 2.2022                 1.4076
 Frc consts  --      1.4237                 1.8250                 1.1799
 IR Inten    --    164.7987                54.9084                15.9478

                     49                     50                     51
                      A                      A                      A
 Frequencies --   1234.7732              1241.3881              1259.7361
 Red. masses --      1.3684                 1.4497                 2.2917
 Frc consts  --      1.2292                 1.3163                 2.1428
 IR Inten    --     21.6511                17.8974                17.2496

                     52                     53                     54
                      A                      A                      A
 Frequencies --   1272.3947              1304.2895              1323.1863
 Red. masses --      1.4575                 1.3822                 1.2340
 Frc consts  --      1.3903                 1.3854                 1.2729
 IR Inten    --      7.5321                 7.1143                 3.2196

                     55                     56                     57
                      A                      A                      A
 Frequencies --   1349.3190              1355.0653              1376.6427
 Red. masses --      1.2692                 1.5998                 1.5028
 Frc consts  --      1.3615                 1.7308                 1.6780
 IR Inten    --      7.0810                45.6777                18.7522

                     58                     59                     60
                      A                      A                      A
 Frequencies --   1390.3813              1412.0070              1424.1318
 Red. masses --      2.7314                 2.2020                 1.3983
 Frc consts  --      3.1110                 2.5866                 1.6709
 IR Inten    --     23.8927                64.0151                12.8304

                     61                     62                     63
                      A                      A                      A
 Frequencies --   1427.0634              1449.7730              1472.4814
 Red. masses --      2.6195                 1.1098                 1.1619
 Frc consts  --      3.1430                 1.3743                 1.4843
 IR Inten    --     31.4895                20.2862                23.1922

                     64                     65                     66
                      A                      A                      A
 Frequencies --   1498.2816              1499.6604              1530.4953
 Red. masses --      3.1738                 1.0878                 2.1519
 Frc consts  --      4.1978                 1.4414                 2.9699
 IR Inten    --     23.6407                 3.5220               323.9197

                     67                     68                     69
                      A                      A                      A
 Frequencies --   1607.7190              1653.6641              1731.7486
 Red. masses --      4.4364                 1.1295                 7.0249
 Frc consts  --      6.7562                 1.8198                12.4126
 IR Inten    --      5.2885                81.7483               174.8652

                     70                     71                     72
                      A                      A                      A
 Frequencies --   1810.8250              2987.4843              3022.5410
 Red. masses --      9.4965                 1.0704                 1.0718
 Frc consts  --     18.3471                 5.6286                 5.7690
 IR Inten    --    328.3302                54.4120                25.5138

                     73                     74                     75
                      A                      A                      A
 Frequencies --   3023.1940              3050.6017              3062.9138
 Red. masses --      1.0622                 1.0827                 1.0922
 Frc consts  --      5.7199                 5.9364                 6.0373
 IR Inten    --     15.1532                11.5743                31.8439

                     76                     77                     78
                      A                      A                      A
 Frequencies --   3071.3402              3123.9417              3238.3194
 Red. masses --      1.0991                 1.0915                 1.0948
 Frc consts  --      6.1089                 6.2757                 6.7641
 IR Inten    --     20.1220                 1.4447                 5.3953

                     79                     80                     81
                      A                      A                      A
 Frequencies --   3242.1247              3507.0937              3585.0372
 Red. masses --      1.1001                 1.0496                 1.0933
 Frc consts  --      6.8133                 7.6059                 8.2789
 IR Inten    --      1.1482                 5.3624                 8.2050

                     82                     83                     84
                      A                      A                      A
 Frequencies --   3605.4263              3651.2974              3749.0338
 Red. masses --      1.0779                 1.0810                 1.0644
 Frc consts  --      8.2557                 8.4909                 8.8147
 IR Inten    --     71.4027               117.4344                96.9451

 - Thermochemistry -
 -------------------
 Temperature   298.150 Kelvin.  Pressure   1.00000 Atm.
 Atom     1 has atomic number  8 and mass  15.99491

 Molecular mass:   226.10659 amu.
 Principal axes and moments of inertia in atomic units:
                           1         2         3
     Eigenvalues --  2487.933885908.009538052.44475
           X            0.98967   0.07607   0.12155
           Y           -0.07758  -0.42887   0.90003
           Z           -0.12060   0.90016   0.41853
 This molecule is an asymmetric top.
 Rotational symmetry number  1.
 Warning -- assumption of classical behavior for rotation
           may cause significant error
 Rotational temperatures (Kelvin)      0.03481     0.01466     0.01076
 Rotational constants (GHZ):           0.72540     0.30547     0.22412
 Zero-point vibrational energy     641041.8 (Joules/Mol)
                                  153.21266 (Kcal/Mol)
 Warning -- explicit consideration of  23 degrees of freedom as
           vibrations may cause significant error
 Vibrational temperatures:     14.09    41.57    48.89    65.24    95.97
          (Kelvin)            107.77   182.86   190.49   216.87   278.65
                              347.18   401.82   436.78   449.98   473.30
                              496.17   550.01   618.75   699.56   807.62
                              817.36   853.49   886.05   907.53   954.84
                              974.11   981.25  1060.16  1112.79  1156.85
                             1174.07  1222.09  1239.39  1274.16  1299.08
                             1355.93  1376.64  1447.09  1460.79  1485.29
                             1526.63  1581.37  1603.49  1613.85  1645.74
                             1672.61  1706.34  1716.11  1776.56  1786.08
                             1812.48  1830.69  1876.58  1903.77  1941.37
                             1949.63  1980.68  2000.45  2031.56  2049.01
                             2053.22  2085.90  2118.57  2155.69  2157.67
                             2202.04  2313.15  2379.25  2491.60  2605.37
                             4298.32  4348.76  4349.70  4389.13  4406.84
                             4418.97  4494.65  4659.21  4664.69  5045.92
                             5158.06  5187.40  5253.40  5394.02

 Zero-point correction=                           0.244160 (Hartree/Particle)
 Thermal correction to Energy=                    0.260322
 Thermal correction to Enthalpy=                  0.261266
 Thermal correction to Gibbs Free Energy=         0.196580
 Sum of electronic and zero-point Energies=           -796.142742
 Sum of electronic and thermal Energies=              -796.126579
 Sum of electronic and thermal Enthalpies=            -796.125635
 Sum of electronic and thermal Free Energies=         -796.190321

                     E (Thermal)             CV                S
                      KCal/Mol        Cal/Mol-Kelvin    Cal/Mol-Kelvin
 Total                  163.355             58.622            136.144
 Electronic               0.000              0.000              0.000
 Translational            0.889              2.981             42.150
 Rotational               0.889              2.981             33.137
 Vibrational            161.577             52.660             60.857
 Vibration     1          0.593              1.987              8.052
 Vibration     2          0.593              1.984              5.904
 Vibration     3          0.594              1.983              5.582
 Vibration     4          0.595              1.979              5.011
 Vibration     5          0.598              1.970              4.248
 Vibration     6          0.599              1.966              4.020
 Vibration     7          0.611              1.926              2.990
 Vibration     8          0.613              1.921              2.911
 Vibration     9          0.618              1.902              2.663
 Vibration    10          0.635              1.849              2.192
 Vibration    11          0.658              1.777              1.793
 Vibration    12          0.680              1.712              1.538
 Vibration    13          0.695              1.667              1.397
 Vibration    14          0.701              1.649              1.348
 Vibration    15          0.712              1.618              1.265
 Vibration    16          0.723              1.586              1.190
 Vibration    17          0.752              1.508              1.030
 Vibration    18          0.791              1.405              0.858
 Vibration    19          0.842              1.281              0.693
 Vibration    20          0.917              1.115              0.521
 Vibration    21          0.924              1.100              0.508
 Vibration    22          0.951              1.046              0.461
 Vibration    23          0.975              0.998              0.423

 Normal termination of Gaussian 09 at Sat Jul 24 04:42:42 2021.
