 Gaussian 09, Revision D.01,
 Gaussian 09:  ES64L-G09RevD.01 24-Apr-2013

 ----------------------------------------------------------------------
 # B3LYP/6-311++G(d,p) EmpiricalDispersion=GD3BJ opt=calcfc freq=norama
 n nosymm integral(ultrafinegrid)
 ----------------------------------------------------------------------

 ------------------------------------------------------------
 Candidate Structure: Conf:338 OPT and FREQ calc in gas phase
 ------------------------------------------------------------
 Symbolic Z-matrix:
 Charge =  0 Multiplicity = 1

 SCF Done:  E(RB3LYP) =  -796.389761213     A.U. after   15 cycles
 SCF Done:  E(RB3LYP) =  -796.391615915     A.U. after   15 cycles
 SCF Done:  E(RB3LYP) =  -796.391613007     A.U. after   14 cycles
 SCF Done:  E(RB3LYP) =  -796.391869429     A.U. after   15 cycles
 SCF Done:  E(RB3LYP) =  -796.391941012     A.U. after   13 cycles
 SCF Done:  E(RB3LYP) =  -796.392058064     A.U. after   15 cycles
 SCF Done:  E(RB3LYP) =  -796.385970022     A.U. after   16 cycles
 SCF Done:  E(RB3LYP) =  -796.392059988     A.U. after   10 cycles
 SCF Done:  E(RB3LYP) =  -796.380646363     A.U. after   16 cycles
 SCF Done:  E(RB3LYP) =  -796.392061355     A.U. after   10 cycles
 SCF Done:  E(RB3LYP) =  -796.396096362     A.U. after   13 cycles
 SCF Done:  E(RB3LYP) =  -796.396770288     A.U. after   12 cycles
 SCF Done:  E(RB3LYP) =  -796.396751032     A.U. after   13 cycles
 SCF Done:  E(RB3LYP) =  -796.396868778     A.U. after   12 cycles
 SCF Done:  E(RB3LYP) =  -796.396911920     A.U. after   11 cycles
 SCF Done:  E(RB3LYP) =  -796.396929900     A.U. after   11 cycles
 SCF Done:  E(RB3LYP) =  -796.396931078     A.U. after   11 cycles
 SCF Done:  E(RB3LYP) =  -796.396931427     A.U. after   10 cycles
 SCF Done:  E(RB3LYP) =  -796.396931481     A.U. after    8 cycles
 Optimization completed.
    -- Stationary point found.
 Normal termination of Gaussian 09 at Sat Jul 24 04:16:02 2021.

 ----------------------------------------------------------------------
 #N Geom=AllCheck Guess=TCheck SCRF=Check GenChk RB3LYP/6-311++G(d,p) F
 req
 ----------------------------------------------------------------------

 Structure from the checkpoint file:  "conf-338.chk"
 ------------------------------------------------------------
 Candidate Structure: Conf:338 OPT and FREQ calc in gas phase
 ------------------------------------------------------------
 Charge =  0 Multiplicity = 1

                          Input orientation:
 ---------------------------------------------------------------------
 Center     Atomic      Atomic             Coordinates (Angstroms)
 Number     Number       Type             X           Y           Z
 ---------------------------------------------------------------------
      1          8           0        0.573792    0.529529    1.736435
      2          6           0        1.293649    0.054962    0.853836
      3          7           0        0.804768   -0.591461   -0.224689
      4          6           0       -0.617772   -0.782196   -0.414840
      5          6           0       -0.815639   -1.869016   -1.449861
      6          8           0       -2.100064   -2.275546   -1.486120
      7          8           0        0.040597   -2.307372   -2.177183
      8          6           0       -1.372463    0.529598   -0.853868
      9          6           0       -2.436568    0.957819    0.093978
     10          6           0       -3.787033    1.170872   -0.051383
     11          7           0       -4.346448    1.571653    1.142052
     12          6           0       -3.349538    1.595785    2.002181
     13          7           0       -2.170508    1.236857    1.419154
     14          6           0        2.810830    0.157796    0.952271
     15          6           0        3.568671    0.352871   -0.365481
     16          7           0        3.448257   -0.832112   -1.228202
     17          1           0        1.468102   -0.969477   -0.906611
     18          1           0       -1.061148   -1.126046    0.521969
     19          1           0       -2.178676   -2.938303   -2.188756
     20          1           0       -1.823718    0.395741   -1.838255
     21          1           0       -0.608249    1.304757   -0.958872
     22          1           0       -4.381005    1.057447   -0.945375
     23          1           0       -3.422833    1.861898    3.045389
     24          1           0       -1.249289    1.122944    1.838740
     25          1           0        3.016198    0.988900    1.628179
     26          1           0        3.171632   -0.748806    1.453875
     27          1           0        3.141666    1.201892   -0.906898
     28          1           0        4.609436    0.613161   -0.132110
     29          1           0        3.977918   -1.613702   -0.854451
     30          1           0        3.795374   -0.650401   -2.163326
 ---------------------------------------------------------------------

 SCF Done:  E(RB3LYP) =  -796.396931481     A.U. after    2 cycles

 Alpha  occ. eigenvalues --  -19.19483 -19.14092 -19.10632 -14.34775 -14.34609
 Alpha  occ. eigenvalues --  -14.32807 -14.27919 -10.33100 -10.29020 -10.24544
 Alpha  occ. eigenvalues --  -10.22657 -10.20994 -10.19977 -10.19777 -10.19458
 Alpha  occ. eigenvalues --  -10.17038  -1.13910  -1.05786  -1.05007  -1.00214
 Alpha  occ. eigenvalues --   -0.94698  -0.91636  -0.85889  -0.81314  -0.77808
 Alpha  occ. eigenvalues --   -0.74441  -0.68402  -0.66499  -0.63340  -0.60086
 Alpha  occ. eigenvalues --   -0.59603  -0.57856  -0.54783  -0.53976  -0.52812
 Alpha  occ. eigenvalues --   -0.51487  -0.49808  -0.48533  -0.48274  -0.47780
 Alpha  occ. eigenvalues --   -0.46572  -0.44654  -0.43324  -0.43137  -0.42376
 Alpha  occ. eigenvalues --   -0.41530  -0.40204  -0.39959  -0.39613  -0.39231
 Alpha  occ. eigenvalues --   -0.38707  -0.36742  -0.35257  -0.31141  -0.28580
 Alpha  occ. eigenvalues --   -0.28256  -0.27514  -0.26964  -0.25819  -0.21855
 Alpha virt. eigenvalues --   -0.02854  -0.02659  -0.01614  -0.00664  -0.00123
 Alpha virt. eigenvalues --    0.00504   0.00922   0.01758   0.02006   0.02628
 Alpha virt. eigenvalues --    0.03148   0.03617   0.03962   0.04507   0.04844

 Mulliken charges:
               1
     1  O   -0.372400
     2  C   -0.052459
     3  N   -0.042238
     4  C   -0.369295
     5  C    0.048854
     6  O   -0.104178
     7  O   -0.265131
     8  C   -0.801801
     9  C    0.624514
    10  C   -0.474052
    11  N   -0.138822
    12  C    0.027322
    13  N   -0.267412
    14  C   -0.312545
    15  C   -0.378703
    16  N   -0.450790
    17  H    0.406357
    18  H    0.295570
    19  H    0.298569
    20  H    0.216658
    21  H    0.215295
    22  H    0.123829
    23  H    0.154604
    24  H    0.431529
    25  H    0.172015
    26  H    0.204786
    27  H    0.169864
    28  H    0.167750
    29  H    0.224447
    30  H    0.247863
 Sum of Mulliken charges =   0.00000

 Dipole moment (field-independent basis, Debye):
    X=              6.9239    Y=             -2.0993    Z=             -2.5029  Tot=              7.6558
 Quadrupole moment (field-independent basis, Debye-Ang):
   XX=           -102.1000   YY=            -96.0755   ZZ=            -93.1841
   XY=             10.7610   XZ=              6.7748   YZ=             -1.6255

  Exact polarizability: 177.712 -11.591 119.440  -8.863  24.328 142.057
 Approx polarizability: 233.683 -13.190 172.254 -10.386  29.506 220.029

                      1                      2                      3
                      A                      A                      A
 Frequencies --     19.7756                46.8709                53.3349
 Red. masses --      4.6854                 6.7392                 7.7190
 Frc consts  --      0.0011                 0.0087                 0.0129
 IR Inten    --      0.5316                 1.8717                 2.7212

                      4                      5                      6
                      A                      A                      A
 Frequencies --     69.8187                76.6857                98.8882
 Red. masses --      3.4575                 4.6846                 4.4334
 Frc consts  --      0.0099                 0.0162                 0.0255
 IR Inten    --      0.3504                 0.5310                 6.7294

                      7                      8                      9
                      A                      A                      A
 Frequencies --    111.6003               124.7081               182.4661
 Red. masses --      6.3823                 6.0303                 2.6860
 Frc consts  --      0.0468                 0.0553                 0.0527
 IR Inten    --      5.6270                 4.2209                 6.0338

                     10                     11                     12
                      A                      A                      A
 Frequencies --    195.1936               237.7189               284.3409
 Red. masses --      5.1535                 3.7134                 3.9396
 Frc consts  --      0.1157                 0.1236                 0.1877
 IR Inten    --      2.9079                 5.2814                 4.2748

                     13                     14                     15
                      A                      A                      A
 Frequencies --    300.9377               305.9151               331.5393
 Red. masses --      1.3427                 3.0561                 4.2764
 Frc consts  --      0.0716                 0.1685                 0.2769
 IR Inten    --      7.7479                 6.4758                 0.3482

                     16                     17                     18
                      A                      A                      A
 Frequencies --    354.2208               413.6508               464.4068
 Red. masses --      4.3376                 3.5206                 2.5738
 Frc consts  --      0.3207                 0.3549                 0.3271
 IR Inten    --      4.0379                 7.3842                24.7093

                     19                     20                     21
                      A                      A                      A
 Frequencies --    517.3163               589.4116               613.1432
 Red. masses --      3.2376                 1.4144                 3.4931
 Frc consts  --      0.5105                 0.2895                 0.7737
 IR Inten    --     38.8141                91.6295                 4.9005

                     22                     23                     24
                      A                      A                      A
 Frequencies --    634.4521               647.4630               672.6361
 Red. masses --      3.6566                 3.8390                 3.5399
 Frc consts  --      0.8672                 0.9482                 0.9436
 IR Inten    --     24.4726                 5.8761                48.4260

                     25                     26                     27
                      A                      A                      A
 Frequencies --    697.7385               720.7341               773.9557
 Red. masses --      3.4678                 3.4419                 3.9213
 Frc consts  --      0.9947                 1.0534                 1.3839
 IR Inten    --     18.9735                14.1581                 2.7319

                     28                     29                     30
                      A                      A                      A
 Frequencies --    787.1066               806.6470               812.8688
 Red. masses --      1.0917                 1.2352                 1.4378
 Frc consts  --      0.3985                 0.4735                 0.5598
 IR Inten    --     35.4593                46.6303                31.3934

                     31                     32                     33
                      A                      A                      A
 Frequencies --    836.1778               851.2317               857.6185
 Red. masses --      1.3862                 1.2627                 2.7532
 Frc consts  --      0.5710                 0.5391                 1.1931
 IR Inten    --     26.0877                88.0746                22.6885

                     34                     35                     36
                      A                      A                      A
 Frequencies --    899.3134               913.0172               947.2226
 Red. masses --      2.3560                 2.0065                 5.7096
 Frc consts  --      1.1227                 0.9855                 3.0183
 IR Inten    --     16.9475                12.4510                16.7110

                     37                     38                     39
                      A                      A                      A
 Frequencies --    965.7376               982.4753              1007.7979
 Red. masses --      3.2770                 2.9187                 1.7175
 Frc consts  --      1.8007                 1.6599                 1.0278
 IR Inten    --     10.6814                 4.2410                 9.3888

                     40                     41                     42
                      A                      A                      A
 Frequencies --   1027.5194              1030.8069              1084.4604
 Red. masses --      3.5813                 2.8182                 2.6697
 Frc consts  --      2.2278                 1.7643                 1.8499
 IR Inten    --      1.4566                38.2172                 8.0519

                     43                     44                     45
                      A                      A                      A
 Frequencies --   1129.8411              1132.5279              1145.4051
 Red. masses --      2.8650                 1.8579                 2.0431
 Frc consts  --      2.1548                 1.4040                 1.5793
 IR Inten    --     64.5891                58.9194                 2.0923

                     46                     47                     48
                      A                      A                      A
 Frequencies --   1157.3809              1173.5630              1210.1989
 Red. masses --      1.4177                 2.5162                 1.3127
 Frc consts  --      1.1189                 2.0417                 1.1327
 IR Inten    --     33.6043               152.9834                 8.2363

                     49                     50                     51
                      A                      A                      A
 Frequencies --   1260.9708              1263.8762              1273.9048
 Red. masses --      2.0419                 1.5493                 1.3764
 Frc consts  --      1.9129                 1.4581                 1.3161
 IR Inten    --      4.1260                26.0559                12.3487

                     52                     53                     54
                      A                      A                      A
 Frequencies --   1288.7555              1308.6027              1310.7228
 Red. masses --      1.3042                 1.4546                 1.3361
 Frc consts  --      1.2762                 1.4676                 1.3525
 IR Inten    --      8.8958                 2.1069                 2.9392

                     55                     56                     57
                      A                      A                      A
 Frequencies --   1326.0215              1356.0315              1371.5957
 Red. masses --      1.4561                 1.4251                 1.4284
 Frc consts  --      1.5085                 1.5440                 1.5832
 IR Inten    --     10.8253                24.8245                 6.7424

                     58                     59                     60
                      A                      A                      A
 Frequencies --   1387.2818              1408.9747              1421.4093
 Red. masses --      4.1469                 2.0284                 1.5149
 Frc consts  --      4.7022                 2.3725                 1.8034
 IR Inten    --     16.8047                56.0992                28.3615

                     61                     62                     63
                      A                      A                      A
 Frequencies --   1441.8653              1465.2926              1478.8542
 Red. masses --      2.3507                 1.0818                 1.1600
 Frc consts  --      2.8794                 1.3685                 1.4947
 IR Inten    --     88.2982                14.0341                15.7726

                     64                     65                     66
                      A                      A                      A
 Frequencies --   1498.4481              1512.0872              1572.7884
 Red. masses --      3.1847                 1.0883                 2.1089
 Frc consts  --      4.2131                 1.4661                 3.0736
 IR Inten    --     27.2534                 6.2134               330.5737

                     67                     68                     69
                      A                      A                      A
 Frequencies --   1611.2352              1656.6008              1698.3943
 Red. masses --      4.2729                 1.0905                 7.8826
 Frc consts  --      6.5357                 1.7633                13.3966
 IR Inten    --     25.7168                37.9401               359.6132

                     70                     71                     72
                      A                      A                      A
 Frequencies --   1808.9055              2988.0785              3022.2976
 Red. masses --      9.7692                 1.0712                 1.0706
 Frc consts  --     18.8339                 5.6351                 5.7619
 IR Inten    --    319.7916                76.1542                 6.1856

                     73                     74                     75
                      A                      A                      A
 Frequencies --   3041.3451              3061.4272              3072.5122
 Red. masses --      1.0652                 1.0920                 1.0840
 Frc consts  --      5.8051                 6.0300                 6.0295
 IR Inten    --     20.8103                26.3709                11.0598

                     76                     77                     78
                      A                      A                      A
 Frequencies --   3095.1914              3105.0529              3231.1900
 Red. masses --      1.0980                 1.0924                 1.0962
 Frc consts  --      6.1976                 6.2052                 6.7431
 IR Inten    --     10.1078                 8.1034                 8.2255

                     79                     80                     81
                      A                      A                      A
 Frequencies --   3241.7349              3371.4855              3476.8749
 Red. masses --      1.0981                 1.0821                 1.0854
 Frc consts  --      6.7993                 7.2470                 7.7308
 IR Inten    --      1.1598               413.2384               435.6983

                     82                     83                     84
                      A                      A                      A
 Frequencies --   3505.5174              3585.8806              3760.5377
 Red. masses --      1.0502                 1.0932                 1.0645
 Frc consts  --      7.6038                 8.2823                 8.8697
 IR Inten    --      0.5266                 5.9767                89.4615

 - Thermochemistry -
 -------------------
 Temperature   298.150 Kelvin.  Pressure   1.00000 Atm.
 Atom     1 has atomic number  8 and mass  15.99491

 Molecular mass:   226.10659 amu.
 Principal axes and moments of inertia in atomic units:
                           1         2         3
     Eigenvalues --  2338.943415374.760537199.91559
           X            0.94515   0.32272   0.05043
           Y           -0.25977   0.64904   0.71503
           Z           -0.19802   0.68891  -0.69727
 This molecule is an asymmetric top.
 Rotational symmetry number  1.
 Warning -- assumption of classical behavior for rotation
           may cause significant error
 Rotational temperatures (Kelvin)      0.03703     0.01611     0.01203
 Rotational constants (GHZ):           0.77161     0.33578     0.25066
 Zero-point vibrational energy     643468.8 (Joules/Mol)
                                  153.79274 (Kcal/Mol)
 Warning -- explicit consideration of  21 degrees of freedom as
           vibrations may cause significant error
 Vibrational temperatures:     28.45    67.44    76.74   100.45   110.33
          (Kelvin)            142.28   160.57   179.43   262.53   280.84
                              342.02   409.10   432.98   440.14   477.01
                              509.64   595.15   668.18   744.30   848.03
                              882.18   912.83   931.55   967.77  1003.89
                             1036.97  1113.55  1132.47  1160.58  1169.54
                             1203.07  1224.73  1233.92  1293.91  1313.63
                             1362.84  1389.48  1413.56  1449.99  1478.37
                             1483.10  1560.29  1625.59  1629.45  1647.98
                             1665.21  1688.49  1741.20  1814.25  1818.43
                             1832.86  1854.23  1882.79  1885.84  1907.85
                             1951.02  1973.42  1995.99  2027.20  2045.09
                             2074.52  2108.23  2127.74  2155.93  2175.55
                             2262.89  2318.21  2383.48  2443.61  2602.61
                             4299.17  4348.41  4375.81  4404.71  4420.65
                             4453.28  4467.47  4648.96  4664.13  4850.81
                             5002.44  5043.65  5159.28  5410.57

 Zero-point correction=                           0.245084 (Hartree/Particle)
 Thermal correction to Energy=                    0.260725
 Thermal correction to Enthalpy=                  0.261669
 Thermal correction to Gibbs Free Energy=         0.199884
 Sum of electronic and zero-point Energies=           -796.151847
 Sum of electronic and thermal Energies=              -796.136206
 Sum of electronic and thermal Enthalpies=            -796.135262
 Sum of electronic and thermal Free Energies=         -796.197047

                     E (Thermal)             CV                S
                      KCal/Mol        Cal/Mol-Kelvin    Cal/Mol-Kelvin
 Total                  163.607             57.401            130.037
 Electronic               0.000              0.000              0.000
 Translational            0.889              2.981             42.150
 Rotational               0.889              2.981             32.870
 Vibrational            161.830             51.439             55.017
 Vibration     1          0.593              1.986              6.657
 Vibration     2          0.595              1.979              4.945
 Vibration     3          0.596              1.976              4.690
 Vibration     4          0.598              1.969              4.158
 Vibration     5          0.599              1.965              3.974
 Vibration     6          0.604              1.950              3.476
 Vibration     7          0.607              1.940              3.241
 Vibration     8          0.610              1.928              3.026
 Vibration     9          0.630              1.864              2.303
 Vibration    10          0.636              1.847              2.178
 Vibration    11          0.656              1.783              1.820
 Vibration    12          0.683              1.703              1.507
 Vibration    13          0.693              1.672              1.412
 Vibration    14          0.696              1.662              1.384
 Vibration    15          0.714              1.613              1.253
 Vibration    16          0.730              1.567              1.147
 Vibration    17          0.777              1.441              0.914
 Vibration    18          0.822              1.329              0.753
 Vibration    19          0.872              1.212              0.616
 Vibration    20          0.947              1.054              0.468
 Vibration    21          0.972              1.004              0.428

 Optimization completed.
    -- Stationary point found.
 Normal termination of Gaussian 09 at Sat Jul 24 05:18:28 2021.
