 Gaussian 09, Revision D.01,
 Gaussian 09:  ES64L-G09RevD.01 24-Apr-2013

 ----------------------------------------------------------------------
 # B3LYP/6-311++G(d,p) EmpiricalDispersion=GD3BJ opt=calcfc freq=norama
 n nosymm integral(ultrafinegrid)
 ----------------------------------------------------------------------

 ------------------------------------------------------------
 Candidate Structure: Conf:591 OPT and FREQ calc in gas phase
 ------------------------------------------------------------
 Symbolic Z-matrix:
 Charge =  0 Multiplicity = 1

 SCF Done:  E(RB3LYP) =  -796.383480692     A.U. after   16 cycles
 SCF Done:  E(RB3LYP) =  -796.385637816     A.U. after   14 cycles
 SCF Done:  E(RB3LYP) =  -796.385613866     A.U. after   13 cycles
 SCF Done:  E(RB3LYP) =  -796.374296590     A.U. after   17 cycles
 SCF Done:  E(RB3LYP) =  -796.385878646     A.U. after   14 cycles
 SCF Done:  E(RB3LYP) =  -796.386187232     A.U. after   15 cycles
 SCF Done:  E(RB3LYP) =  -796.386364862     A.U. after   15 cycles
 SCF Done:  E(RB3LYP) =  -796.386938087     A.U. after   15 cycles
 SCF Done:  E(RB3LYP) =  -796.389003973     A.U. after   16 cycles
 SCF Done:  E(RB3LYP) =  -796.390441268     A.U. after   13 cycles
 SCF Done:  E(RB3LYP) =  -796.390762019     A.U. after   13 cycles
 SCF Done:  E(RB3LYP) =  -796.389696805     A.U. after   14 cycles
 SCF Done:  E(RB3LYP) =  -796.391003464     A.U. after   10 cycles
 SCF Done:  E(RB3LYP) =  -796.390619790     A.U. after   13 cycles
 SCF Done:  E(RB3LYP) =  -796.391249376     A.U. after   12 cycles
 SCF Done:  E(RB3LYP) =  -796.391259041     A.U. after   11 cycles
 SCF Done:  E(RB3LYP) =  -796.391261717     A.U. after   11 cycles
 SCF Done:  E(RB3LYP) =  -796.391262063     A.U. after    9 cycles
 SCF Done:  E(RB3LYP) =  -796.391262107     A.U. after    9 cycles
 Optimization completed.
    -- Stationary point found.
 Normal termination of Gaussian 09 at Sat Jul 24 03:46:32 2021.

 ----------------------------------------------------------------------
 #N Geom=AllCheck Guess=TCheck SCRF=Check GenChk RB3LYP/6-311++G(d,p) F
 req
 ----------------------------------------------------------------------

 Structure from the checkpoint file:  "conf-591.chk"
 ------------------------------------------------------------
 Candidate Structure: Conf:591 OPT and FREQ calc in gas phase
 ------------------------------------------------------------
 Charge =  0 Multiplicity = 1

                          Input orientation:
 ---------------------------------------------------------------------
 Center     Atomic      Atomic             Coordinates (Angstroms)
 Number     Number       Type             X           Y           Z
 ---------------------------------------------------------------------
      1          8           0       -0.817445    0.243539   -1.011608
      2          6           0       -1.274272    0.114028    0.124922
      3          7           0       -0.497360   -0.228444    1.179632
      4          6           0        0.922325   -0.492245    1.047630
      5          6           0        1.367584   -1.212398    2.303653
      6          8           0        2.618475   -1.686611    2.181495
      7          8           0        0.701723   -1.330557    3.303926
      8          6           0        1.781541    0.806799    0.818519
      9          6           0        2.545191    0.803365   -0.458456
     10          6           0        3.887535    0.888074   -0.742864
     11          7           0        4.099063    0.843083   -2.103163
     12          6           0        2.901537    0.726602   -2.637834
     13          7           0        1.924345    0.701213   -1.687106
     14          6           0       -2.744116    0.324972    0.421093
     15          6           0       -3.630285   -0.558295   -0.465265
     16          7           0       -5.041002   -0.291566   -0.170908
     17          1           0       -0.901180   -0.366122    2.096230
     18          1           0        1.085412   -1.160629    0.199424
     19          1           0        2.861564   -2.105292    3.021328
     20          1           0        2.487396    0.941519    1.639332
     21          1           0        1.086429    1.649969    0.856703
     22          1           0        4.705917    0.979139   -0.045154
     23          1           0        2.685635    0.657867   -3.692876
     24          1           0        0.919971    0.579834   -1.797159
     25          1           0       -2.978925    0.139888    1.471638
     26          1           0       -2.964752    1.378059    0.214548
     27          1           0       -3.432322   -1.609111   -0.233422
     28          1           0       -3.348249   -0.397613   -1.512745
     29          1           0       -5.640009   -0.966495   -0.633567
     30          1           0       -5.311706    0.627566   -0.507304
 ---------------------------------------------------------------------

 SCF Done:  E(RB3LYP) =  -796.391262107     A.U. after    1 cycles

 Alpha  occ. eigenvalues --  -19.20554 -19.15250 -19.11617 -14.36745 -14.35238
 Alpha  occ. eigenvalues --  -14.30910 -14.28451 -10.34242 -10.30053 -10.25639
 Alpha  occ. eigenvalues --  -10.21556 -10.21256 -10.20716 -10.20058 -10.19631
 Alpha  occ. eigenvalues --  -10.17609  -1.15064  -1.06953  -1.06157  -1.00804
 Alpha  occ. eigenvalues --   -0.95953  -0.90118  -0.86490  -0.82190  -0.77825
 Alpha  occ. eigenvalues --   -0.75056  -0.69184  -0.66727  -0.62837  -0.61589
 Alpha  occ. eigenvalues --   -0.60538  -0.58503  -0.55098  -0.54830  -0.52700
 Alpha  occ. eigenvalues --   -0.51170  -0.50918  -0.49791  -0.49115  -0.47199
 Alpha  occ. eigenvalues --   -0.46490  -0.45527  -0.44255  -0.43599  -0.42452
 Alpha  occ. eigenvalues --   -0.41590  -0.40572  -0.40356  -0.40055  -0.39590
 Alpha  occ. eigenvalues --   -0.38701  -0.36414  -0.36251  -0.32347  -0.29601
 Alpha  occ. eigenvalues --   -0.29155  -0.27571  -0.26421  -0.25725  -0.22460
 Alpha virt. eigenvalues --   -0.03742  -0.02466  -0.01778  -0.01131  -0.00275
 Alpha virt. eigenvalues --    0.00242   0.00671   0.01388   0.01670   0.02648
 Alpha virt. eigenvalues --    0.02807   0.03223   0.03418   0.04506   0.04835

 Mulliken charges:
               1
     1  O   -0.351169
     2  C    0.065024
     3  N   -0.021546
     4  C   -0.413681
     5  C   -0.006141
     6  O   -0.105549
     7  O   -0.268056
     8  C   -0.435931
     9  C    0.361218
    10  C   -0.466494
    11  N   -0.144847
    12  C    0.013463
    13  N   -0.258457
    14  C   -0.331994
    15  C   -0.450276
    16  N   -0.340318
    17  H    0.284030
    18  H    0.294702
    19  H    0.298970
    20  H    0.232504
    21  H    0.206959
    22  H    0.126008
    23  H    0.156343
    24  H    0.430179
    25  H    0.167866
    26  H    0.183151
    27  H    0.155916
    28  H    0.170284
    29  H    0.236012
    30  H    0.211831
 Sum of Mulliken charges =   0.00000

 Dipole moment (field-independent basis, Debye):
    X=             -3.8782    Y=             -1.0677    Z=              2.3160  Tot=              4.6416
 Quadrupole moment (field-independent basis, Debye-Ang):
   XX=           -106.9343   YY=            -92.8986   ZZ=            -98.3490
   XY=             -7.2630   XZ=             23.6324   YZ=              1.9303

  Exact polarizability: 178.438   2.070 106.269  -7.885 -11.359 156.801
 Approx polarizability: 229.511  -1.137 157.865 -11.834  -8.526 237.306

                      1                      2                      3
                      A                      A                      A
 Frequencies --     13.5538                38.1668                51.9928
 Red. masses --      3.2882                 5.8039                 4.5178
 Frc consts  --      0.0004                 0.0050                 0.0072
 IR Inten    --      1.2855                 1.4116                 1.3817

                      4                      5                      6
                      A                      A                      A
 Frequencies --     58.6401                73.4288                79.5911
 Red. masses --      8.7925                 2.6709                 4.2417
 Frc consts  --      0.0178                 0.0085                 0.0158
 IR Inten    --      1.3231                 1.7374                 0.8513

                      7                      8                      9
                      A                      A                      A
 Frequencies --     91.2712               129.4489               137.8684
 Red. masses --      6.5548                 5.9047                 4.1611
 Frc consts  --      0.0322                 0.0583                 0.0466
 IR Inten    --      8.6286                 3.1726                 9.6053

                     10                     11                     12
                      A                      A                      A
 Frequencies --    189.3020               225.5468               238.0100
 Red. masses --      4.9754                 2.2388                 1.7438
 Frc consts  --      0.1050                 0.0671                 0.0582
 IR Inten    --      2.0148                 7.5373                47.3101

                     13                     14                     15
                      A                      A                      A
 Frequencies --    282.6737               292.8636               315.4699
 Red. masses --      3.5212                 3.3264                 3.4839
 Frc consts  --      0.1658                 0.1681                 0.2043
 IR Inten    --     11.7674                 5.5325                 3.7352

                     16                     17                     18
                      A                      A                      A
 Frequencies --    355.0933               393.2757               425.6551
 Red. masses --      6.6862                 4.2031                 3.5424
 Frc consts  --      0.4967                 0.3830                 0.3782
 IR Inten    --      0.5020                 5.9905                 3.7186

                     19                     20                     21
                      A                      A                      A
 Frequencies --    531.4471               563.3689               591.1967
 Red. masses --      2.2861                 1.5235                 1.3929
 Frc consts  --      0.3804                 0.2849                 0.2868
 IR Inten    --     67.9540                35.8885                86.4487

                     22                     23                     24
                      A                      A                      A
 Frequencies --    632.0285               645.6931               652.3759
 Red. masses --      3.9245                 3.9083                 2.4314
 Frc consts  --      0.9237                 0.9601                 0.6097
 IR Inten    --     22.9979                 4.8423                 6.3559

                     25                     26                     27
                      A                      A                      A
 Frequencies --    672.1146               718.7790               757.9591
 Red. masses --      3.4909                 3.5137                 5.1990
 Frc consts  --      0.9291                 1.0696                 1.7598
 IR Inten    --     49.9557                19.2322                11.4585

                     28                     29                     30
                      A                      A                      A
 Frequencies --    777.5769               783.5659               797.4022
 Red. masses --      1.1509                 2.9240                 1.2997
 Frc consts  --      0.4100                 1.0577                 0.4869
 IR Inten    --     42.2979                 9.9264                25.0136

                     31                     32                     33
                      A                      A                      A
 Frequencies --    813.8175               836.8269               838.1687
 Red. masses --      1.4340                 1.3354                 1.3540
 Frc consts  --      0.5596                 0.5510                 0.5604
 IR Inten    --     27.9766               108.1371                38.7009

                     34                     35                     36
                      A                      A                      A
 Frequencies --    868.0462               946.1835               947.6804
 Red. masses --      2.4835                 4.4185                 4.2778
 Frc consts  --      1.1026                 2.3307                 2.2636
 IR Inten    --     17.1066                 8.8497                14.1438

                     37                     38                     39
                      A                      A                      A
 Frequencies --    975.6781               985.1825              1027.0576
 Red. masses --      2.9690                 2.8371                 3.3292
 Frc consts  --      1.6652                 1.6224                 2.0691
 IR Inten    --      1.9213                 4.1908                 5.5502

                     40                     41                     42
                      A                      A                      A
 Frequencies --   1027.4129              1050.1275              1085.4830
 Red. masses --      3.4793                 2.2591                 2.7360
 Frc consts  --      2.1639                 1.4678                 1.8994
 IR Inten    --     20.3976                 2.8606                51.2098

                     43                     44                     45
                      A                      A                      A
 Frequencies --   1130.4909              1131.9616              1145.4430
 Red. masses --      1.9653                 2.4000                 2.0862
 Frc consts  --      1.4798                 1.8119                 1.6127
 IR Inten    --     57.0219                33.5823                 2.9117

                     46                     47                     48
                      A                      A                      A
 Frequencies --   1157.1288              1180.0131              1208.9112
 Red. masses --      1.3916                 2.4878                 1.3001
 Frc consts  --      1.0978                 2.0410                 1.1195
 IR Inten    --     51.1522               156.5704                 6.9124

                     49                     50                     51
                      A                      A                      A
 Frequencies --   1235.0841              1261.9813              1273.2702
 Red. masses --      1.5295                 2.3043                 1.3888
 Frc consts  --      1.3746                 2.1622                 1.3265
 IR Inten    --     19.3647                 8.7160                13.5029

                     52                     53                     54
                      A                      A                      A
 Frequencies --   1288.3991              1299.2812              1315.1967
 Red. masses --      1.2957                 1.3323                 1.2318
 Frc consts  --      1.2672                 1.3251                 1.2553
 IR Inten    --      5.4585                 5.1830                 1.2335

                     55                     56                     57
                      A                      A                      A
 Frequencies --   1328.3095              1356.4742              1360.9748
 Red. masses --      1.3454                 1.4327                 1.4041
 Frc consts  --      1.3986                 1.5532                 1.5323
 IR Inten    --      4.2490                39.5009                 2.0264

                     58                     59                     60
                      A                      A                      A
 Frequencies --   1387.7896              1413.9649              1422.7762
 Red. masses --      4.1931                 2.3067                 1.4199
 Frc consts  --      4.7580                 2.7171                 1.6935
 IR Inten    --     18.2783                91.5294                48.1950

                     61                     62                     63
                      A                      A                      A
 Frequencies --   1440.8347              1478.3531              1481.1258
 Red. masses --      2.3912                 1.1478                 1.1248
 Frc consts  --      2.9248                 1.4780                 1.4538
 IR Inten    --     83.0873                14.7935                10.8985

                     64                     65                     66
                      A                      A                      A
 Frequencies --   1498.5084              1520.9239              1541.6535
 Red. masses --      3.1819                 1.0857                 2.4352
 Frc consts  --      4.2097                 1.4797                 3.4100
 IR Inten    --     29.4757                 2.7180               316.2409

                     67                     68                     69
                      A                      A                      A
 Frequencies --   1611.2471              1661.3969              1704.5555
 Red. masses --      4.2963                 1.0900                 8.3086
 Frc consts  --      6.5715                 1.7727                14.2233
 IR Inten    --     16.9383                33.9953               254.1181

                     70                     71                     72
                      A                      A                      A
 Frequencies --   1802.2027              3004.8573              3032.3349
 Red. masses --      9.6844                 1.0645                 1.0664
 Frc consts  --     18.5323                 5.6628                 5.7774
 IR Inten    --    333.2589                29.8754                 7.7326

                     73                     74                     75
                      A                      A                      A
 Frequencies --   3044.2692              3054.2417              3071.9200
 Red. masses --      1.0651                 1.0928                 1.0839
 Frc consts  --      5.8160                 6.0062                 6.0265
 IR Inten    --     18.7230                19.9958                 8.4819

                     76                     77                     78
                      A                      A                      A
 Frequencies --   3090.5214              3098.1623              3231.8985
 Red. masses --      1.1021                 1.0983                 1.0962
 Frc consts  --      6.2022                 6.2112                 6.7464
 IR Inten    --     22.9158                 9.7117                 7.7012

                     79                     80                     81
                      A                      A                      A
 Frequencies --   3242.1992              3494.9941              3500.2908
 Red. masses --      1.0982                 1.0848                 1.0499
 Frc consts  --      6.8019                 7.8075                 7.5792
 IR Inten    --      1.0308               440.2062                 0.1474

                     82                     83                     84
                      A                      A                      A
 Frequencies --   3580.8118              3595.4256              3757.5208
 Red. masses --      1.0930                 1.0781                 1.0646
 Frc consts  --      8.2570                 8.2112                 8.8557
 IR Inten    --      2.2572                82.8871                99.0592

 - Thermochemistry -
 -------------------
 Temperature   298.150 Kelvin.  Pressure   1.00000 Atm.
 Atom     1 has atomic number  8 and mass  15.99491

 Molecular mass:   226.10659 amu.
 Principal axes and moments of inertia in atomic units:
                           1         2         3
     Eigenvalues --  2669.937065899.091048169.48247
           X            0.98745   0.15274  -0.04015
           Y            0.09754  -0.38989   0.91568
           Z           -0.12421   0.90811   0.39989
 This molecule is an asymmetric top.
 Rotational symmetry number  1.
 Warning -- assumption of classical behavior for rotation
           may cause significant error
 Rotational temperatures (Kelvin)      0.03244     0.01468     0.01060
 Rotational constants (GHZ):           0.67595     0.30594     0.22091
 Zero-point vibrational energy     642123.8 (Joules/Mol)
                                  153.47128 (Kcal/Mol)
 Warning -- explicit consideration of  21 degrees of freedom as
           vibrations may cause significant error
 Vibrational temperatures:     19.50    54.91    74.81    84.37   105.65
          (Kelvin)            114.51   131.32   186.25   198.36   272.36
                              324.51   342.44   406.70   421.36   453.89
                              510.90   565.84   612.42   764.63   810.56
                              850.60   909.35   929.01   938.62   967.02
                             1034.16  1090.53  1118.76  1127.38  1147.28
                             1170.90  1204.01  1205.94  1248.92  1361.35
                             1363.50  1403.78  1417.46  1477.70  1478.22
                             1510.90  1561.77  1626.52  1628.64  1648.03
                             1664.85  1697.77  1739.35  1777.01  1815.71
                             1831.95  1853.72  1869.37  1892.27  1911.14
                             1951.66  1958.14  1996.72  2034.38  2047.06
                             2073.04  2127.02  2131.01  2156.02  2188.27
                             2218.09  2318.22  2390.38  2452.47  2592.96
                             4323.31  4362.85  4380.02  4394.37  4419.80
                             4446.57  4457.56  4649.98  4664.80  5028.51
                             5036.13  5151.98  5173.01  5406.23

 Zero-point correction=                           0.244572 (Hartree/Particle)
 Thermal correction to Energy=                    0.260691
 Thermal correction to Enthalpy=                  0.261635
 Thermal correction to Gibbs Free Energy=         0.197772
 Sum of electronic and zero-point Energies=           -796.146690
 Sum of electronic and thermal Energies=              -796.130571
 Sum of electronic and thermal Enthalpies=            -796.129627
 Sum of electronic and thermal Free Energies=         -796.193490

                     E (Thermal)             CV                S
                      KCal/Mol        Cal/Mol-Kelvin    Cal/Mol-Kelvin
 Total                  163.586             58.143            134.413
 Electronic               0.000              0.000              0.000
 Translational            0.889              2.981             42.150
 Rotational               0.889              2.981             33.220
 Vibrational            161.809             52.181             59.043
 Vibration     1          0.593              1.986              7.407
 Vibration     2          0.594              1.982              5.352
 Vibration     3          0.596              1.977              4.740
 Vibration     4          0.596              1.974              4.502
 Vibration     5          0.599              1.967              4.059
 Vibration     6          0.600              1.963              3.901
 Vibration     7          0.602              1.955              3.633
 Vibration     8          0.612              1.924              2.954
 Vibration     9          0.614              1.916              2.833
 Vibration    10          0.633              1.855              2.235
 Vibration    11          0.650              1.802              1.914
 Vibration    12          0.656              1.782              1.818
 Vibration    13          0.682              1.706              1.517
 Vibration    14          0.688              1.687              1.457
 Vibration    15          0.703              1.644              1.333
 Vibration    16          0.731              1.565              1.144
 Vibration    17          0.760              1.485              0.988
 Vibration    18          0.787              1.414              0.873
 Vibration    19          0.886              1.180              0.584
 Vibration    20          0.919              1.111              0.517
 Vibration    21          0.949              1.051              0.465

 Normal termination of Gaussian 09 at Sat Jul 24 04:49:18 2021.
