 Gaussian 09, Revision D.01,
 Gaussian 09:  ES64L-G09RevD.01 24-Apr-2013

 ----------------------------------------------------------------------
 # B3LYP/6-311++G(d,p) EmpiricalDispersion=GD3BJ opt=calcfc freq=norama
 n nosymm integral(ultrafinegrid)
 ----------------------------------------------------------------------

 ------------------------------------------------------------
 Candidate Structure: Conf:490 OPT and FREQ calc in gas phase
 ------------------------------------------------------------
 Symbolic Z-matrix:
 Charge =  0 Multiplicity = 1

 SCF Done:  E(RB3LYP) =  -796.384314497     A.U. after   16 cycles
 SCF Done:  E(RB3LYP) =  -796.386633848     A.U. after   17 cycles
 SCF Done:  E(RB3LYP) =  -796.378777339     A.U. after   17 cycles
 SCF Done:  E(RB3LYP) =  -796.386912066     A.U. after   12 cycles
 SCF Done:  E(RB3LYP) =  -796.387561514     A.U. after   16 cycles
 SCF Done:  E(RB3LYP) =  -796.387724624     A.U. after   12 cycles
 SCF Done:  E(RB3LYP) =  -796.387390332     A.U. after   16 cycles
 SCF Done:  E(RB3LYP) =  -796.387810683     A.U. after   14 cycles
 SCF Done:  E(RB3LYP) =  -796.387828111     A.U. after   12 cycles
 SCF Done:  E(RB3LYP) =  -796.387831837     A.U. after   12 cycles
 SCF Done:  E(RB3LYP) =  -796.387832000     A.U. after    9 cycles
 SCF Done:  E(RB3LYP) =  -796.387832017     A.U. after    9 cycles
 Optimization completed.
    -- Stationary point found.
 Normal termination of Gaussian 09 at Sat Jul 24 03:28:03 2021.

 ----------------------------------------------------------------------
 #N Geom=AllCheck Guess=TCheck SCRF=Check GenChk RB3LYP/6-311++G(d,p) F
 req
 ----------------------------------------------------------------------

 Structure from the checkpoint file:  "conf-490.chk"
 ------------------------------------------------------------
 Candidate Structure: Conf:490 OPT and FREQ calc in gas phase
 ------------------------------------------------------------
 Charge =  0 Multiplicity = 1

                          Input orientation:
 ---------------------------------------------------------------------
 Center     Atomic      Atomic             Coordinates (Angstroms)
 Number     Number       Type             X           Y           Z
 ---------------------------------------------------------------------
      1          8           0        0.887300    0.578190   -2.330699
      2          6           0        1.571511    0.186158   -1.391085
      3          7           0        1.072043    0.040754   -0.136180
      4          6           0       -0.287509    0.418384    0.159973
      5          6           0       -0.408489    0.695052    1.658431
      6          8           0       -1.537243    1.318873    2.050986
      7          8           0        0.427515    0.374145    2.460531
      8          6           0       -1.291890   -0.678685   -0.304690
      9          6           0       -2.722789   -0.292769   -0.122923
     10          6           0       -3.484841    0.717414   -0.668790
     11          7           0       -4.757055    0.716200   -0.133820
     12          6           0       -4.777381   -0.274183    0.726660
     13          7           0       -3.570658   -0.917313    0.773318
     14          6           0        3.040782   -0.182566   -1.570880
     15          6           0        3.974810    0.180039   -0.410501
     16          7           0        3.679457   -0.629808    0.781929
     17          1           0        1.696489   -0.259783    0.615193
     18          1           0       -0.525265    1.331174   -0.395534
     19          1           0       -2.139401    1.448142    1.298906
     20          1           0       -1.077766   -0.851850   -1.360510
     21          1           0       -1.069942   -1.604244    0.233692
     22          1           0       -3.192873    1.423800   -1.430804
     23          1           0       -5.617257   -0.571323    1.335171
     24          1           0       -3.324462   -1.685264    1.378642
     25          1           0        3.095630   -1.261186   -1.763853
     26          1           0        3.366974    0.314704   -2.485439
     27          1           0        5.013485    0.079681   -0.752115
     28          1           0        3.827759    1.229982   -0.142564
     29          1           0        4.132728   -0.257578    1.608910
     30          1           0        3.998148   -1.586256    0.662652
 ---------------------------------------------------------------------

 SCF Done:  E(RB3LYP) =  -796.387832017     A.U. after    2 cycles

 Alpha  occ. eigenvalues --  -19.18042 -19.12564 -19.09186 -14.38862 -14.33745
 Alpha  occ. eigenvalues --  -14.32099 -14.31020 -10.31973 -10.27697 -10.24470
 Alpha  occ. eigenvalues --  -10.24120 -10.22804 -10.21897 -10.20897 -10.19988
 Alpha  occ. eigenvalues --  -10.18909  -1.12161  -1.04632  -1.04119  -1.03620
 Alpha  occ. eigenvalues --   -0.93771  -0.90909  -0.89210  -0.82066  -0.77792
 Alpha  occ. eigenvalues --   -0.74758  -0.69073  -0.64992  -0.63550  -0.63160
 Alpha  occ. eigenvalues --   -0.61227  -0.58828  -0.57376  -0.55125  -0.52527
 Alpha  occ. eigenvalues --   -0.50743  -0.48901  -0.48399  -0.47255  -0.47005
 Alpha  occ. eigenvalues --   -0.46032  -0.45080  -0.44365  -0.44073  -0.42825
 Alpha  occ. eigenvalues --   -0.42336  -0.41153  -0.40658  -0.40119  -0.39050
 Alpha  occ. eigenvalues --   -0.38176  -0.35907  -0.33943  -0.30536  -0.29768
 Alpha  occ. eigenvalues --   -0.28800  -0.27602  -0.27256  -0.26078  -0.24685
 Alpha virt. eigenvalues --   -0.02582  -0.02057  -0.01758  -0.00302  -0.00024
 Alpha virt. eigenvalues --    0.00350   0.00743   0.01132   0.01531   0.01937
 Alpha virt. eigenvalues --    0.02640   0.03101   0.03804   0.04122   0.04305

 Mulliken charges:
               1
     1  O   -0.332871
     2  C   -0.094323
     3  N   -0.026379
     4  C   -0.125593
     5  C   -0.227047
     6  O   -0.098974
     7  O   -0.254211
     8  C   -0.692927
     9  C    0.344322
    10  C   -0.482000
    11  N   -0.098083
    12  C    0.095722
    13  N   -0.100372
    14  C   -0.335980
    15  C   -0.393562
    16  N   -0.451490
    17  H    0.419075
    18  H    0.286739
    19  H    0.335232
    20  H    0.273433
    21  H    0.143387
    22  H    0.162017
    23  H    0.171874
    24  H    0.308958
    25  H    0.186998
    26  H    0.174034
    27  H    0.168995
    28  H    0.174795
    29  H    0.250050
    30  H    0.218180
 Sum of Mulliken charges =   0.00000

 Dipole moment (field-independent basis, Debye):
    X=              3.3075    Y=             -3.9370    Z=              1.1298  Tot=              5.2646
 Quadrupole moment (field-independent basis, Debye-Ang):
   XX=            -85.2769   YY=            -90.4500   ZZ=           -112.4054
   XY=              8.5628   XZ=             -6.7855   YZ=             -3.4615

  Exact polarizability: 186.350  -8.684 113.676  -6.185  -9.183 135.838
 Approx polarizability: 230.340 -19.250 186.133   1.041 -25.160 209.435

                      1                      2                      3
                      A                      A                      A
 Frequencies --     14.9943                32.1779                46.1261
 Red. masses --      4.6164                 5.2061                 4.2719
 Frc consts  --      0.0006                 0.0032                 0.0054
 IR Inten    --      0.8246                 5.8086                 2.6495

                      4                      5                      6
                      A                      A                      A
 Frequencies --     57.0068                79.5616                87.2894
 Red. masses --      4.5909                 5.3289                 5.6908
 Frc consts  --      0.0088                 0.0199                 0.0255
 IR Inten    --      7.9805                 2.4440                 6.0643

                      7                      8                      9
                      A                      A                      A
 Frequencies --    102.8987               119.6376               174.0960
 Red. masses --      6.8900                 4.3034                 5.0464
 Frc consts  --      0.0430                 0.0363                 0.0901
 IR Inten    --      5.1083                 6.2142                 7.4696

                     10                     11                     12
                      A                      A                      A
 Frequencies --    199.3567               228.7267               290.2050
 Red. masses --      2.2631                 5.3432                 7.5008
 Frc consts  --      0.0530                 0.1647                 0.3722
 IR Inten    --      7.2126                 5.8871                 0.3538

                     13                     14                     15
                      A                      A                      A
 Frequencies --    290.6058               332.1873               345.1059
 Red. masses --      1.2712                 2.2115                 3.8606
 Frc consts  --      0.0633                 0.1438                 0.2709
 IR Inten    --      9.9016                 6.4359                11.8616

                     16                     17                     18
                      A                      A                      A
 Frequencies --    347.0987               391.8469               474.9131
 Red. masses --      6.4249                 4.4292                 2.7093
 Frc consts  --      0.4561                 0.4007                 0.3600
 IR Inten    --      2.6065                18.6171                12.5852

                     19                     20                     21
                      A                      A                      A
 Frequencies --    509.5797               538.1016               600.6401
 Red. masses --      3.1865                 1.3797                 1.5830
 Frc consts  --      0.4875                 0.2354                 0.3365
 IR Inten    --     27.2756                86.0247                81.1111

                     22                     23                     24
                      A                      A                      A
 Frequencies --    603.3081               645.6438               668.8927
 Red. masses --      2.8417                 3.0656                 2.9690
 Frc consts  --      0.6094                 0.7529                 0.7827
 IR Inten    --      9.6761                 3.8428                13.1718

                     25                     26                     27
                      A                      A                      A
 Frequencies --    678.4655               694.4265               736.2028
 Red. masses --      3.2846                 3.1735                 3.2773
 Frc consts  --      0.8908                 0.9017                 1.0466
 IR Inten    --     16.2057                26.5050                 8.1888

                     28                     29                     30
                      A                      A                      A
 Frequencies --    762.2183               799.0001               814.2144
 Red. masses --      3.0348                 1.4417                 1.4656
 Frc consts  --      1.0388                 0.5423                 0.5724
 IR Inten    --      4.4027                37.8935                29.4658

                     31                     32                     33
                      A                      A                      A
 Frequencies --    820.6807               837.8470               852.6547
 Red. masses --      2.1598                 1.3609                 1.4221
 Frc consts  --      0.8571                 0.5629                 0.6092
 IR Inten    --      1.8286                97.0258                27.9012

                     34                     35                     36
                      A                      A                      A
 Frequencies --    890.5698               916.5935               943.4610
 Red. masses --      2.7098                 2.0584                 5.7467
 Frc consts  --      1.2663                 1.0189                 3.0138
 IR Inten    --     11.2490                14.6104                10.1168

                     37                     38                     39
                      A                      A                      A
 Frequencies --    974.5311              1001.0252              1012.6655
 Red. masses --      2.1703                 1.6956                 3.2060
 Frc consts  --      1.2144                 1.0011                 1.9371
 IR Inten    --     14.8730                23.5795                 1.9631

                     40                     41                     42
                      A                      A                      A
 Frequencies --   1030.0800              1039.2371              1082.0643
 Red. masses --      3.9077                 3.1126                 2.6369
 Frc consts  --      2.4429                 1.9806                 1.8191
 IR Inten    --      9.4964                 6.8930                 7.8145

                     43                     44                     45
                      A                      A                      A
 Frequencies --   1107.7157              1141.3965              1143.7066
 Red. masses --      1.6051                 2.3854                 2.2475
 Frc consts  --      1.1604                 1.8310                 1.7321
 IR Inten    --     14.7107                20.1288                 9.1711

                     46                     47                     48
                      A                      A                      A
 Frequencies --   1160.2351              1161.2311              1196.8781
 Red. masses --      1.7944                 1.4388                 2.3268
 Frc consts  --      1.4232                 1.1431                 1.9638
 IR Inten    --     28.4496                 6.0515                15.2939

                     49                     50                     51
                      A                      A                      A
 Frequencies --   1247.2950              1254.5199              1276.5243
 Red. masses --      1.6396                 1.8687                 1.4175
 Frc consts  --      1.5029                 1.7328                 1.3609
 IR Inten    --     23.3008                31.2629                 0.9010

                     52                     53                     54
                      A                      A                      A
 Frequencies --   1296.3644              1312.4193              1313.7248
 Red. masses --      1.3252                 1.3462                 1.4319
 Frc consts  --      1.3122                 1.3662                 1.4561
 IR Inten    --      3.4108                 5.3080                61.3734

                     55                     56                     57
                      A                      A                      A
 Frequencies --   1317.5857              1358.7219              1368.5743
 Red. masses --      1.5036                 1.3603                 1.3882
 Frc consts  --      1.5380                 1.4796                 1.5319
 IR Inten    --     84.2344                94.3649                12.9526

                     58                     59                     60
                      A                      A                      A
 Frequencies --   1395.7987              1403.5438              1418.2709
 Red. masses --      2.3480                 1.9110                 1.4138
 Frc consts  --      2.6952                 2.2180                 1.6756
 IR Inten    --     44.4580                63.4756                19.6683

                     61                     62                     63
                      A                      A                      A
 Frequencies --   1426.6367              1464.0235              1485.1386
 Red. masses --      3.1838                 1.0823                 1.3381
 Frc consts  --      3.8179                 1.3667                 1.7388
 IR Inten    --     20.6517                14.1894                11.9643

                     64                     65                     66
                      A                      A                      A
 Frequencies --   1489.8483              1510.6070              1552.1281
 Red. masses --      2.5292                 1.0944                 2.0281
 Frc consts  --      3.3076                 1.4714                 2.8788
 IR Inten    --     19.0897                10.4772               380.1867

                     67                     68                     69
                      A                      A                      A
 Frequencies --   1597.7409              1655.7111              1717.0128
 Red. masses --      4.2216                 1.0908                 8.9744
 Frc consts  --      6.3495                 1.7618                15.5884
 IR Inten    --      8.3426                37.7867               342.8693

                     70                     71                     72
                      A                      A                      A
 Frequencies --   1829.2270              2986.3907              3021.5159
 Red. masses --      9.9117                 1.0716                 1.0704
 Frc consts  --     19.5404                 5.6309                 5.7574
 IR Inten    --    294.4196                82.2154                 8.0251

                     73                     74                     75
                      A                      A                      A
 Frequencies --   3039.9935              3053.0219              3064.1692
 Red. masses --      1.0771                 1.0676                 1.0918
 Frc consts  --      5.8649                 5.8630                 6.0395
 IR Inten    --      7.1442                21.1159                24.8336

                     76                     77                     78
                      A                      A                      A
 Frequencies --   3101.2586              3103.5151              3234.8078
 Red. masses --      1.1027                 1.0925                 1.0966
 Frc consts  --      6.2489                 6.1997                 6.7606
 IR Inten    --      1.8021                 9.9471                 3.4907

                     79                     80                     81
                      A                      A                      A
 Frequencies --   3247.1047              3396.0440              3506.5777
 Red. masses --      1.0987                 1.0819                 1.0500
 Frc consts  --      6.8255                 7.3518                 7.6069
 IR Inten    --      1.1636               354.7694                 0.3786

                     82                     83                     84
                      A                      A                      A
 Frequencies --   3587.6533              3645.1951              3667.5861
 Red. masses --      1.0935                 1.0814                 1.0668
 Frc consts  --      8.2924                 8.4662                 8.4547
 IR Inten    --      5.9177                53.5895               231.6161

 - Thermochemistry -
 -------------------
 Temperature   298.150 Kelvin.  Pressure   1.00000 Atm.
 Atom     1 has atomic number  8 and mass  15.99491

 Molecular mass:   226.10659 amu.
 Principal axes and moments of inertia in atomic units:
                           1         2         3
     Eigenvalues --  1645.916696609.181867578.48682
           X            0.99117   0.13151   0.01672
           Y           -0.02392   0.05340   0.99829
           Z           -0.13039   0.98988  -0.05608
 This molecule is an asymmetric top.
 Rotational symmetry number  1.
 Warning -- assumption of classical behavior for rotation
           may cause significant error
 Rotational temperatures (Kelvin)      0.05262     0.01311     0.01143
 Rotational constants (GHZ):           1.09650     0.27307     0.23814
 Zero-point vibrational energy     641936.2 (Joules/Mol)
                                  153.42643 (Kcal/Mol)
 Warning -- explicit consideration of  22 degrees of freedom as
           vibrations may cause significant error
 Vibrational temperatures:     21.57    46.30    66.37    82.02   114.47
          (Kelvin)            125.59   148.05   172.13   250.49   286.83
                              329.09   417.54   418.12   477.94   496.53
                              499.40   563.78   683.29   733.17   774.21
                              864.19   868.02   928.94   962.39   976.16
                              999.12  1059.23  1096.66  1149.58  1171.47
                             1180.78  1205.47  1226.78  1281.33  1318.77
                             1357.43  1402.13  1440.25  1457.00  1482.05
                             1495.23  1556.85  1593.75  1642.21  1645.54
                             1669.32  1670.75  1722.04  1794.58  1804.97
                             1836.63  1865.18  1888.28  1890.15  1895.71
                             1954.90  1969.07  2008.24  2019.38  2040.57
                             2052.61  2106.40  2136.78  2143.56  2173.42
                             2233.16  2298.79  2382.20  2470.40  2631.85
                             4296.74  4347.28  4373.87  4392.61  4408.65
                             4462.01  4465.26  4654.16  4671.85  4886.14
                             5045.18  5161.83  5244.62  5276.83

 Zero-point correction=                           0.244501 (Hartree/Particle)
 Thermal correction to Energy=                    0.260379
 Thermal correction to Enthalpy=                  0.261323
 Thermal correction to Gibbs Free Energy=         0.198272
 Sum of electronic and zero-point Energies=           -796.143331
 Sum of electronic and thermal Energies=              -796.127453
 Sum of electronic and thermal Enthalpies=            -796.126509
 Sum of electronic and thermal Free Energies=         -796.189560

                     E (Thermal)             CV                S
                      KCal/Mol        Cal/Mol-Kelvin    Cal/Mol-Kelvin
 Total                  163.390             57.923            132.701
 Electronic               0.000              0.000              0.000
 Translational            0.889              2.981             42.150
 Rotational               0.889              2.981             32.777
 Vibrational            161.613             51.961             57.774
 Vibration     1          0.593              1.986              7.206
 Vibration     2          0.594              1.983              5.690
 Vibration     3          0.595              1.979              4.977
 Vibration     4          0.596              1.975              4.558
 Vibration     5          0.600              1.963              3.902
 Vibration     6          0.601              1.958              3.720
 Vibration     7          0.605              1.947              3.399
 Vibration     8          0.609              1.933              3.106
 Vibration     9          0.627              1.874              2.391
 Vibration    10          0.637              1.841              2.139
 Vibration    11          0.651              1.797              1.889
 Vibration    12          0.686              1.692              1.473
 Vibration    13          0.687              1.691              1.470
 Vibration    14          0.714              1.611              1.249
 Vibration    15          0.723              1.585              1.188
 Vibration    16          0.725              1.581              1.179
 Vibration    17          0.759              1.488              0.993
 Vibration    18          0.832              1.306              0.724
 Vibration    19          0.865              1.229              0.635
 Vibration    20          0.893              1.166              0.569
 Vibration    21          0.959              1.030              0.449
 Vibration    22          0.962              1.025              0.444

 Optimization completed.
    -- Stationary point found.
 Normal termination of Gaussian 09 at Sat Jul 24 04:41:15 2021.
