 Gaussian 09, Revision D.01,
 Gaussian 09:  ES64L-G09RevD.01 24-Apr-2013

 ----------------------------------------------------------------------
 # B3LYP/6-311G(2df,2pd) EmpiricalDispersion=GD3BJ opt=calcfc freq=nora
 man nosymm integral(ultrafinegrid)
 ----------------------------------------------------------------------

 ------------------------------------------------------------
 Candidate Structure: Conf:301 OPT and FREQ calc in gas phase
 ------------------------------------------------------------
 Symbolic Z-matrix:
 Charge =  1 Multiplicity = 1

 SCF Done:  E(RB3LYP) =  -796.813791328     A.U. after   13 cycles
 SCF Done:  E(RB3LYP) =  -791.209220543     A.U. after   18 cycles
 SCF Done:  E(RB3LYP) =  -796.784124453     A.U. after   14 cycles
 SCF Done:  E(RB3LYP) =  -796.820462602     A.U. after   11 cycles
 SCF Done:  E(RB3LYP) =  -796.820079383     A.U. after   12 cycles
 SCF Done:  E(RB3LYP) =  -796.822547562     A.U. after    9 cycles
 SCF Done:  E(RB3LYP) =  -796.826528091     A.U. after   12 cycles
 SCF Done:  E(RB3LYP) =  -796.827300508     A.U. after   11 cycles
 SCF Done:  E(RB3LYP) =  -796.827532984     A.U. after   11 cycles
 SCF Done:  E(RB3LYP) =  -796.827807579     A.U. after   11 cycles
 SCF Done:  E(RB3LYP) =  -796.827974280     A.U. after   10 cycles
 SCF Done:  E(RB3LYP) =  -796.828001607     A.U. after    9 cycles
 SCF Done:  E(RB3LYP) =  -796.828002962     A.U. after    8 cycles
 SCF Done:  E(RB3LYP) =  -796.828004249     A.U. after    7 cycles
 SCF Done:  E(RB3LYP) =  -796.828004512     A.U. after    7 cycles
 SCF Done:  E(RB3LYP) =  -796.828004577     A.U. after    6 cycles
 Optimization completed.
    -- Stationary point found.
 Normal termination of Gaussian 09 at Sat Jul 24 10:04:59 2021.

 ----------------------------------------------------------------------
 #N Geom=AllCheck Guess=TCheck SCRF=Check GenChk RB3LYP/6-311G(2df,2pd)
  Freq
 ----------------------------------------------------------------------

 Structure from the checkpoint file:  "conf-301.chk"
 ------------------------------------------------------------
 Candidate Structure: Conf:301 OPT and FREQ calc in gas phase
 ------------------------------------------------------------
 Charge =  1 Multiplicity = 1

                          Input orientation:
 ---------------------------------------------------------------------
 Center     Atomic      Atomic             Coordinates (Angstroms)
 Number     Number       Type             X           Y           Z
 ---------------------------------------------------------------------
      1          8           0       -0.039705   -0.256736   -1.655896
      2          6           0        0.405174    0.687295   -0.997782
      3          7           0       -0.370333    1.476223   -0.241451
      4          6           0       -1.730193    1.132180    0.109083
      5          6           0       -2.475008    2.422206    0.400489
      6          8           0       -3.795966    2.228271    0.417980
      7          8           0       -1.924920    3.463634    0.636322
      8          6           0       -1.775812    0.223480    1.388240
      9          6           0       -0.857658   -0.935275    1.261185
     10          6           0        0.493820   -1.021053    1.471158
     11          7           0        0.992958   -2.195486    0.951492
     12          6           0       -0.051779   -2.836491    0.461670
     13          7           0       -1.185501   -2.113969    0.628195
     14          6           0        1.900087    0.989288   -0.945046
     15          6           0        2.749044   -0.018889   -1.713161
     16          7           0        2.279912   -1.425183   -1.464964
     17          1           0        0.004397    2.300822    0.205684
     18          1           0       -2.190122    0.610566   -0.726295
     19          1           0       -4.226347    3.063761    0.656408
     20          1           0       -1.472418    0.825422    2.244823
     21          1           0       -2.808204   -0.081361    1.555331
     22          1           0        1.129068   -0.304973    1.963182
     23          1           0       -0.040456   -3.810067    0.002080
     24          1           0       -2.107806   -2.389370    0.333330
     25          1           0        2.204127    1.022203    0.101132
     26          1           0        2.092596    1.981789   -1.355454
     27          1           0        2.666578    0.138502   -2.785758
     28          1           0        3.794408    0.057649   -1.428275
     29          1           0        2.832002   -2.107539   -1.978166
     30          1           0        1.287226   -1.417900   -1.777731
     31          1           0        2.221024   -1.709418   -0.462130
 ---------------------------------------------------------------------

 SCF Done:  E(RB3LYP) =  -796.828004577     A.U. after    1 cycles

 Alpha  occ. eigenvalues --  -19.29125 -19.24112 -19.23558 -14.55690 -14.50080
 Alpha  occ. eigenvalues --  -14.48014 -14.43382 -10.42840 -10.42582 -10.38529
 Alpha  occ. eigenvalues --  -10.36135 -10.35941 -10.34126 -10.33763 -10.32252
 Alpha  occ. eigenvalues --  -10.31418  -1.23754  -1.19684  -1.15463  -1.15085
 Alpha  occ. eigenvalues --   -1.13502  -1.07859  -1.01094  -0.95091  -0.92930
 Alpha  occ. eigenvalues --   -0.88382  -0.82733  -0.80667  -0.75787  -0.75201
 Alpha  occ. eigenvalues --   -0.73574  -0.73012  -0.72406  -0.71351  -0.68115
 Alpha  occ. eigenvalues --   -0.66213  -0.64189  -0.63235  -0.61814  -0.61359
 Alpha  occ. eigenvalues --   -0.60296  -0.59215  -0.58664  -0.57333  -0.56094
 Alpha  occ. eigenvalues --   -0.55444  -0.55040  -0.54484  -0.54189  -0.53531
 Alpha  occ. eigenvalues --   -0.52813  -0.50919  -0.50308  -0.45088  -0.43294
 Alpha  occ. eigenvalues --   -0.42132  -0.41839  -0.40985  -0.40684  -0.36530
 Alpha virt. eigenvalues --   -0.13899  -0.13187  -0.12364  -0.11100  -0.09501
 Alpha virt. eigenvalues --   -0.08855  -0.07844  -0.07012  -0.06582  -0.05915
 Alpha virt. eigenvalues --   -0.04504  -0.03605  -0.03267  -0.02317  -0.01808

 Mulliken charges:
               1
     1  O   -0.472866
     2  C    0.502335
     3  N   -0.281674
     4  C    0.074443
     5  C    0.503382
     6  O   -0.330567
     7  O   -0.356321
     8  C    0.032553
     9  C    0.097297
    10  C    0.058711
    11  N   -0.411464
    12  C    0.238653
    13  N   -0.187616
    14  C   -0.087418
    15  C    0.129457
    16  N    0.064138
    17  H    0.122874
    18  H    0.044276
    19  H    0.244252
    20  H    0.048445
    21  H    0.052448
    22  H    0.048378
    23  H    0.052810
    24  H    0.126972
    25  H    0.055198
    26  H    0.060972
    27  H    0.069143
    28  H    0.067138
    29  H    0.113050
    30  H    0.171674
    31  H    0.149328
 Sum of Mulliken charges =   1.00000

 Dipole moment (field-independent basis, Debye):
    X=              2.6204    Y=             -2.3029    Z=             -3.1944  Tot=              4.7301
 Quadrupole moment (field-independent basis, Debye-Ang):
   XX=            -49.6183   YY=            -73.3419   ZZ=            -83.4448
   XY=             -6.3392   XZ=            -19.3994   YZ=              7.9892

  Exact polarizability: 146.720 -14.456 141.841 -15.158   9.837 103.299
 Approx polarizability: 218.625  -3.517 216.655  -3.010  28.376 165.112

                      1                      2                      3
                      A                      A                      A
 Frequencies --     55.8029                66.9958               101.1107
 Red. masses --     10.8218                 4.7369                 5.0052
 Frc consts  --      0.0199                 0.0125                 0.0301
 IR Inten    --      1.6081                 0.3366                 4.4955

                      4                      5                      6
                      A                      A                      A
 Frequencies --    107.8719               113.8276               127.3429
 Red. masses --      3.6509                 5.1512                 3.4469
 Frc consts  --      0.0250                 0.0393                 0.0329
 IR Inten    --      5.1926                 1.7745                13.5991

                      7                      8                      9
                      A                      A                      A
 Frequencies --    151.2051               156.7571               174.6790
 Red. masses --      4.4169                 4.2976                 4.1206
 Frc consts  --      0.0595                 0.0622                 0.0741
 IR Inten    --      9.1905                11.2542                 4.8583

                     10                     11                     12
                      A                      A                      A
 Frequencies --    202.4225               263.0910               309.1858
 Red. masses --      2.5973                 4.6308                 5.5877
 Frc consts  --      0.0627                 0.1889                 0.3147
 IR Inten    --     34.3790                44.7956                 0.8440

                     13                     14                     15
                      A                      A                      A
 Frequencies --    317.4964               346.7991               357.5942
 Red. masses --      3.4904                 2.9259                 2.4997
 Frc consts  --      0.2073                 0.2073                 0.1883
 IR Inten    --      2.2564                 9.4573                35.7831

                     16                     17                     18
                      A                      A                      A
 Frequencies --    398.9872               421.1221               446.5521
 Red. masses --      2.1260                 2.4465                 2.1172
 Frc consts  --      0.1994                 0.2556                 0.2487
 IR Inten    --     19.8147                 5.4572                 3.1097

                     19                     20                     21
                      A                      A                      A
 Frequencies --    543.2997               553.6481               596.4740
 Red. masses --      2.0343                 3.5418                 1.5245
 Frc consts  --      0.3538                 0.6397                 0.3196
 IR Inten    --     49.6328                16.6808               139.4995

                     22                     23                     24
                      A                      A                      A
 Frequencies --    610.9818               623.1725               639.5681
 Red. masses --      1.3151                 1.5333                 3.5842
 Frc consts  --      0.2892                 0.3508                 0.8638
 IR Inten    --     18.6462                14.1053                78.6817

                     25                     26                     27
                      A                      A                      A
 Frequencies --    682.9905               693.4991               695.2618
 Red. masses --      2.6537                 2.9465                 3.1176
 Frc consts  --      0.7293                 0.8349                 0.8879
 IR Inten    --     60.2602                16.2972                 1.2355

                     28                     29                     30
                      A                      A                      A
 Frequencies --    726.3934               776.5462               837.8659
 Red. masses --      3.4317                 4.2513                 1.4354
 Frc consts  --      1.0669                 1.5104                 0.5937
 IR Inten    --      1.6416                13.5500                 9.6657

                     31                     32                     33
                      A                      A                      A
 Frequencies --    848.2989               852.2773               868.4457
 Red. masses --      1.6974                 2.0188                 2.2719
 Frc consts  --      0.7197                 0.8640                 1.0095
 IR Inten    --     29.9961                11.5043                22.3065

                     34                     35                     36
                      A                      A                      A
 Frequencies --    883.7026               924.9421               953.1728
 Red. masses --      2.1461                 2.6476                 5.1828
 Frc consts  --      0.9874                 1.3345                 2.7743
 IR Inten    --      2.2865                14.3102                12.9267

                     37                     38                     39
                      A                      A                      A
 Frequencies --    968.6008               977.9600              1004.1728
 Red. masses --      1.6065                 2.9348                 3.0792
 Frc consts  --      0.8880                 1.6538                 1.8294
 IR Inten    --     10.8274                 5.2818                 9.8033

                     40                     41                     42
                      A                      A                      A
 Frequencies --   1034.1955              1046.8218              1098.0319
 Red. masses --      3.5694                 2.9185                 2.0994
 Frc consts  --      2.2493                 1.8843                 1.4913
 IR Inten    --      3.0594                20.9060                 6.2998

                     43                     44                     45
                      A                      A                      A
 Frequencies --   1126.7289              1132.0953              1135.1629
 Red. masses --      1.4951                 1.5842                 1.8572
 Frc consts  --      1.1183                 1.1963                 1.4100
 IR Inten    --     80.7414                15.1663                38.0280

                     46                     47                     48
                      A                      A                      A
 Frequencies --   1146.3836              1170.8367              1206.4697
 Red. masses --      1.7551                 2.0458                 1.7835
 Frc consts  --      1.3590                 1.6524                 1.5295
 IR Inten    --      8.5013               209.0534                 5.3022

                     49                     50                     51
                      A                      A                      A
 Frequencies --   1252.6885              1259.3139              1280.6963
 Red. masses --      1.5824                 1.7113                 1.6320
 Frc consts  --      1.4631                 1.5990                 1.5771
 IR Inten    --      6.3216                30.3509                 1.8728

                     52                     53                     54
                      A                      A                      A
 Frequencies --   1288.0101              1289.5686              1332.2323
 Red. masses --      1.3808                 1.5125                 1.3186
 Frc consts  --      1.3497                 1.4819                 1.3788
 IR Inten    --      6.3912                 4.8271                26.0270

                     55                     56                     57
                      A                      A                      A
 Frequencies --   1342.9317              1353.1881              1388.8675
 Red. masses --      1.4141                 1.2644                 1.7015
 Frc consts  --      1.5026                 1.3641                 1.9338
 IR Inten    --     23.4763                 6.4593                42.1872

                     58                     59                     60
                      A                      A                      A
 Frequencies --   1394.6897              1421.7902              1426.6707
 Red. masses --      2.9478                 2.1812                 1.4392
 Frc consts  --      3.3783                 2.5979                 1.7259
 IR Inten    --      7.9444               113.1546                32.2680

                     61                     62                     63
                      A                      A                      A
 Frequencies --   1434.4795              1469.8343              1482.6943
 Red. masses --      2.6326                 1.1001                 1.2706
 Frc consts  --      3.1917                 1.4003                 1.6457
 IR Inten    --     34.9340                29.6657               152.6102

                     64                     65                     66
                      A                      A                      A
 Frequencies --   1491.5295              1502.1430              1509.1993
 Red. masses --      1.1371                 2.5710                 1.0996
 Frc consts  --      1.4904                 3.4180                 1.4757
 IR Inten    --     29.1032                38.6678                13.1471

                     67                     68                     69
                      A                      A                      A
 Frequencies --   1562.1536              1610.8190              1636.5786
 Red. masses --      2.3165                 4.1502                 1.1297
 Frc consts  --      3.3306                 6.3447                 1.7827
 IR Inten    --    204.6138                 7.9848               124.4391

                     70                     71                     72
                      A                      A                      A
 Frequencies --   1686.9193              1710.8418              1829.7783
 Red. masses --      1.1067                 3.8413                10.2226
 Frc consts  --      1.8556                 6.6245                20.1655
 IR Inten    --    177.3002                93.3602               249.6830

                     73                     74                     75
                      A                      A                      A
 Frequencies --   3061.2033              3062.5813              3065.8366
 Red. masses --      1.0656                 1.0605                 1.0795
 Frc consts  --      5.8836                 5.8603                 5.9779
 IR Inten    --     69.9875                14.2817               386.4228

                     76                     77                     78
                      A                      A                      A
 Frequencies --   3092.0921              3100.6139              3105.3291
 Red. masses --      1.0743                 1.0884                 1.0991
 Frc consts  --      6.0519                 6.1649                 6.2444
 IR Inten    --     13.5448                16.4249                 1.1903

                     79                     80                     81
                      A                      A                      A
 Frequencies --   3121.2295              3129.5497              3149.5231
 Red. masses --      1.0906                 1.0636                 1.1067
 Frc consts  --      6.2597                 6.1374                 6.4680
 IR Inten    --      6.2909               319.3033                16.0780

                     82                     83                     84
                      A                      A                      A
 Frequencies --   3243.9061              3253.8793              3517.0473
 Red. masses --      1.0965                 1.0999                 1.0782
 Frc consts  --      6.7984                 6.8615                 7.8576
 IR Inten    --      1.3591                 2.7859               101.3456

                     85                     86                     87
                      A                      A                      A
 Frequencies --   3582.1980              3641.7365              3735.7607
 Red. masses --      1.0777                 1.0819                 1.0643
 Frc consts  --      8.1481                 8.4535                 8.7513
 IR Inten    --     92.9266                85.5970               132.6445

 - Thermochemistry -
 -------------------
 Temperature   298.150 Kelvin.  Pressure   1.00000 Atm.
 Atom     1 has atomic number  8 and mass  15.99491

 Molecular mass:   227.11442 amu.
 Principal axes and moments of inertia in atomic units:
                           1         2         3
     Eigenvalues --  2163.854844466.589295834.87683
           X            0.73431   0.46942   0.49035
           Y           -0.64826   0.69922   0.30141
           Z           -0.20138  -0.53920   0.81775
 This molecule is an asymmetric top.
 Rotational symmetry number  1.
 Warning -- assumption of classical behavior for rotation
           may cause significant error
 Rotational temperatures (Kelvin)      0.04003     0.01939     0.01484
 Rotational constants (GHZ):           0.83404     0.40405     0.30930
 Zero-point vibrational energy     683647.6 (Joules/Mol)
                                  163.39569 (Kcal/Mol)
 Warning -- explicit consideration of  22 degrees of freedom as
           vibrations may cause significant error
 Vibrational temperatures:     80.29    96.39   145.48   155.20   163.77
          (Kelvin)            183.22   217.55   225.54   251.32   291.24
                              378.53   444.85   456.81   498.97   514.50
                              574.05   605.90   642.49   781.69   796.58
                              858.19   879.07   896.61   920.19   982.67
                              997.79  1000.33  1045.12  1117.28  1205.50
                             1220.51  1226.24  1249.50  1271.45  1330.78
                             1371.40  1393.60  1407.06  1444.78  1487.97
                             1506.14  1579.82  1621.11  1628.83  1633.24
                             1649.39  1684.57  1735.84  1802.34  1811.87
                             1842.63  1853.16  1855.40  1916.78  1932.18
                             1946.93  1998.27  2006.64  2045.64  2052.66
                             2063.89  2114.76  2133.26  2145.98  2161.25
                             2171.40  2247.59  2317.61  2354.67  2427.10
                             2461.52  2632.64  4404.38  4406.37  4411.05
                             4448.83  4461.09  4467.87  4490.75  4502.72
                             4531.46  4667.25  4681.60  5060.24  5153.98
                             5239.64  5374.92

 Zero-point correction=                           0.260388 (Hartree/Particle)
 Thermal correction to Energy=                    0.275405
 Thermal correction to Enthalpy=                  0.276349
 Thermal correction to Gibbs Free Energy=         0.218427
 Sum of electronic and zero-point Energies=           -796.567617
 Sum of electronic and thermal Energies=              -796.552600
 Sum of electronic and thermal Enthalpies=            -796.551656
 Sum of electronic and thermal Free Energies=         -796.609578

                     E (Thermal)             CV                S
                      KCal/Mol        Cal/Mol-Kelvin    Cal/Mol-Kelvin
 Total                  172.819             57.499            121.907
 Electronic               0.000              0.000              0.000
 Translational            0.889              2.981             42.163
 Rotational               0.889              2.981             32.400
 Vibrational            171.042             51.537             47.344
 Vibration     1          0.596              1.975              4.600
 Vibration     2          0.598              1.970              4.240
 Vibration     3          0.604              1.948              3.433
 Vibration     4          0.606              1.943              3.307
 Vibration     5          0.607              1.938              3.203
 Vibration     6          0.611              1.926              2.986
 Vibration     7          0.619              1.901              2.657
 Vibration     8          0.620              1.895              2.589
 Vibration     9          0.627              1.874              2.385
 Vibration    10          0.639              1.836              2.111
 Vibration    11          0.670              1.740              1.641
 Vibration    12          0.699              1.656              1.367
 Vibration    13          0.704              1.640              1.323
 Vibration    14          0.725              1.582              1.181
 Vibration    15          0.733              1.560              1.133
 Vibration    16          0.765              1.472              0.966
 Vibration    17          0.784              1.424              0.888
 Vibration    18          0.806              1.369              0.806
 Vibration    19          0.898              1.154              0.558
 Vibration    20          0.909              1.132              0.537
 Vibration    21          0.954              1.039              0.456
 Vibration    22          0.970              1.009              0.431

 Optimization completed.
    -- Stationary point found.
 Normal termination of Gaussian 09 at Sat Jul 24 14:41:21 2021.
