 Gaussian 09, Revision D.01,
 Gaussian 09:  ES64L-G09RevD.01 24-Apr-2013

 ----------------------------------------------------------------------
 # B3LYP/6-311G(2df,2pd) EmpiricalDispersion=GD3BJ opt=calcfc freq=nora
 man nosymm integral(ultrafinegrid)
 ----------------------------------------------------------------------

 -----------------------------------------------------------
 Candidate Structure: Conf:55 OPT and FREQ calc in gas phase
 -----------------------------------------------------------
 Symbolic Z-matrix:
 Charge =  1 Multiplicity = 1

 SCF Done:  E(RB3LYP) =  -796.770998704     A.U. after   16 cycles
 SCF Done:  E(RB3LYP) =  -796.776931514     A.U. after   14 cycles
 SCF Done:  E(RB3LYP) =  -796.773745500     A.U. after   14 cycles
 SCF Done:  E(RB3LYP) =  -796.777310694     A.U. after   11 cycles
 SCF Done:  E(RB3LYP) =  -796.778305634     A.U. after   12 cycles
 SCF Done:  E(RB3LYP) =  -796.778189271     A.U. after   11 cycles
 SCF Done:  E(RB3LYP) =  -796.778325552     A.U. after    9 cycles
 SCF Done:  E(RB3LYP) =  -796.778713387     A.U. after   11 cycles
 SCF Done:  E(RB3LYP) =  -796.778877272     A.U. after   11 cycles
 SCF Done:  E(RB3LYP) =  -796.778949380     A.U. after   10 cycles
 SCF Done:  E(RB3LYP) =  -796.778974946     A.U. after   10 cycles
 SCF Done:  E(RB3LYP) =  -796.778979909     A.U. after    9 cycles
 SCF Done:  E(RB3LYP) =  -796.778981225     A.U. after    9 cycles
 SCF Done:  E(RB3LYP) =  -796.778981631     A.U. after    8 cycles
 SCF Done:  E(RB3LYP) =  -796.778981665     A.U. after    6 cycles
 Optimization completed.
    -- Stationary point found.
 Normal termination of Gaussian 09 at Sat Jul 24 08:00:46 2021.

 ----------------------------------------------------------------------
 #N Geom=AllCheck Guess=TCheck SCRF=Check GenChk RB3LYP/6-311G(2df,2pd)
  Freq
 ----------------------------------------------------------------------

 Structure from the checkpoint file:  "conf-55.chk"
 -----------------------------------------------------------
 Candidate Structure: Conf:55 OPT and FREQ calc in gas phase
 -----------------------------------------------------------
 Charge =  1 Multiplicity = 1

                          Input orientation:
 ---------------------------------------------------------------------
 Center     Atomic      Atomic             Coordinates (Angstroms)
 Number     Number       Type             X           Y           Z
 ---------------------------------------------------------------------
      1          8           0        1.458791    0.453897    1.173407
      2          6           0        1.542600   -0.010693    0.047848
      3          7           0        0.514794   -0.498365   -0.657595
      4          6           0       -0.813607   -0.649391   -0.094746
      5          6           0       -1.513278   -1.716086   -0.947312
      6          8           0       -2.706286   -2.125178   -0.531902
      7          8           0       -1.003699   -2.151467   -1.946892
      8          6           0       -1.584752    0.692377   -0.067147
      9          6           0       -2.914862    0.569677    0.598033
     10          6           0       -3.284066    0.081244    1.830143
     11          7           0       -4.650338    0.121705    1.980221
     12          6           0       -5.113099    0.626277    0.864726
     13          7           0       -4.104418    0.910284   -0.009266
     14          6           0        2.906959   -0.055121   -0.657971
     15          6           0        3.940417    0.467385    0.320695
     16          7           0        5.327872    0.453322   -0.305433
     17          1           0        0.640718   -0.984029   -1.538072
     18          1           0       -0.724382   -1.010334    0.931530
     19          1           0       -2.991872   -1.636689    0.261320
     20          1           0       -1.698748    1.051700   -1.091078
     21          1           0       -0.954495    1.408135    0.460566
     22          1           0       -2.642595   -0.269426    2.621771
     23          1           0       -6.148780    0.804856    0.630126
     24          1           0       -4.208234    1.289328   -0.935299
     25          1           0        3.129640   -1.080388   -0.963268
     26          1           0        2.868837    0.557915   -1.561684
     27          1           0        3.736589    1.491349    0.617285
     28          1           0        3.994183   -0.140855    1.218305
     29          1           0        5.602020   -0.492194   -0.579102
     30          1           0        5.362777    1.036459   -1.143684
     31          1           0        6.031151    0.804306    0.347245
 ---------------------------------------------------------------------

 SCF Done:  E(RB3LYP) =  -796.778981665     A.U. after    1 cycles

 Alpha  occ. eigenvalues --  -19.26208 -19.22172 -19.21067 -14.63880 -14.46388
 Alpha  occ. eigenvalues --  -14.45863 -14.37517 -10.41438 -10.41180 -10.40644
 Alpha  occ. eigenvalues --  -10.35500 -10.34314 -10.30815 -10.30235 -10.29860
 Alpha  occ. eigenvalues --  -10.27269  -1.20976  -1.20610  -1.17897  -1.12988
 Alpha  occ. eigenvalues --   -1.10876  -1.06149  -0.96772  -0.96329  -0.91436
 Alpha  occ. eigenvalues --   -0.85900  -0.83003  -0.79135  -0.78833  -0.77537
 Alpha  occ. eigenvalues --   -0.72981  -0.71276  -0.70659  -0.69325  -0.68175
 Alpha  occ. eigenvalues --   -0.67328  -0.64956  -0.63572  -0.60810  -0.60460
 Alpha  occ. eigenvalues --   -0.58025  -0.57354  -0.56573  -0.55426  -0.54631
 Alpha  occ. eigenvalues --   -0.53875  -0.53071  -0.52265  -0.51059  -0.50765
 Alpha  occ. eigenvalues --   -0.49951  -0.48682  -0.47888  -0.42550  -0.40173
 Alpha  occ. eigenvalues --   -0.39480  -0.38709  -0.37657  -0.35574  -0.32449
 Alpha virt. eigenvalues --   -0.19001  -0.13243  -0.12488  -0.11182  -0.10256
 Alpha virt. eigenvalues --   -0.09845  -0.07492  -0.07138  -0.05623  -0.05426
 Alpha virt. eigenvalues --   -0.04653  -0.04540  -0.03539  -0.02236  -0.01723

 Mulliken charges:
               1
     1  O   -0.417176
     2  C    0.497978
     3  N   -0.341595
     4  C    0.036972
     5  C    0.540577
     6  O   -0.276126
     7  O   -0.367300
     8  C    0.030752
     9  C    0.027916
    10  C    0.074250
    11  N   -0.337641
    12  C    0.249511
    13  N   -0.224965
    14  C   -0.128563
    15  C    0.155153
    16  N    0.087993
    17  H    0.114262
    18  H    0.042507
    19  H    0.231965
    20  H    0.020341
    21  H    0.046608
    22  H    0.034946
    23  H    0.042683
    24  H    0.116828
    25  H    0.053216
    26  H    0.052626
    27  H    0.084847
    28  H    0.085114
    29  H    0.160182
    30  H    0.159458
    31  H    0.146681
 Sum of Mulliken charges =   1.00000

 Dipole moment (field-independent basis, Debye):
    X=             19.8528    Y=              3.9963    Z=             -3.7537  Tot=             20.5960
 Quadrupole moment (field-independent basis, Debye-Ang):
   XX=             39.9885   YY=            -92.5943   ZZ=            -97.9831
   XY=             -1.5272   XZ=              0.3847   YZ=            -10.0637

  Exact polarizability: 182.355   0.681 101.061 -11.590   4.762 120.633
 Approx polarizability: 222.309   0.943 159.559 -11.883   2.389 212.555

 ******    1 imaginary frequencies (negative Signs) ******

                      1                      2                      3
                      A                      A                      A
 Frequencies --     -3.6679                18.8819                34.8006
 Red. masses --      1.9654                 4.4182                 3.1966
 Frc consts  --      0.0000                 0.0009                 0.0023
 IR Inten    --      1.3822                 5.3526                11.0767

                      4                      5                      6
                      A                      A                      A
 Frequencies --     45.9919                67.1288                87.9783
 Red. masses --      4.9484                 7.6435                 6.5579
 Frc consts  --      0.0062                 0.0203                 0.0299
 IR Inten    --      0.5898                15.6045                 8.4427

                      7                      8                      9
                      A                      A                      A
 Frequencies --     92.8291               106.8720               126.3319
 Red. masses --      4.0543                 5.9313                 4.2610
 Frc consts  --      0.0206                 0.0399                 0.0401
 IR Inten    --      3.8516                 7.4506                 5.2938

                     10                     11                     12
                      A                      A                      A
 Frequencies --    187.5805               225.7201               228.6777
 Red. masses --      5.2477                 1.0658                 5.0115
 Frc consts  --      0.1088                 0.0320                 0.1544
 IR Inten    --      2.6125                 0.1286                36.9862

                     13                     14                     15
                      A                      A                      A
 Frequencies --    277.3414               325.1231               332.4973
 Red. masses --      5.8262                 2.3073                 6.7794
 Frc consts  --      0.2640                 0.1437                 0.4416
 IR Inten    --      9.3397                 5.1997                 0.1934

                     16                     17                     18
                      A                      A                      A
 Frequencies --    347.4014               374.2872               397.3158
 Red. masses --      5.4761                 3.9958                 4.3965
 Frc consts  --      0.3894                 0.3298                 0.4089
 IR Inten    --     17.8488                15.5910                 9.5733

                     19                     20                     21
                      A                      A                      A
 Frequencies --    549.5127               562.5067               568.2193
 Red. masses --      1.4032                 4.5892                 2.0673
 Frc consts  --      0.2497                 0.8555                 0.3933
 IR Inten    --     76.0253                18.4350                23.9379

                     22                     23                     24
                      A                      A                      A
 Frequencies --    623.3985               654.1684               665.0368
 Red. masses --      3.0362                 1.5374                 1.2916
 Frc consts  --      0.6952                 0.3876                 0.3366
 IR Inten    --     27.4926                 8.6641                61.4756

                     25                     26                     27
                      A                      A                      A
 Frequencies --    673.4239               685.7822               715.4065
 Red. masses --      2.6203                 3.0947                 3.9147
 Frc consts  --      0.7001                 0.8575                 1.1805
 IR Inten    --      8.3088                23.1564                14.1913

                     28                     29                     30
                      A                      A                      A
 Frequencies --    746.3927               764.7845               792.5962
 Red. masses --      3.1758                 3.8528                 1.2318
 Frc consts  --      1.0424                 1.3277                 0.4559
 IR Inten    --      0.8760                 0.5458                 9.3154

                     31                     32                     33
                      A                      A                      A
 Frequencies --    822.0412               847.8572               867.0414
 Red. masses --      2.9287                 1.4077                 1.4369
 Frc consts  --      1.1660                 0.5962                 0.6365
 IR Inten    --      1.5463                23.5624                24.7252

                     34                     35                     36
                      A                      A                      A
 Frequencies --    881.5141               919.6090               938.6106
 Red. masses --      3.0761                 1.2649                 3.5150
 Frc consts  --      1.4084                 0.6303                 1.8245
 IR Inten    --     37.1835                 4.0026                37.0262

                     37                     38                     39
                      A                      A                      A
 Frequencies --    943.7776               980.3975              1015.1948
 Red. masses --      5.6550                 2.0194                 3.0585
 Frc consts  --      2.9677                 1.1436                 1.8572
 IR Inten    --     11.9481                29.7412                 6.5822

                     40                     41                     42
                      A                      A                      A
 Frequencies --   1029.1431              1037.1331              1102.0281
 Red. masses --      3.0727                 4.1894                 1.5833
 Frc consts  --      1.9174                 2.6550                 1.1329
 IR Inten    --     13.6212                 4.1866                 5.6565

                     43                     44                     45
                      A                      A                      A
 Frequencies --   1107.5835              1109.3912              1147.9757
 Red. masses --      1.6605                 2.7055                 2.3124
 Frc consts  --      1.2002                 1.9619                 1.7955
 IR Inten    --      9.1938                38.1821                12.4175

                     46                     47                     48
                      A                      A                      A
 Frequencies --   1153.3943              1172.4768              1229.1638
 Red. masses --      2.7316                 1.3693                 1.7308
 Frc consts  --      2.1410                 1.1091                 1.5407
 IR Inten    --      3.5496                 1.2506                16.0247

                     49                     50                     51
                      A                      A                      A
 Frequencies --   1239.0073              1255.6274              1284.0311
 Red. masses --      1.7516                 1.9427                 1.4596
 Frc consts  --      1.5843                 1.8045                 1.4179
 IR Inten    --      4.5206                14.5317                 0.8616

                     52                     53                     54
                      A                      A                      A
 Frequencies --   1287.0780              1310.4835              1330.5083
 Red. masses --      1.3327                 1.3844                 1.4694
 Frc consts  --      1.3007                 1.4008                 1.5326
 IR Inten    --      1.4418                10.9370                44.8642

                     55                     56                     57
                      A                      A                      A
 Frequencies --   1337.4059              1342.4282              1366.2427
 Red. masses --      1.2231                 1.3653                 1.4080
 Frc consts  --      1.2889                 1.4497                 1.5485
 IR Inten    --     26.3724                23.7721               109.1057

                     58                     59                     60
                      A                      A                      A
 Frequencies --   1401.9492              1405.6387              1417.0925
 Red. masses --      2.5931                 1.3658                 2.1589
 Frc consts  --      3.0028                 1.5900                 2.5543
 IR Inten    --     70.1341                26.3723               165.9288

                     61                     62                     63
                      A                      A                      A
 Frequencies --   1428.9845              1484.4980              1485.5224
 Red. masses --      3.1347                 1.1299                 2.3102
 Frc consts  --      3.7714                 1.4671                 3.0037
 IR Inten    --     20.4483                 1.9199                16.0636

                     64                     65                     66
                      A                      A                      A
 Frequencies --   1495.9300              1497.0805              1512.3522
 Red. masses --      1.3780                 1.0833                 1.1809
 Frc consts  --      1.8169                 1.4305                 1.5913
 IR Inten    --     18.7970                 6.5209               196.9538

                     67                     68                     69
                      A                      A                      A
 Frequencies --   1538.7535              1595.7526              1665.9532
 Red. masses --      2.4828                 3.9938                 1.0421
 Frc consts  --      3.4636                 5.9919                 1.7041
 IR Inten    --    342.2132                10.1520                47.3554

                     70                     71                     72
                      A                      A                      A
 Frequencies --   1669.2944              1748.6756              1829.0957
 Red. masses --      1.0452                10.1669                 9.1746
 Frc consts  --      1.7160                18.3172                18.0846
 IR Inten    --     38.4477               282.2014               286.4175

                     73                     74                     75
                      A                      A                      A
 Frequencies --   3033.4145              3046.5729              3059.8885
 Red. masses --      1.0588                 1.0631                 1.0797
 Frc consts  --      5.7401                 5.8137                 5.9559
 IR Inten    --      4.0632                 6.1677                13.1918

                     76                     77                     78
                      A                      A                      A
 Frequencies --   3074.4196              3091.3571              3117.3113
 Red. masses --      1.1047                 1.1045                 1.0594
 Frc consts  --      6.1521                 6.2190                 6.0655
 IR Inten    --      3.2879                 3.4367                 0.6368

                     79                     80                     81
                      A                      A                      A
 Frequencies --   3172.6827              3231.1231              3252.3554
 Red. masses --      1.1120                 1.0963                 1.0989
 Frc consts  --      6.5949                 6.7437                 6.8487
 IR Inten    --      0.0476                 3.4213                 1.0050

                     82                     83                     84
                      A                      A                      A
 Frequencies --   3408.1180              3485.4437              3487.6115
 Red. masses --      1.0296                 1.0929                 1.0931
 Frc consts  --      7.0463                 7.8227                 7.8339
 IR Inten    --     53.9366                84.9202                91.6738

                     85                     86                     87
                      A                      A                      A
 Frequencies --   3526.4226              3593.8972              3645.5969
 Red. masses --      1.0776                 1.0670                 1.0814
 Frc consts  --      7.8956                 8.1201                 8.4680
 IR Inten    --    134.1760               387.0458                61.3531

 - Thermochemistry -
 -------------------
 Temperature   298.150 Kelvin.  Pressure   1.00000 Atm.
 Atom     1 has atomic number  8 and mass  15.99491

 Molecular mass:   227.11442 amu.
 Principal axes and moments of inertia in atomic units:
                           1         2         3
     Eigenvalues --  1596.507718100.425039112.26338
           X            0.99391   0.05556   0.09522
           Y            0.02528   0.72587  -0.68736
           Z           -0.10730   0.68558   0.72004
 This molecule is an asymmetric top.
 Rotational symmetry number  1.
 Warning -- assumption of classical behavior for rotation
           may cause significant error
 Rotational temperatures (Kelvin)      0.05425     0.01069     0.00951
 Rotational constants (GHZ):           1.13043     0.22280     0.19806
    1 imaginary frequencies ignored.
 Zero-point vibrational energy     680303.8 (Joules/Mol)
                                  162.59652 (Kcal/Mol)
 Warning -- explicit consideration of  20 degrees of freedom as
           vibrations may cause significant error
 Vibrational temperatures:     27.17    50.07    66.17    96.58   126.58
          (Kelvin)            133.56   153.76   181.76   269.89   324.76
                              329.02   399.03   467.78   478.39   499.83
                              538.52   571.65   790.63   809.32   817.54
                              896.93   941.20   956.84   968.91   986.69
                             1029.31  1073.89  1100.35  1140.37  1182.73
                             1219.88  1247.48  1268.30  1323.11  1350.45
                             1357.88  1410.57  1460.64  1480.71  1492.20
                             1585.57  1593.56  1596.16  1651.68  1659.48
                             1686.93  1768.49  1782.65  1806.57  1847.43
                             1851.82  1885.49  1914.30  1924.23  1931.45
                             1965.72  2017.09  2022.40  2038.88  2055.99
                             2135.86  2137.33  2152.31  2153.96  2175.93
                             2213.92  2295.93  2396.93  2401.74  2515.95
                             2631.66  4364.40  4383.33  4402.49  4423.40
                             4447.77  4485.11  4564.78  4648.86  4679.41
                             4903.52  5014.77  5017.89  5073.73  5170.81
                             5245.19

 Zero-point correction=                           0.259114 (Hartree/Particle)
 Thermal correction to Energy=                    0.274548
 Thermal correction to Enthalpy=                  0.275492
 Thermal correction to Gibbs Free Energy=         0.213584
 Sum of electronic and zero-point Energies=           -796.519868
 Sum of electronic and thermal Energies=              -796.504433
 Sum of electronic and thermal Enthalpies=            -796.503489
 Sum of electronic and thermal Free Energies=         -796.565398

                     E (Thermal)             CV                S
                      KCal/Mol        Cal/Mol-Kelvin    Cal/Mol-Kelvin
 Total                  172.282             56.602            130.297
 Electronic               0.000              0.000              0.000
 Translational            0.889              2.981             42.163
 Rotational               0.889              2.981             33.132
 Vibrational            170.504             50.641             55.001
 Vibration     1          0.593              1.986              6.748
 Vibration     2          0.594              1.983              5.535
 Vibration     3          0.595              1.979              4.983
 Vibration     4          0.598              1.970              4.236
 Vibration     5          0.601              1.958              3.705
 Vibration     6          0.602              1.954              3.600
 Vibration     7          0.606              1.944              3.325
 Vibration     8          0.611              1.927              3.001
 Vibration     9          0.632              1.857              2.252
 Vibration    10          0.650              1.802              1.913
 Vibration    11          0.651              1.797              1.889
 Vibration    12          0.678              1.715              1.550
 Vibration    13          0.709              1.625              1.284
 Vibration    14          0.714              1.611              1.248
 Vibration    15          0.725              1.581              1.178
 Vibration    16          0.745              1.525              1.062
 Vibration    17          0.764              1.476              0.973
 Vibration    18          0.905              1.141              0.545
 Vibration    19          0.918              1.112              0.519
 Vibration    20          0.924              1.100              0.508

 Normal termination of Gaussian 09 at Sat Jul 24 11:39:18 2021.
