 Gaussian 09, Revision D.01,
 Gaussian 09:  ES64L-G09RevD.01 24-Apr-2013

 ----------------------------------------------------------------------
 # B3LYP/6-311G(2df,2pd) EmpiricalDispersion=GD3BJ opt=calcfc freq=nora
 man nosymm integral(ultrafinegrid)
 ----------------------------------------------------------------------

 ------------------------------------------------------------
 Candidate Structure: Conf:661 OPT and FREQ calc in gas phase
 ------------------------------------------------------------
 Symbolic Z-matrix:
 Charge =  1 Multiplicity = 1

 SCF Done:  E(RB3LYP) =  -796.781536610     A.U. after   14 cycles
 SCF Done:  E(RB3LYP) =  -796.724165299     A.U. after   14 cycles
 SCF Done:  E(RB3LYP) =  -796.788342544     A.U. after   11 cycles
 SCF Done:  E(RB3LYP) =  -796.791295863     A.U. after   12 cycles
 SCF Done:  E(RB3LYP) =  -796.794292277     A.U. after   12 cycles
 SCF Done:  E(RB3LYP) =  -796.797153970     A.U. after   12 cycles
 SCF Done:  E(RB3LYP) =  -796.798702713     A.U. after   12 cycles
 SCF Done:  E(RB3LYP) =  -796.799308079     A.U. after   12 cycles
 SCF Done:  E(RB3LYP) =  -796.799504787     A.U. after   11 cycles
 SCF Done:  E(RB3LYP) =  -796.799215867     A.U. after   12 cycles
 SCF Done:  E(RB3LYP) =  -796.799605410     A.U. after    8 cycles
 SCF Done:  E(RB3LYP) =  -796.799692013     A.U. after   10 cycles
 SCF Done:  E(RB3LYP) =  -796.799715085     A.U. after   10 cycles
 SCF Done:  E(RB3LYP) =  -796.799720446     A.U. after    9 cycles
 SCF Done:  E(RB3LYP) =  -796.799721451     A.U. after    8 cycles
 SCF Done:  E(RB3LYP) =  -796.799721784     A.U. after    7 cycles
 SCF Done:  E(RB3LYP) =  -796.799721919     A.U. after    6 cycles
 SCF Done:  E(RB3LYP) =  -796.799722001     A.U. after    6 cycles
 SCF Done:  E(RB3LYP) =  -796.799722059     A.U. after    6 cycles
 Optimization completed.
    -- Stationary point found.
 Normal termination of Gaussian 09 at Sat Jul 24 09:54:47 2021.

 ----------------------------------------------------------------------
 #N Geom=AllCheck Guess=TCheck SCRF=Check GenChk RB3LYP/6-311G(2df,2pd)
  Freq
 ----------------------------------------------------------------------

 Structure from the checkpoint file:  "conf-661.chk"
 ------------------------------------------------------------
 Candidate Structure: Conf:661 OPT and FREQ calc in gas phase
 ------------------------------------------------------------
 Charge =  1 Multiplicity = 1

                          Input orientation:
 ---------------------------------------------------------------------
 Center     Atomic      Atomic             Coordinates (Angstroms)
 Number     Number       Type             X           Y           Z
 ---------------------------------------------------------------------
      1          8           0        2.103487    1.151399    0.924588
      2          6           0        1.403798    0.969700   -0.053547
      3          7           0        0.176938    0.397147    0.034390
      4          6           0       -0.261803   -0.132950    1.298175
      5          6           0        0.763049   -1.167381    1.772637
      6          8           0        0.800616   -1.433823    3.067059
      7          8           0        1.465557   -1.800913    1.012788
      8          6           0       -1.639047   -0.837850    1.128049
      9          6           0       -2.601354   -0.020769    0.346512
     10          6           0       -2.958531   -0.091045   -0.977691
     11          7           0       -3.803410    0.937900   -1.311350
     12          6           0       -3.965570    1.629493   -0.212240
     13          7           0       -3.250311    1.099802    0.823805
     14          6           0        1.962172    1.139699   -1.456950
     15          6           0        3.119572    0.153855   -1.584078
     16          7           0        2.649447   -1.266670   -1.351999
     17          1           0       -0.486901    0.416747   -0.727317
     18          1           0       -0.331379    0.663865    2.043225
     19          1           0        0.253906   -0.827626    3.582464
     20          1           0       -2.023503   -1.095481    2.115784
     21          1           0       -1.482198   -1.776145    0.595725
     22          1           0       -2.680180   -0.848777   -1.692605
     23          1           0       -4.580801    2.506284   -0.099231
     24          1           0       -3.254831    1.432407    1.773275
     25          1           0        2.366312    2.144200   -1.570129
     26          1           0        1.213186    0.982848   -2.234240
     27          1           0        3.859110    0.359061   -0.815130
     28          1           0        3.586956    0.189156   -2.564452
     29          1           0        3.439336   -1.911257   -1.354806
     30          1           0        2.146235   -1.396021   -0.426074
     31          1           0        2.009737   -1.566747   -2.086630
 ---------------------------------------------------------------------

 SCF Done:  E(RB3LYP) =  -796.799722059     A.U. after    1 cycles

 Alpha  occ. eigenvalues --  -19.31785 -19.26437 -19.23272 -14.58380 -14.48539
 Alpha  occ. eigenvalues --  -14.48157 -14.39724 -10.45952 -10.41772 -10.39465
 Alpha  occ. eigenvalues --  -10.37750 -10.34193 -10.33325 -10.33204 -10.32517
 Alpha  occ. eigenvalues --  -10.29709  -1.26409  -1.19598  -1.17852  -1.15608
 Alpha  occ. eigenvalues --   -1.13166  -1.08279  -0.98713  -0.95729  -0.93365
 Alpha  occ. eigenvalues --   -0.87500  -0.82861  -0.80189  -0.78075  -0.75438
 Alpha  occ. eigenvalues --   -0.74298  -0.73623  -0.72955  -0.71247  -0.68737
 Alpha  occ. eigenvalues --   -0.66583  -0.66151  -0.65224  -0.64809  -0.61208
 Alpha  occ. eigenvalues --   -0.60170  -0.59096  -0.58078  -0.57379  -0.56502
 Alpha  occ. eigenvalues --   -0.55958  -0.54494  -0.53764  -0.53161  -0.52616
 Alpha  occ. eigenvalues --   -0.52408  -0.52044  -0.50598  -0.47644  -0.44549
 Alpha  occ. eigenvalues --   -0.41659  -0.40911  -0.39939  -0.37852  -0.34954
 Alpha virt. eigenvalues --   -0.15572  -0.14673  -0.13826  -0.11363  -0.10137
 Alpha virt. eigenvalues --   -0.08937  -0.08400  -0.07666  -0.07108  -0.05802
 Alpha virt. eigenvalues --   -0.04609  -0.04091  -0.03199  -0.02437  -0.02328

 Mulliken charges:
               1
     1  O   -0.400643
     2  C    0.357390
     3  N   -0.290675
     4  C    0.052968
     5  C    0.574681
     6  O   -0.271633
     7  O   -0.432249
     8  C    0.035015
     9  C    0.033456
    10  C    0.084147
    11  N   -0.330406
    12  C    0.255160
    13  N   -0.236663
    14  C   -0.006670
    15  C    0.082703
    16  N    0.079902
    17  H    0.132334
    18  H    0.037308
    19  H    0.237832
    20  H    0.044080
    21  H    0.048775
    22  H    0.029274
    23  H    0.047080
    24  H    0.119399
    25  H    0.061320
    26  H    0.046070
    27  H    0.082393
    28  H    0.069648
    29  H    0.132908
    30  H    0.193736
    31  H    0.131356
 Sum of Mulliken charges =   1.00000

 Dipole moment (field-independent basis, Debye):
    X=              4.7103    Y=             -1.6915    Z=             -1.2771  Tot=              5.1652
 Quadrupole moment (field-independent basis, Debye-Ang):
   XX=            -63.7297   YY=            -82.8170   ZZ=            -67.6693
   XY=            -12.7158   XZ=            -36.2120   YZ=              9.0020

  Exact polarizability: 148.960 -15.938 114.968  -1.795  -3.927 135.330
 Approx polarizability: 198.683 -19.726 180.729   8.816   6.260 221.649

                      1                      2                      3
                      A                      A                      A
 Frequencies --     26.8213                35.7228                60.4574
 Red. masses --      3.9936                 4.1489                 6.9019
 Frc consts  --      0.0017                 0.0031                 0.0149
 IR Inten    --     12.5746                 0.8704                12.0224

                      4                      5                      6
                      A                      A                      A
 Frequencies --     68.0418                79.8081               113.0834
 Red. masses --      4.2334                 5.6097                 4.5927
 Frc consts  --      0.0115                 0.0211                 0.0346
 IR Inten    --      4.3205                 6.3767                 2.9737

                      7                      8                      9
                      A                      A                      A
 Frequencies --    150.6035               160.3916               178.0172
 Red. masses --      5.3990                 6.0239                 6.9341
 Frc consts  --      0.0721                 0.0913                 0.1295
 IR Inten    --     19.6131                 3.3570                12.4026

                     10                     11                     12
                      A                      A                      A
 Frequencies --    237.8293               250.3941               281.6228
 Red. masses --      4.0669                 2.6085                 5.8093
 Frc consts  --      0.1355                 0.0964                 0.2715
 IR Inten    --     76.2940                 9.8290                 7.9019

                     13                     14                     15
                      A                      A                      A
 Frequencies --    320.4485               336.3394               347.4591
 Red. masses --      3.2932                 1.1948                 3.0024
 Frc consts  --      0.1992                 0.0796                 0.2136
 IR Inten    --     10.8124                 0.2580                 4.7571

                     16                     17                     18
                      A                      A                      A
 Frequencies --    382.2289               424.0785               443.8592
 Red. masses --      3.6291                 3.8903                 2.3797
 Frc consts  --      0.3124                 0.4122                 0.2762
 IR Inten    --     16.1606                35.1733                 1.8078

                     19                     20                     21
                      A                      A                      A
 Frequencies --    514.2528               522.9720               535.7398
 Red. masses --      1.1676                 1.2110                 1.7651
 Frc consts  --      0.1819                 0.1951                 0.2985
 IR Inten    --     36.3346                31.1159                63.1441

                     22                     23                     24
                      A                      A                      A
 Frequencies --    550.9340               635.1567               660.0612
 Red. masses --      1.9325                 4.4006                 3.2583
 Frc consts  --      0.3456                 1.0460                 0.8364
 IR Inten    --     61.4877                 5.0167                 5.0790

                     25                     26                     27
                      A                      A                      A
 Frequencies --    682.0522               698.7663               720.8058
 Red. masses --      3.0219                 3.7217                 4.3723
 Frc consts  --      0.8283                 1.0707                 1.3384
 IR Inten    --      5.4559                 8.9749                13.0561

                     28                     29                     30
                      A                      A                      A
 Frequencies --    747.6976               784.2360               844.4908
 Red. masses --      2.5194                 5.6302                 2.9851
 Frc consts  --      0.8299                 2.0402                 1.2543
 IR Inten    --      1.9811                 2.9755                 2.8652

                     31                     32                     33
                      A                      A                      A
 Frequencies --    850.9949               854.8136               874.0482
 Red. masses --      1.6889                 1.5079                 1.8826
 Frc consts  --      0.7206                 0.6492                 0.8474
 IR Inten    --     21.2747                12.2798                 7.0196

                     34                     35                     36
                      A                      A                      A
 Frequencies --    878.0305               936.5974               939.4160
 Red. masses --      2.1043                 2.5557                 5.7771
 Frc consts  --      0.9558                 1.3209                 3.0038
 IR Inten    --     14.3178                 4.9891                11.2296

                     37                     38                     39
                      A                      A                      A
 Frequencies --    951.0485               961.6640              1005.5821
 Red. masses --      1.3466                 3.2889                 2.8162
 Frc consts  --      0.7176                 1.7921                 1.6778
 IR Inten    --      8.4923                 3.6958                 9.4414

                     40                     41                     42
                      A                      A                      A
 Frequencies --   1016.1488              1044.0535              1092.0867
 Red. masses --      3.5709                 2.9733                 1.5452
 Frc consts  --      2.1724                 1.9095                 1.0858
 IR Inten    --     15.0357                 4.4833                 4.8155

                     43                     44                     45
                      A                      A                      A
 Frequencies --   1104.6979              1117.5696              1141.3254
 Red. masses --      1.6973                 1.3618                 1.9120
 Frc consts  --      1.2204                 1.0021                 1.4674
 IR Inten    --     19.2988                 3.5468                29.0925

                     46                     47                     48
                      A                      A                      A
 Frequencies --   1150.8398              1196.8046              1212.0504
 Red. masses --      2.2469                 1.6140                 1.6158
 Frc consts  --      1.7533                 1.3621                 1.3985
 IR Inten    --      5.8841                11.1625                37.5733

                     49                     50                     51
                      A                      A                      A
 Frequencies --   1241.7697              1261.5285              1277.2560
 Red. masses --      1.6677                 2.0122                 1.4787
 Frc consts  --      1.5151                 1.8867                 1.4213
 IR Inten    --     78.2288                 4.7111                 6.1123

                     52                     53                     54
                      A                      A                      A
 Frequencies --   1284.6529              1303.6620              1330.6320
 Red. masses --      1.5248                 1.3926                 1.4770
 Frc consts  --      1.4826                 1.3945                 1.5408
 IR Inten    --     56.5365                59.8426               140.0637

                     55                     56                     57
                      A                      A                      A
 Frequencies --   1343.1740              1355.7653              1383.3682
 Red. masses --      1.6053                 1.4718                 1.3835
 Frc consts  --      1.7063                 1.5940                 1.5600
 IR Inten    --    113.9544                15.7774                 3.5135

                     58                     59                     60
                      A                      A                      A
 Frequencies --   1395.4824              1406.4992              1410.4419
 Red. masses --      3.3572                 1.9305                 1.2990
 Frc consts  --      3.8519                 2.2501                 1.5225
 IR Inten    --      6.8133               135.2337                 2.9102

                     61                     62                     63
                      A                      A                      A
 Frequencies --   1425.6616              1480.0518              1482.0318
 Red. masses --      2.7167                 1.0997                 1.2424
 Frc consts  --      3.2533                 1.4194                 1.6078
 IR Inten    --     27.0155                14.8202                17.1216

                     64                     65                     66
                      A                      A                      A
 Frequencies --   1501.0739              1501.5088              1519.3022
 Red. masses --      2.7391                 1.0788                 2.2330
 Frc consts  --      3.6364                 1.4330                 3.0369
 IR Inten    --     36.9628                14.3189               321.9895

                     67                     68                     69
                      A                      A                      A
 Frequencies --   1578.6040              1602.0306              1669.3999
 Red. masses --      1.1556                 4.2334                 1.0495
 Frc consts  --      1.6967                 6.4016                 1.7232
 IR Inten    --     97.7647                 5.9657                57.8413

                     70                     71                     72
                      A                      A                      A
 Frequencies --   1683.2872              1754.4559              1778.4354
 Red. masses --      1.0441                 8.5461                 8.4908
 Frc consts  --      1.7431                15.4989                15.8226
 IR Inten    --     26.5779               221.5528               399.3580

                     73                     74                     75
                      A                      A                      A
 Frequencies --   2775.1666              3031.7092              3052.1298
 Red. masses --      1.0893                 1.0845                 1.0609
 Frc consts  --      4.9429                 5.8727                 5.8228
 IR Inten    --   1276.3817                11.2499                11.0808

                     76                     77                     78
                      A                      A                      A
 Frequencies --   3060.4417              3096.1006              3097.7301
 Red. masses --      1.0640                 1.1032                 1.0600
 Frc consts  --      5.8714                 6.2304                 5.9932
 IR Inten    --      7.1456                 6.6273                 2.6209

                     79                     80                     81
                      A                      A                      A
 Frequencies --   3119.8251              3157.3593              3223.1336
 Red. masses --      1.1005                 1.1115                 1.0965
 Frc consts  --      6.3111                 6.5283                 6.7112
 IR Inten    --      2.1968                 0.1612                 3.9317

                     82                     83                     84
                      A                      A                      A
 Frequencies --   3251.2947              3457.4102              3513.7714
 Red. masses --      1.0990                 1.0525                 1.0925
 Frc consts  --      6.8448                 7.4128                 7.9470
 IR Inten    --      1.2835                70.1307                64.7500

                     85                     86                     87
                      A                      A                      A
 Frequencies --   3549.5187              3643.9168              3789.5163
 Red. masses --      1.0792                 1.0813                 1.0661
 Frc consts  --      8.0113                 8.4593                 9.0206
 IR Inten    --    184.5209                57.6450                85.0087

 - Thermochemistry -
 -------------------
 Temperature   298.150 Kelvin.  Pressure   1.00000 Atm.
 Atom     1 has atomic number  8 and mass  15.99491

 Molecular mass:   227.11442 amu.
 Principal axes and moments of inertia in atomic units:
                           1         2         3
     Eigenvalues --  2330.177645239.150846385.05873
           X            0.98141  -0.09358   0.16754
           Y           -0.19181  -0.45047   0.87194
           Z            0.00612   0.88787   0.46005
 This molecule is an asymmetric top.
 Rotational symmetry number  1.
 Warning -- assumption of classical behavior for rotation
           may cause significant error
 Rotational temperatures (Kelvin)      0.03717     0.01653     0.01357
 Rotational constants (GHZ):           0.77451     0.34447     0.28265
 Zero-point vibrational energy     681340.5 (Joules/Mol)
                                  162.84430 (Kcal/Mol)
 Warning -- explicit consideration of  22 degrees of freedom as
           vibrations may cause significant error
 Vibrational temperatures:     38.59    51.40    86.98    97.90   114.83
          (Kelvin)            162.70   216.68   230.77   256.13   342.18
                              360.26   405.19   461.05   483.92   499.92
                              549.94   610.15   638.61   739.89   752.44
                              770.81   792.67   913.85   949.68   981.32
                             1005.37  1037.08  1075.77  1128.34  1215.03
                             1224.39  1229.88  1257.56  1263.29  1347.55
                             1351.61  1368.34  1383.62  1446.81  1462.01
                             1502.16  1571.27  1589.41  1607.93  1642.11
                             1655.80  1721.93  1743.87  1786.63  1815.06
                             1837.68  1848.33  1875.68  1914.48  1932.53
                             1950.64  1990.36  2007.79  2023.64  2029.31
                             2051.21  2129.46  2132.31  2159.71  2160.33
                             2185.93  2271.26  2304.96  2401.89  2421.87
                             2524.27  2558.77  3992.84  4361.95  4391.33
                             4403.29  4454.59  4456.94  4488.73  4542.73
                             4637.36  4677.88  4974.44  5055.53  5106.96
                             5242.78  5452.26

 Zero-point correction=                           0.259509 (Hartree/Particle)
 Thermal correction to Energy=                    0.275009
 Thermal correction to Enthalpy=                  0.275953
 Thermal correction to Gibbs Free Energy=         0.215114
 Sum of electronic and zero-point Energies=           -796.540213
 Sum of electronic and thermal Energies=              -796.524713
 Sum of electronic and thermal Enthalpies=            -796.523769
 Sum of electronic and thermal Free Energies=         -796.584608

                     E (Thermal)             CV                S
                      KCal/Mol        Cal/Mol-Kelvin    Cal/Mol-Kelvin
 Total                  172.571             57.962            128.047
 Electronic               0.000              0.000              0.000
 Translational            0.889              2.981             42.163
 Rotational               0.889              2.981             32.722
 Vibrational            170.793             52.000             53.162
 Vibration     1          0.593              1.984              6.052
 Vibration     2          0.594              1.982              5.483
 Vibration     3          0.597              1.973              4.442
 Vibration     4          0.598              1.969              4.209
 Vibration     5          0.600              1.963              3.896
 Vibration     6          0.607              1.939              3.215
 Vibration     7          0.618              1.902              2.665
 Vibration     8          0.622              1.891              2.545
 Vibration     9          0.628              1.869              2.349
 Vibration    10          0.656              1.783              1.819
 Vibration    11          0.663              1.762              1.728
 Vibration    12          0.681              1.708              1.524
 Vibration    13          0.706              1.634              1.308
 Vibration    14          0.717              1.603              1.229
 Vibration    15          0.725              1.580              1.178
 Vibration    16          0.752              1.508              1.030
 Vibration    17          0.786              1.418              0.878
 Vibration    18          0.803              1.374              0.815
 Vibration    19          0.869              1.218              0.623
 Vibration    20          0.878              1.199              0.603
 Vibration    21          0.891              1.171              0.575
 Vibration    22          0.906              1.138              0.542

 Normal termination of Gaussian 09 at Sat Jul 24 14:02:25 2021.
