 Gaussian 09, Revision D.01,
 Gaussian 09:  ES64L-G09RevD.01 24-Apr-2013

 ----------------------------------------------------------------------
 # B3LYP/6-311G(2df,2pd) EmpiricalDispersion=GD3BJ opt=calcfc freq=nora
 man nosymm integral(ultrafinegrid)
 ----------------------------------------------------------------------

 ------------------------------------------------------------
 Candidate Structure: Conf:885 OPT and FREQ calc in gas phase
 ------------------------------------------------------------
 Symbolic Z-matrix:
 Charge =  1 Multiplicity = 1

 SCF Done:  E(RB3LYP) =  -796.789390757     A.U. after   13 cycles
 SCF Done:  E(RB3LYP) =  -796.795183222     A.U. after   14 cycles
 SCF Done:  E(RB3LYP) =  -796.796126947     A.U. after   14 cycles
 SCF Done:  E(RB3LYP) =  -796.795573458     A.U. after   14 cycles
 SCF Done:  E(RB3LYP) =  -796.796832967     A.U. after   11 cycles
 SCF Done:  E(RB3LYP) =  -796.757687286     A.U. after   13 cycles
 SCF Done:  E(RB3LYP) =  -796.797074972     A.U. after   10 cycles
 SCF Done:  E(RB3LYP) =  -796.798563551     A.U. after   13 cycles
 SCF Done:  E(RB3LYP) =  -796.510512496     A.U. after   15 cycles
 SCF Done:  E(RB3LYP) =  -796.796112530     A.U. after   10 cycles
 SCF Done:  E(RB3LYP) =  -796.803154058     A.U. after    9 cycles
 SCF Done:  E(RB3LYP) =  -796.803176010     A.U. after   10 cycles
 SCF Done:  E(RB3LYP) =  -796.803184905     A.U. after   10 cycles
 SCF Done:  E(RB3LYP) =  -796.803185911     A.U. after    9 cycles
 SCF Done:  E(RB3LYP) =  -796.803186212     A.U. after    7 cycles
 SCF Done:  E(RB3LYP) =  -796.803186356     A.U. after    6 cycles
 SCF Done:  E(RB3LYP) =  -796.803186446     A.U. after    7 cycles
 SCF Done:  E(RB3LYP) =  -796.803186507     A.U. after    6 cycles
 SCF Done:  E(RB3LYP) =  -796.803186545     A.U. after    6 cycles
 Optimization completed.
    -- Stationary point found.
 Normal termination of Gaussian 09 at Sat Jul 24 18:13:13 2021.

 ----------------------------------------------------------------------
 #N Geom=AllCheck Guess=TCheck SCRF=Check GenChk RB3LYP/6-311G(2df,2pd)
  Freq
 ----------------------------------------------------------------------

 Structure from the checkpoint file:  "conf-885.chk"
 ------------------------------------------------------------
 Candidate Structure: Conf:885 OPT and FREQ calc in gas phase
 ------------------------------------------------------------
 Charge =  1 Multiplicity = 1

                          Input orientation:
 ---------------------------------------------------------------------
 Center     Atomic      Atomic             Coordinates (Angstroms)
 Number     Number       Type             X           Y           Z
 ---------------------------------------------------------------------
      1          8           0       -1.424762   -0.136331   -1.397265
      2          6           0       -1.523535   -1.049913   -0.590649
      3          7           0       -0.522612   -1.459068    0.223149
      4          6           0        0.656178   -0.651193    0.502942
      5          6           0        0.247652    0.600402    1.279989
      6          8           0        1.274424    1.133899    1.911723
      7          8           0       -0.879437    1.056403    1.348609
      8          6           0        1.488881   -0.330116   -0.779117
      9          6           0        2.719911    0.458975   -0.539411
     10          6           0        2.996252    1.778888   -0.778576
     11          7           0        4.251667    2.106201   -0.331876
     12          6           0        4.743693    1.002685    0.172390
     13          7           0        3.854535   -0.028889    0.080758
     14          6           0       -2.897838   -1.650784   -0.346839
     15          6           0       -3.685824   -0.681168    0.550610
     16          7           0       -3.359396    0.754912    0.212973
     17          1           0       -0.725846   -2.202921    0.869499
     18          1           0        1.288645   -1.229799    1.174726
     19          1           0        1.004328    1.958523    2.345521
     20          1           0        1.706413   -1.297655   -1.236939
     21          1           0        0.852773    0.210674   -1.471405
     22          1           0        2.357333    2.505383   -1.253105
     23          1           0        5.723131    0.883611    0.604323
     24          1           0        4.033980   -0.983608    0.340070
     25          1           0       -3.386274   -1.752049   -1.313504
     26          1           0       -2.878638   -2.627711    0.133343
     27          1           0       -4.756042   -0.822748    0.432345
     28          1           0       -3.427105   -0.807101    1.598617
     29          1           0       -4.068062    1.397419    0.559796
     30          1           0       -2.428700    0.994388    0.627291
     31          1           0       -3.235638    0.868769   -0.797991
 ---------------------------------------------------------------------

 SCF Done:  E(RB3LYP) =  -796.803186545     A.U. after    1 cycles

 Alpha  occ. eigenvalues --  -19.31603 -19.27152 -19.24176 -14.57962 -14.49539
 Alpha  occ. eigenvalues --  -14.45672 -14.37214 -10.46070 -10.42907 -10.40217
 Alpha  occ. eigenvalues --  -10.37603 -10.34719 -10.30744 -10.30659 -10.29583
 Alpha  occ. eigenvalues --  -10.26821  -1.26797  -1.20337  -1.17655  -1.15370
 Alpha  occ. eigenvalues --   -1.10582  -1.08840  -0.96398  -0.95650  -0.92565
 Alpha  occ. eigenvalues --   -0.86224  -0.83045  -0.79945  -0.77645  -0.75220
 Alpha  occ. eigenvalues --   -0.73973  -0.73010  -0.70585  -0.68819  -0.68120
 Alpha  occ. eigenvalues --   -0.66488  -0.65806  -0.63911  -0.62892  -0.61314
 Alpha  occ. eigenvalues --   -0.61075  -0.60418  -0.58205  -0.56686  -0.55947
 Alpha  occ. eigenvalues --   -0.55159  -0.53813  -0.53473  -0.53048  -0.51333
 Alpha  occ. eigenvalues --   -0.50619  -0.49946  -0.49459  -0.47953  -0.45060
 Alpha  occ. eigenvalues --   -0.42417  -0.41106  -0.37366  -0.35419  -0.32118
 Alpha virt. eigenvalues --   -0.15996  -0.14528  -0.13402  -0.11202  -0.08831
 Alpha virt. eigenvalues --   -0.08092  -0.07532  -0.07341  -0.06859  -0.05874
 Alpha virt. eigenvalues --   -0.04555  -0.03395  -0.03076  -0.02353  -0.01260

 Mulliken charges:
               1
     1  O   -0.436527
     2  C    0.399915
     3  N   -0.276049
     4  C    0.048752
     5  C    0.610440
     6  O   -0.281397
     7  O   -0.459780
     8  C    0.012241
     9  C    0.054611
    10  C    0.109124
    11  N   -0.338995
    12  C    0.244602
    13  N   -0.241769
    14  C   -0.026223
    15  C    0.139759
    16  N    0.042719
    17  H    0.117331
    18  H    0.047189
    19  H    0.238585
    20  H    0.036558
    21  H    0.058739
    22  H    0.020030
    23  H    0.037925
    24  H    0.110399
    25  H    0.064567
    26  H    0.048841
    27  H    0.069629
    28  H    0.062840
    29  H    0.115681
    30  H    0.206662
    31  H    0.163603
 Sum of Mulliken charges =   1.00000

 Dipole moment (field-independent basis, Debye):
    X=            -10.1742    Y=             -3.6985    Z=              4.7621  Tot=             11.8267
 Quadrupole moment (field-independent basis, Debye-Ang):
   XX=            -36.8592   YY=            -80.0672   ZZ=            -87.1959
   XY=            -14.1621   XZ=              2.2327   YZ=              1.8199

  Exact polarizability: 173.461  13.968 123.520   8.275  -1.454 102.306
 Approx polarizability: 223.712   6.031 205.312  19.771 -14.522 166.878

                      1                      2                      3
                      A                      A                      A
 Frequencies --     11.9597                38.4199                61.9515
 Red. masses --      5.3287                 4.1873                 5.0384
 Frc consts  --      0.0004                 0.0036                 0.0114
 IR Inten    --      2.5187                 3.5704                 1.7097

                      4                      5                      6
                      A                      A                      A
 Frequencies --     84.7669                89.6375               115.9239
 Red. masses --      4.2079                 6.7835                 3.6780
 Frc consts  --      0.0178                 0.0321                 0.0291
 IR Inten    --      3.4679                 7.4448                 2.3895

                      7                      8                      9
                      A                      A                      A
 Frequencies --    139.1024               170.3738               201.7443
 Red. masses --      4.9165                 4.7885                 3.4482
 Frc consts  --      0.0560                 0.0819                 0.0827
 IR Inten    --      9.1995                 7.7836                 7.6000

                     10                     11                     12
                      A                      A                      A
 Frequencies --    217.1057               251.6915               295.2538
 Red. masses --      4.1136                 3.0844                 4.7809
 Frc consts  --      0.1142                 0.1151                 0.2456
 IR Inten    --     13.2190                84.1504                 3.1526

                     13                     14                     15
                      A                      A                      A
 Frequencies --    310.9567               322.5006               334.2210
 Red. masses --      1.3268                 2.1977                 4.8202
 Frc consts  --      0.0756                 0.1347                 0.3172
 IR Inten    --      0.9493                 5.4395                 6.9846

                     16                     17                     18
                      A                      A                      A
 Frequencies --    374.1977               390.6574               444.2789
 Red. masses --      4.2247                 4.2547                 3.5806
 Frc consts  --      0.3485                 0.3826                 0.4164
 IR Inten    --      2.0874                10.5495                 4.1930

                     19                     20                     21
                      A                      A                      A
 Frequencies --    512.2816               516.8518               536.9765
 Red. masses --      2.0367                 1.3972                 1.5930
 Frc consts  --      0.3149                 0.2199                 0.2706
 IR Inten    --     43.4239                93.5102                39.3418

                     22                     23                     24
                      A                      A                      A
 Frequencies --    608.0913               615.3730               670.4420
 Red. masses --      1.9063                 1.8690                 2.6779
 Frc consts  --      0.4153                 0.4170                 0.7092
 IR Inten    --     62.4077                52.6463                24.9818

                     25                     26                     27
                      A                      A                      A
 Frequencies --    682.9218               707.9749               750.8458
 Red. masses --      3.1679                 3.9023                 3.3338
 Frc consts  --      0.8705                 1.1524                 1.1074
 IR Inten    --     17.5173                 1.5600                31.1179

                     28                     29                     30
                      A                      A                      A
 Frequencies --    762.4784               787.0095               791.9160
 Red. masses --      2.9738                 3.1130                 3.1798
 Frc consts  --      1.0186                 1.1360                 1.1749
 IR Inten    --      2.6806                26.4724                15.0746

                     31                     32                     33
                      A                      A                      A
 Frequencies --    841.5006               846.3040               868.3744
 Red. masses --      1.4122                 2.3452                 1.9044
 Frc consts  --      0.5892                 0.9897                 0.8461
 IR Inten    --     18.2046                12.6426                 3.6687

                     34                     35                     36
                      A                      A                      A
 Frequencies --    872.0470               924.3360               939.8930
 Red. masses --      1.9535                 2.1522                 5.7464
 Frc consts  --      0.8753                 1.0834                 2.9909
 IR Inten    --     21.9964                 8.6349                12.5564

                     37                     38                     39
                      A                      A                      A
 Frequencies --    976.8655               983.8205              1008.2261
 Red. masses --      1.5261                 2.6814                 3.3368
 Frc consts  --      0.8580                 1.5291                 1.9985
 IR Inten    --     17.7216                 1.8751                 5.5770

                     40                     41                     42
                      A                      A                      A
 Frequencies --   1018.6567              1036.8942              1073.2160
 Red. masses --      3.6972                 3.5236                 1.7978
 Frc consts  --      2.2604                 2.2320                 1.2200
 IR Inten    --      4.8255                 3.8735                13.4720

                     43                     44                     45
                      A                      A                      A
 Frequencies --   1105.4315              1122.3845              1142.2062
 Red. masses --      1.6506                 1.4229                 1.7913
 Frc consts  --      1.1884                 1.0561                 1.3769
 IR Inten    --     20.3670                32.9063                 5.5375

                     46                     47                     48
                      A                      A                      A
 Frequencies --   1149.3884              1181.5362              1198.7712
 Red. masses --      2.1413                 1.4120                 2.1025
 Frc consts  --      1.6667                 1.1614                 1.7801
 IR Inten    --     19.9564                26.9908               136.0878

                     49                     50                     51
                      A                      A                      A
 Frequencies --   1242.1567              1265.5770              1282.5064
 Red. masses --      1.5481                 2.2418                 1.3688
 Frc consts  --      1.4073                 2.1156                 1.3265
 IR Inten    --     14.6677                14.3393                 1.8743

                     52                     53                     54
                      A                      A                      A
 Frequencies --   1311.5830              1318.1936              1322.3277
 Red. masses --      1.6089                 1.3620                 1.3700
 Frc consts  --      1.6307                 1.3944                 1.4114
 IR Inten    --     64.6734                 2.1923                23.1697

                     55                     56                     57
                      A                      A                      A
 Frequencies --   1329.4984              1356.9895              1367.1182
 Red. masses --      1.3630                 1.5012                 1.2779
 Frc consts  --      1.4194                 1.6287                 1.4072
 IR Inten    --     37.2333                14.6679                10.2559

                     58                     59                     60
                      A                      A                      A
 Frequencies --   1391.8496              1415.3609              1427.7505
 Red. masses --      3.4219                 1.3045                 2.7714
 Frc consts  --      3.9058                 1.5397                 3.3285
 IR Inten    --     22.2029                 3.3819                24.1246

                     61                     62                     63
                      A                      A                      A
 Frequencies --   1441.0045              1491.6922              1492.0135
 Red. masses --      2.4856                 1.1105                 1.8757
 Frc consts  --      3.0410                 1.4559                 2.4601
 IR Inten    --     31.7377                17.6948                20.2027

                     64                     65                     66
                      A                      A                      A
 Frequencies --   1504.5028              1509.6387              1552.0356
 Red. masses --      1.5140                 1.0815                 1.7517
 Frc consts  --      2.0191                 1.4522                 2.4861
 IR Inten    --      8.4839                11.7132               239.0220

                     67                     68                     69
                      A                      A                      A
 Frequencies --   1559.7635              1610.5026              1614.4550
 Red. masses --      1.2147                 4.4734                 1.0965
 Frc consts  --      1.7412                 6.8361                 1.6839
 IR Inten    --     87.6299                 4.2312                19.7918

                     70                     71                     72
                      A                      A                      A
 Frequencies --   1682.2656              1734.6370              1765.1328
 Red. masses --      1.1306                 5.4803                 5.7734
 Frc consts  --      1.8851                 9.7156                10.5984
 IR Inten    --     98.8053               287.4663               387.0279

                     73                     74                     75
                      A                      A                      A
 Frequencies --   3019.0636              3042.7725              3078.2979
 Red. masses --      1.0777                 1.0719                 1.0598
 Frc consts  --      5.7874                 5.8470                 5.9171
 IR Inten    --    952.8183                18.7661                 1.2666

                     76                     77                     78
                      A                      A                      A
 Frequencies --   3087.0446              3096.7225              3127.5615
 Red. masses --      1.0849                 1.0607                 1.1063
 Frc consts  --      6.0914                 5.9930                 6.3758
 IR Inten    --      4.0077                 4.5880                 1.4882

                     79                     80                     81
                      A                      A                      A
 Frequencies --   3151.4487              3153.2055              3231.0485
 Red. masses --      1.0914                 1.1105                 1.0967
 Frc consts  --      6.3862                 6.5056                 6.7455
 IR Inten    --      2.3749                 0.6187                 4.1034

                     82                     83                     84
                      A                      A                      A
 Frequencies --   3248.4888              3398.0124              3518.2909
 Red. masses --      1.0986                 1.0607                 1.0855
 Frc consts  --      6.8308                 7.2158                 7.9168
 IR Inten    --      0.6030                61.6219               104.0297

                     85                     86                     87
                      A                      A                      A
 Frequencies --   3626.3564              3648.3518              3728.8298
 Red. masses --      1.0781                 1.0810                 1.0645
 Frc consts  --      8.3528                 8.4775                 8.7203
 IR Inten    --     40.6449                46.8971               113.9879

 - Thermochemistry -
 -------------------
 Temperature   298.150 Kelvin.  Pressure   1.00000 Atm.
 Atom     1 has atomic number  8 and mass  15.99491

 Molecular mass:   227.11442 amu.
 Principal axes and moments of inertia in atomic units:
                           1         2         3
     Eigenvalues --  1371.772006508.137186872.83976
           X            0.97133  -0.16555   0.17062
           Y            0.23729   0.71906  -0.65318
           Z           -0.01455   0.67494   0.73773
 This molecule is an asymmetric top.
 Rotational symmetry number  1.
 Warning -- assumption of classical behavior for rotation
           may cause significant error
 Rotational temperatures (Kelvin)      0.06314     0.01331     0.01260
 Rotational constants (GHZ):           1.31563     0.27731     0.26259
 Zero-point vibrational energy     683257.9 (Joules/Mol)
                                  163.30257 (Kcal/Mol)
 Warning -- explicit consideration of  23 degrees of freedom as
           vibrations may cause significant error
 Vibrational temperatures:     17.21    55.28    89.13   121.96   128.97
          (Kelvin)            166.79   200.14   245.13   290.26   312.37
                              362.13   424.80   447.40   464.01   480.87
                              538.39   562.07   639.22   737.06   743.63
                              772.59   874.91   885.38   964.62   982.57
                             1018.62  1080.30  1097.04  1132.33  1139.39
                             1210.73  1217.64  1249.40  1254.68  1329.91
                             1352.29  1405.49  1415.50  1450.61  1465.62
                             1491.86  1544.12  1590.47  1614.86  1643.38
                             1653.71  1699.96  1724.76  1787.18  1820.88
                             1845.24  1887.07  1896.58  1902.53  1912.85
                             1952.40  1966.98  2002.56  2036.39  2054.21
                             2073.28  2146.21  2146.67  2164.64  2172.03
                             2233.03  2244.15  2317.15  2322.84  2420.40
                             2495.75  2539.63  4343.75  4377.87  4428.98
                             4441.56  4455.49  4499.86  4534.23  4536.75
                             4648.75  4673.84  4888.98  5062.03  5217.51
                             5249.16  5364.95

 Zero-point correction=                           0.260239 (Hartree/Particle)
 Thermal correction to Energy=                    0.275737
 Thermal correction to Enthalpy=                  0.276682
 Thermal correction to Gibbs Free Energy=         0.215561
 Sum of electronic and zero-point Energies=           -796.542947
 Sum of electronic and thermal Energies=              -796.527449
 Sum of electronic and thermal Enthalpies=            -796.526505
 Sum of electronic and thermal Free Energies=         -796.587625

                     E (Thermal)             CV                S
                      KCal/Mol        Cal/Mol-Kelvin    Cal/Mol-Kelvin
 Total                  173.028             57.981            128.638
 Electronic               0.000              0.000              0.000
 Translational            0.889              2.981             42.163
 Rotational               0.889              2.981             32.484
 Vibrational            171.250             52.020             53.991
 Vibration     1          0.593              1.987              7.656
 Vibration     2          0.594              1.982              5.339
 Vibration     3          0.597              1.972              4.394
 Vibration     4          0.601              1.960              3.777
 Vibration     5          0.602              1.957              3.668
 Vibration     6          0.608              1.936              3.167
 Vibration     7          0.615              1.914              2.816
 Vibration     8          0.625              1.879              2.431
 Vibration     9          0.639              1.837              2.117
 Vibration    10          0.646              1.815              1.983
 Vibration    11          0.664              1.760              1.719
 Vibration    12          0.689              1.683              1.444
 Vibration    13          0.700              1.653              1.357
 Vibration    14          0.708              1.630              1.297
 Vibration    15          0.716              1.607              1.240
 Vibration    16          0.745              1.525              1.063
 Vibration    17          0.758              1.490              0.998
 Vibration    18          0.804              1.374              0.813
 Vibration    19          0.867              1.223              0.628
 Vibration    20          0.872              1.213              0.617
 Vibration    21          0.892              1.168              0.572
 Vibration    22          0.967              1.015              0.436
 Vibration    23          0.975              0.999              0.424

 Normal termination of Gaussian 09 at Sat Jul 24 22:06:58 2021.
