 Gaussian 09, Revision D.01,
 Gaussian 09:  ES64L-G09RevD.01 24-Apr-2013

 ----------------------------------------------------------------------
 # B3LYP/6-311G(2df,2pd) EmpiricalDispersion=GD3BJ opt=calcfc freq=nora
 man nosymm integral(ultrafinegrid)
 ----------------------------------------------------------------------

 ------------------------------------------------------------
 Candidate Structure: Conf:862 OPT and FREQ calc in gas phase
 ------------------------------------------------------------
 Symbolic Z-matrix:
 Charge =  1 Multiplicity = 1

 SCF Done:  E(RB3LYP) =  -796.812069421     A.U. after   14 cycles
 SCF Done:  E(RB3LYP) =  -796.731201606     A.U. after   14 cycles
 SCF Done:  E(RB3LYP) =  -796.818708856     A.U. after   11 cycles
 SCF Done:  E(RB3LYP) =  -796.820956956     A.U. after   12 cycles
 SCF Done:  E(RB3LYP) =  -796.818824918     A.U. after   12 cycles
 SCF Done:  E(RB3LYP) =  -796.822302190     A.U. after   10 cycles
 SCF Done:  E(RB3LYP) =  -796.823624847     A.U. after   11 cycles
 SCF Done:  E(RB3LYP) =  -796.823737674     A.U. after   11 cycles
 SCF Done:  E(RB3LYP) =  -796.823796405     A.U. after   10 cycles
 SCF Done:  E(RB3LYP) =  -796.823832127     A.U. after   10 cycles
 SCF Done:  E(RB3LYP) =  -796.823850059     A.U. after    8 cycles
 SCF Done:  E(RB3LYP) =  -796.823884489     A.U. after    9 cycles
 SCF Done:  E(RB3LYP) =  -796.823949706     A.U. after   10 cycles
 SCF Done:  E(RB3LYP) =  -796.824015201     A.U. after   10 cycles
 SCF Done:  E(RB3LYP) =  -796.824075586     A.U. after   10 cycles
 SCF Done:  E(RB3LYP) =  -796.824136337     A.U. after   10 cycles
 SCF Done:  E(RB3LYP) =  -796.824144059     A.U. after    8 cycles
 SCF Done:  E(RB3LYP) =  -796.824145644     A.U. after    8 cycles
 SCF Done:  E(RB3LYP) =  -796.824145764     A.U. after    6 cycles
 Optimization completed.
    -- Stationary point found.
 Normal termination of Gaussian 09 at Sat Jul 24 11:22:35 2021.

 ----------------------------------------------------------------------
 #N Geom=AllCheck Guess=TCheck SCRF=Check GenChk RB3LYP/6-311G(2df,2pd)
  Freq
 ----------------------------------------------------------------------

 Structure from the checkpoint file:  "conf-862.chk"
 ------------------------------------------------------------
 Candidate Structure: Conf:862 OPT and FREQ calc in gas phase
 ------------------------------------------------------------
 Charge =  1 Multiplicity = 1

                          Input orientation:
 ---------------------------------------------------------------------
 Center     Atomic      Atomic             Coordinates (Angstroms)
 Number     Number       Type             X           Y           Z
 ---------------------------------------------------------------------
      1          8           0       -0.722352    1.791573   -0.151290
      2          6           0        0.330294    1.242356    0.172698
      3          7           0        0.485459    0.573097    1.326666
      4          6           0       -0.631198    0.177384    2.157270
      5          6           0       -0.170781    0.181081    3.601716
      6          8           0       -1.206134    0.194863    4.443420
      7          8           0        0.984863    0.112969    3.924978
      8          6           0       -1.153663   -1.271697    1.798613
      9          6           0       -0.888162   -1.599609    0.371601
     10          6           0       -1.385771   -1.070420   -0.785406
     11          7           0       -0.603675   -1.433755   -1.863345
     12          6           0        0.336306   -2.221017   -1.375556
     13          7           0        0.208351   -2.340975   -0.031763
     14          6           0        1.523714    1.199847   -0.776927
     15          6           0        1.196763    1.755606   -2.159457
     16          7           0       -0.119035    1.226115   -2.660490
     17          1           0        1.395360    0.242452    1.611490
     18          1           0       -1.434188    0.892633    2.008499
     19          1           0       -0.867568    0.139995    5.350383
     20          1           0       -2.215626   -1.317818    2.028343
     21          1           0       -0.659943   -2.002275    2.440388
     22          1           0       -2.226910   -0.408766   -0.891239
     23          1           0        1.102325   -2.721763   -1.942424
     24          1           0        0.775026   -2.921987    0.564667
     25          1           0        1.864390    0.167178   -0.853001
     26          1           0        2.353266    1.775175   -0.362874
     27          1           0        1.970315    1.490933   -2.874725
     28          1           0        1.098720    2.837698   -2.132087
     29          1           0       -0.191381    0.175408   -2.639213
     30          1           0       -0.336911    1.568147   -3.592979
     31          1           0       -0.811751    1.565781   -1.969759
 ---------------------------------------------------------------------

 SCF Done:  E(RB3LYP) =  -796.824145764     A.U. after    1 cycles

 Alpha  occ. eigenvalues --  -19.28977 -19.23853 -19.23401 -14.55550 -14.50833
 Alpha  occ. eigenvalues --  -14.48032 -14.44199 -10.42701 -10.42412 -10.38424
 Alpha  occ. eigenvalues --  -10.36646 -10.35996 -10.34197 -10.34054 -10.32440
 Alpha  occ. eigenvalues --  -10.31807  -1.23614  -1.19510  -1.16121  -1.14920
 Alpha  occ. eigenvalues --   -1.13353  -1.07773  -1.01723  -0.95054  -0.92880
 Alpha  occ. eigenvalues --   -0.88592  -0.82702  -0.80792  -0.76186  -0.75357
 Alpha  occ. eigenvalues --   -0.73918  -0.73094  -0.72194  -0.71343  -0.68309
 Alpha  occ. eigenvalues --   -0.66311  -0.64115  -0.63002  -0.62127  -0.61435
 Alpha  occ. eigenvalues --   -0.60058  -0.59133  -0.58877  -0.57858  -0.56165
 Alpha  occ. eigenvalues --   -0.55618  -0.55289  -0.54332  -0.54218  -0.53664
 Alpha  occ. eigenvalues --   -0.52668  -0.50707  -0.50357  -0.44983  -0.43822
 Alpha  occ. eigenvalues --   -0.42724  -0.41987  -0.40870  -0.40685  -0.36839
 Alpha virt. eigenvalues --   -0.14060  -0.13395  -0.12221  -0.11604  -0.09581
 Alpha virt. eigenvalues --   -0.09093  -0.08088  -0.06824  -0.06289  -0.05997
 Alpha virt. eigenvalues --   -0.04993  -0.04327  -0.03147  -0.02579  -0.01719

 Mulliken charges:
               1
     1  O   -0.459473
     2  C    0.508572
     3  N   -0.290683
     4  C    0.072064
     5  C    0.509674
     6  O   -0.326199
     7  O   -0.363058
     8  C    0.039642
     9  C    0.060896
    10  C    0.096877
    11  N   -0.416681
    12  C    0.248019
    13  N   -0.200002
    14  C   -0.085510
    15  C    0.121189
    16  N    0.061175
    17  H    0.116682
    18  H    0.051008
    19  H    0.241765
    20  H    0.062327
    21  H    0.034002
    22  H    0.046737
    23  H    0.061408
    24  H    0.135036
    25  H    0.041299
    26  H    0.060927
    27  H    0.064017
    28  H    0.071563
    29  H    0.152153
    30  H    0.113724
    31  H    0.170849
 Sum of Mulliken charges =   1.00000

 Dipole moment (field-independent basis, Debye):
    X=              2.2364    Y=              0.2203    Z=             -3.1224  Tot=              3.8470
 Quadrupole moment (field-independent basis, Debye-Ang):
   XX=            -84.2763   YY=            -74.7790   ZZ=            -51.2176
   XY=             -0.3414   XZ=            -10.9404   YZ=            -15.7743

  Exact polarizability: 116.495  -2.796 112.984  -8.488  -8.253 159.543
 Approx polarizability: 204.525 -23.001 171.158  -0.847 -14.797 222.735

                      1                      2                      3
                      A                      A                      A
 Frequencies --     31.0938                51.5357                91.3495
 Red. masses --      4.5412                 9.4821                 4.4067
 Frc consts  --      0.0026                 0.0148                 0.0217
 IR Inten    --      2.5968                 1.3034                 0.0744

                      4                      5                      6
                      A                      A                      A
 Frequencies --    107.7443               114.5343               129.7030
 Red. masses --      4.5402                 5.0013                 3.9404
 Frc consts  --      0.0311                 0.0387                 0.0391
 IR Inten    --     10.2729                 2.8139                 9.0491

                      7                      8                      9
                      A                      A                      A
 Frequencies --    144.6167               156.6493               185.4736
 Red. masses --      3.9446                 4.9830                 3.7567
 Frc consts  --      0.0486                 0.0720                 0.0761
 IR Inten    --     12.6340                 9.6489                10.2669

                     10                     11                     12
                      A                      A                      A
 Frequencies --    202.2768               262.9227               307.4983
 Red. masses --      2.5485                 4.5313                 5.6553
 Frc consts  --      0.0614                 0.1846                 0.3151
 IR Inten    --     33.3209                37.8726                 2.0508

                     13                     14                     15
                      A                      A                      A
 Frequencies --    314.2066               339.7147               355.2736
 Red. masses --      2.3615                 4.3555                 4.0652
 Frc consts  --      0.1374                 0.2962                 0.3023
 IR Inten    --      4.7136                13.1950                37.0353

                     16                     17                     18
                      A                      A                      A
 Frequencies --    411.6081               440.8653               464.8958
 Red. masses --      3.2910                 2.1573                 1.3582
 Frc consts  --      0.3285                 0.2470                 0.1730
 IR Inten    --      9.0268                13.4128                 1.7373

                     19                     20                     21
                      A                      A                      A
 Frequencies --    534.6672               553.9976               601.0476
 Red. masses --      1.8880                 3.5972                 1.6728
 Frc consts  --      0.3180                 0.6505                 0.3560
 IR Inten    --     70.8060                21.8722               114.6638

                     22                     23                     24
                      A                      A                      A
 Frequencies --    623.9666               625.6464               639.5305
 Red. masses --      1.3700                 1.7698                 2.7926
 Frc consts  --      0.3143                 0.4082                 0.6730
 IR Inten    --     46.7157                 5.2500                77.5590

                     25                     26                     27
                      A                      A                      A
 Frequencies --    687.2323               690.0205               695.2378
 Red. masses --      2.7968                 3.1559                 2.5601
 Frc consts  --      0.7782                 0.8853                 0.7291
 IR Inten    --     42.7994                 8.0212                 8.5760

                     28                     29                     30
                      A                      A                      A
 Frequencies --    726.8301               775.4272               833.0481
 Red. masses --      3.1772                 4.2573                 1.5457
 Frc consts  --      0.9889                 1.5082                 0.6320
 IR Inten    --      6.5407                20.1414                 6.6164

                     31                     32                     33
                      A                      A                      A
 Frequencies --    844.5492               856.6512               874.0438
 Red. masses --      2.2306                 1.9694                 1.8529
 Frc consts  --      0.9374                 0.8515                 0.8340
 IR Inten    --     14.0080                19.6186                13.7923

                     34                     35                     36
                      A                      A                      A
 Frequencies --    883.2648               932.0158               953.3640
 Red. masses --      2.0076                 2.7553                 3.7411
 Frc consts  --      0.9228                 1.4101                 2.0034
 IR Inten    --      7.8207                11.3370                 5.1447

                     37                     38                     39
                      A                      A                      A
 Frequencies --    959.6970               985.4552              1000.7880
 Red. masses --      4.6807                 1.5324                 3.0619
 Frc consts  --      2.5400                 0.8768                 1.8068
 IR Inten    --      8.7263                 2.3935                14.5024

                     40                     41                     42
                      A                      A                      A
 Frequencies --   1035.2856              1044.7630              1102.8010
 Red. masses --      3.3112                 3.1212                 2.2079
 Frc consts  --      2.0910                 2.0073                 1.5821
 IR Inten    --      6.7855                11.0825                12.6311

                     43                     44                     45
                      A                      A                      A
 Frequencies --   1127.7466              1131.6515              1136.1156
 Red. masses --      1.5445                 1.6462                 2.1749
 Frc consts  --      1.1573                 1.2421                 1.6540
 IR Inten    --     93.4641                 9.9687                17.9018

                     46                     47                     48
                      A                      A                      A
 Frequencies --   1150.6121              1165.0302              1205.2362
 Red. masses --      1.4159                 1.8942                 1.8806
 Frc consts  --      1.1045                 1.5148                 1.6095
 IR Inten    --     34.1297               155.2304                47.0706

                     49                     50                     51
                      A                      A                      A
 Frequencies --   1249.4104              1255.3987              1282.4156
 Red. masses --      1.8007                 1.6881                 1.4272
 Frc consts  --      1.6561                 1.5675                 1.3829
 IR Inten    --      7.6192                 9.2842                 6.4859

                     52                     53                     54
                      A                      A                      A
 Frequencies --   1287.1283              1303.6987              1336.2511
 Red. masses --      1.3380                 1.5728                 1.6192
 Frc consts  --      1.3060                 1.5750                 1.7034
 IR Inten    --     15.1079                 8.4312                 2.0644

                     55                     56                     57
                      A                      A                      A
 Frequencies --   1342.9097              1354.7174              1391.7793
 Red. masses --      1.2880                 1.2315                 1.5790
 Frc consts  --      1.3686                 1.3317                 1.8021
 IR Inten    --      9.1526                16.8044                38.4313

                     58                     59                     60
                      A                      A                      A
 Frequencies --   1394.9501              1423.1281              1426.8040
 Red. masses --      2.5674                 1.7692                 1.7176
 Frc consts  --      2.9434                 2.1111                 2.0601
 IR Inten    --      9.3517                79.0993                79.4817

                     61                     62                     63
                      A                      A                      A
 Frequencies --   1435.6955              1468.2521              1489.3790
 Red. masses --      2.5809                 1.1004                 1.2562
 Frc consts  --      3.1343                 1.3977                 1.6418
 IR Inten    --     32.5501                22.9506                14.1037

                     64                     65                     66
                      A                      A                      A
 Frequencies --   1495.7975              1503.1359              1508.0000
 Red. masses --      1.6380                 1.3980                 1.1803
 Frc consts  --      2.1593                 1.8610                 1.5814
 IR Inten    --     39.2814               112.2211                71.6194

                     67                     68                     69
                      A                      A                      A
 Frequencies --   1559.6894              1616.7147              1639.7115
 Red. masses --      2.2159                 4.1034                 1.1126
 Frc consts  --      3.1760                 6.3192                 1.7624
 IR Inten    --    194.2044                14.8409                36.4461

                     70                     71                     72
                      A                      A                      A
 Frequencies --   1699.4405              1717.3754              1826.6685
 Red. masses --      1.2088                 3.1341                10.2040
 Frc consts  --      2.0570                 5.4462                20.0604
 IR Inten    --    241.8724                63.5489               242.8135

                     73                     74                     75
                      A                      A                      A
 Frequencies --   2892.5200              3060.4022              3060.4149
 Red. masses --      1.0829                 1.0654                 1.0613
 Frc consts  --      5.3380                 5.8790                 5.8569
 IR Inten    --    850.9952                 4.9639                 7.5868

                     76                     77                     78
                      A                      A                      A
 Frequencies --   3092.7916              3101.3224              3115.9826
 Red. masses --      1.0799                 1.0817                 1.0969
 Frc consts  --      6.0861                 6.1297                 6.2751
 IR Inten    --      2.5036                 3.7332                 1.5004

                     79                     80                     81
                      A                      A                      A
 Frequencies --   3135.6753              3148.8271              3211.8396
 Red. masses --      1.0877                 1.1098                 1.0679
 Frc consts  --      6.3009                 6.4834                 6.4906
 IR Inten    --      3.0303                 4.1583               221.3493

                     82                     83                     84
                      A                      A                      A
 Frequencies --   3254.2194              3258.2770              3516.3177
 Red. masses --      1.0958                 1.1016                 1.0782
 Frc consts  --      6.8373                 6.8905                 7.8545
 IR Inten    --      1.4137                 3.4404               105.2575

                     85                     86                     87
                      A                      A                      A
 Frequencies --   3594.1183              3634.6390              3734.3944
 Red. masses --      1.0775                 1.0818                 1.0643
 Frc consts  --      8.2007                 8.4202                 8.7446
 IR Inten    --     70.1340                83.8708               128.3761

 - Thermochemistry -
 -------------------
 Temperature   298.150 Kelvin.  Pressure   1.00000 Atm.
 Atom     1 has atomic number  8 and mass  15.99491

 Molecular mass:   227.11442 amu.
 Principal axes and moments of inertia in atomic units:
                           1         2         3
     Eigenvalues --  2135.544094535.607875574.70833
           X           -0.09898   0.28874   0.95228
           Y           -0.04686   0.95456  -0.29430
           Z            0.99399   0.07375   0.08096
 This molecule is an asymmetric top.
 Rotational symmetry number  1.
 Warning -- assumption of classical behavior for rotation
           may cause significant error
 Rotational temperatures (Kelvin)      0.04056     0.01910     0.01554
 Rotational constants (GHZ):           0.84510     0.39791     0.32374
 Zero-point vibrational energy     683712.9 (Joules/Mol)
                                  163.41131 (Kcal/Mol)
 Warning -- explicit consideration of  21 degrees of freedom as
           vibrations may cause significant error
 Vibrational temperatures:     44.74    74.15   131.43   155.02   164.79
          (Kelvin)            186.61   208.07   225.38   266.85   291.03
                              378.29   442.42   452.07   488.77   511.16
                              592.21   634.31   668.88   769.27   797.08
                              864.77   897.75   900.16   920.14   988.77
                              992.78  1000.29  1045.75  1115.67  1198.57
                             1215.12  1232.53  1257.55  1270.82  1340.96
                             1371.68  1380.79  1417.85  1439.91  1489.54
                             1503.18  1586.68  1622.57  1628.19  1634.61
                             1655.47  1676.22  1734.06  1797.62  1806.24
                             1845.11  1851.89  1875.73  1922.56  1932.15
                             1949.13  2002.46  2007.02  2047.56  2052.85
                             2065.64  2112.48  2142.88  2152.12  2162.67
                             2169.67  2244.04  2326.09  2359.18  2445.11
                             2470.92  2628.17  4161.69  4403.23  4403.25
                             4449.83  4462.11  4483.20  4511.53  4530.45
                             4621.12  4682.09  4687.93  5059.19  5171.13
                             5229.43  5372.95

 Zero-point correction=                           0.260413 (Hartree/Particle)
 Thermal correction to Energy=                    0.275486
 Thermal correction to Enthalpy=                  0.276430
 Thermal correction to Gibbs Free Energy=         0.217725
 Sum of electronic and zero-point Energies=           -796.563733
 Sum of electronic and thermal Energies=              -796.548660
 Sum of electronic and thermal Enthalpies=            -796.547716
 Sum of electronic and thermal Free Energies=         -796.606420

                     E (Thermal)             CV                S
                      KCal/Mol        Cal/Mol-Kelvin    Cal/Mol-Kelvin
 Total                  172.870             57.385            123.554
 Electronic               0.000              0.000              0.000
 Translational            0.889              2.981             42.163
 Rotational               0.889              2.981             32.357
 Vibrational            171.093             51.424             49.034
 Vibration     1          0.594              1.983              5.758
 Vibration     2          0.596              1.977              4.758
 Vibration     3          0.602              1.955              3.631
 Vibration     4          0.606              1.943              3.309
 Vibration     5          0.607              1.937              3.191
 Vibration     6          0.612              1.924              2.950
 Vibration     7          0.616              1.908              2.742
 Vibration     8          0.620              1.895              2.590
 Vibration     9          0.632              1.860              2.273
 Vibration    10          0.639              1.837              2.112
 Vibration    11          0.670              1.741              1.642
 Vibration    12          0.697              1.659              1.376
 Vibration    13          0.702              1.647              1.340
 Vibration    14          0.720              1.596              1.213
 Vibration    15          0.731              1.564              1.143
 Vibration    16          0.776              1.445              0.921
 Vibration    17          0.801              1.381              0.824
 Vibration    18          0.822              1.328              0.752
 Vibration    19          0.890              1.173              0.577
 Vibration    20          0.909              1.131              0.536
 Vibration    21          0.959              1.030              0.448

 Normal termination of Gaussian 09 at Sat Jul 24 15:49:57 2021.
