 Gaussian 09, Revision D.01,
 Gaussian 09:  ES64L-G09RevD.01 24-Apr-2013

 ----------------------------------------------------------------------
 # B3LYP/6-311G(2df,2pd) EmpiricalDispersion=GD3BJ opt=calcfc freq=nora
 man nosymm integral(ultrafinegrid)
 ----------------------------------------------------------------------

 ------------------------------------------------------------
 Candidate Structure: Conf:715 OPT and FREQ calc in gas phase
 ------------------------------------------------------------
 Symbolic Z-matrix:
 Charge =  1 Multiplicity = 1

 SCF Done:  E(RB3LYP) =  -796.789762350     A.U. after   14 cycles
 SCF Done:  E(RB3LYP) =  -796.796938687     A.U. after   12 cycles
 SCF Done:  E(RB3LYP) =  -796.794563771     A.U. after   14 cycles
 SCF Done:  E(RB3LYP) =  -796.799100198     A.U. after   10 cycles
 SCF Done:  E(RB3LYP) =  -796.762890872     A.U. after   14 cycles
 SCF Done:  E(RB3LYP) =  -796.799149992     A.U. after    9 cycles
 SCF Done:  E(RB3LYP) =  -796.801367167     A.U. after   12 cycles
 SCF Done:  E(RB3LYP) =  -796.802120013     A.U. after   12 cycles
 SCF Done:  E(RB3LYP) =  -796.802803327     A.U. after   12 cycles
 SCF Done:  E(RB3LYP) =  -796.803035910     A.U. after   10 cycles
 SCF Done:  E(RB3LYP) =  -796.806239106     A.U. after   10 cycles
 SCF Done:  E(RB3LYP) =  -796.806282661     A.U. after   10 cycles
 SCF Done:  E(RB3LYP) =  -796.806301444     A.U. after    9 cycles
 SCF Done:  E(RB3LYP) =  -796.806305182     A.U. after    9 cycles
 SCF Done:  E(RB3LYP) =  -796.806306496     A.U. after    7 cycles
 SCF Done:  E(RB3LYP) =  -796.806307002     A.U. after    7 cycles
 SCF Done:  E(RB3LYP) =  -796.806307219     A.U. after    7 cycles
 SCF Done:  E(RB3LYP) =  -796.806307386     A.U. after    7 cycles
 SCF Done:  E(RB3LYP) =  -796.806307446     A.U. after    7 cycles
 Optimization completed.
    -- Stationary point found.
 Normal termination of Gaussian 09 at Sat Jul 24 15:41:01 2021.

 ----------------------------------------------------------------------
 #N Geom=AllCheck Guess=TCheck SCRF=Check GenChk RB3LYP/6-311G(2df,2pd)
  Freq
 ----------------------------------------------------------------------

 Structure from the checkpoint file:  "conf-715.chk"
 ------------------------------------------------------------
 Candidate Structure: Conf:715 OPT and FREQ calc in gas phase
 ------------------------------------------------------------
 Charge =  1 Multiplicity = 1

                          Input orientation:
 ---------------------------------------------------------------------
 Center     Atomic      Atomic             Coordinates (Angstroms)
 Number     Number       Type             X           Y           Z
 ---------------------------------------------------------------------
      1          8           0       -2.305401    1.548897    0.135818
      2          6           0       -1.657691    0.786656    0.842193
      3          7           0       -0.317139    0.870047    0.968049
      4          6           0        0.446906    1.659949    0.035248
      5          6           0        0.156955    1.206588   -1.400560
      6          8           0        0.560395    2.018725   -2.371389
      7          8           0       -0.344900    0.142508   -1.685493
      8          6           0        1.963545    1.507451    0.352099
      9          6           0        2.386130    0.084448    0.441290
     10          6           0        2.445402   -0.768772    1.516993
     11          7           0        2.755954   -2.043669    1.111950
     12          6           0        2.894095   -1.975664   -0.188380
     13          7           0        2.671876   -0.710882   -0.649862
     14          6           0       -2.333703   -0.419546    1.465395
     15          6           0       -2.439617   -1.519285    0.398205
     16          7           0       -2.760107   -0.922091   -0.954587
     17          1           0        0.185141    0.115016    1.417548
     18          1           0        0.160486    2.709381    0.121496
     19          1           0        0.892728    2.860495   -2.033408
     20          1           0        2.542268    2.054829   -0.392883
     21          1           0        2.144760    1.993422    1.309340
     22          1           0        2.318072   -0.522034    2.559104
     23          1           0        3.160332   -2.789565   -0.841635
     24          1           0        2.747463   -0.410898   -1.607459
     25          1           0       -1.796773   -0.821857    2.322642
     26          1           0       -3.324616   -0.110804    1.791654
     27          1           0       -3.220345   -2.231835    0.647328
     28          1           0       -1.499355   -2.050588    0.277057
     29          1           0       -3.366300   -0.101438   -0.853245
     30          1           0       -1.879364   -0.558882   -1.379598
     31          1           0       -3.187037   -1.600588   -1.581298
 ---------------------------------------------------------------------

 SCF Done:  E(RB3LYP) =  -796.806307446     A.U. after    1 cycles

 Alpha  occ. eigenvalues --  -19.32347 -19.26885 -19.23966 -14.57973 -14.48697
 Alpha  occ. eigenvalues --  -14.48405 -14.40049 -10.46321 -10.42353 -10.39832
 Alpha  occ. eigenvalues --  -10.37953 -10.34274 -10.33480 -10.33461 -10.32696
 Alpha  occ. eigenvalues --  -10.29873  -1.26843  -1.20130  -1.18286  -1.15345
 Alpha  occ. eigenvalues --   -1.13431  -1.08708  -0.98985  -0.95891  -0.93349
 Alpha  occ. eigenvalues --   -0.87516  -0.83000  -0.80663  -0.78193  -0.75624
 Alpha  occ. eigenvalues --   -0.74737  -0.73260  -0.73150  -0.71192  -0.69908
 Alpha  occ. eigenvalues --   -0.67579  -0.66690  -0.63650  -0.62635  -0.62399
 Alpha  occ. eigenvalues --   -0.61186  -0.59769  -0.58065  -0.57511  -0.57200
 Alpha  occ. eigenvalues --   -0.56170  -0.55138  -0.53934  -0.53533  -0.52768
 Alpha  occ. eigenvalues --   -0.52405  -0.52231  -0.51437  -0.48386  -0.44858
 Alpha  occ. eigenvalues --   -0.42333  -0.41259  -0.40215  -0.38158  -0.35209
 Alpha virt. eigenvalues --   -0.16185  -0.14551  -0.13245  -0.11791  -0.09701
 Alpha virt. eigenvalues --   -0.09375  -0.07713  -0.07102  -0.06806  -0.06162
 Alpha virt. eigenvalues --   -0.05745  -0.04103  -0.03117  -0.02958  -0.02027

 Mulliken charges:
               1
     1  O   -0.434000
     2  C    0.397492
     3  N   -0.257182
     4  C   -0.006318
     5  C    0.633178
     6  O   -0.296314
     7  O   -0.453556
     8  C   -0.040001
     9  C    0.092760
    10  C    0.073679
    11  N   -0.335008
    12  C    0.247735
    13  N   -0.232842
    14  C   -0.048419
    15  C    0.134518
    16  N    0.048199
    17  H    0.127850
    18  H    0.059670
    19  H    0.239969
    20  H    0.043830
    21  H    0.063319
    22  H    0.039256
    23  H    0.045172
    24  H    0.119632
    25  H    0.054839
    26  H    0.061106
    27  H    0.067566
    28  H    0.074173
    29  H    0.160520
    30  H    0.201794
    31  H    0.117384
 Sum of Mulliken charges =   1.00000

 Dipole moment (field-independent basis, Debye):
    X=             -4.9546    Y=             -0.0390    Z=             -2.4552  Tot=              5.5297
 Quadrupole moment (field-independent basis, Debye-Ang):
   XX=            -58.6109   YY=            -76.6916   ZZ=            -82.2817
   XY=             24.4234   XZ=             -4.9521   YZ=              4.0461

  Exact polarizability: 131.789  -0.979 135.591  -1.654  -6.408 121.179
 Approx polarizability: 179.909  -3.715 217.118   1.180 -11.466 199.776

                      1                      2                      3
                      A                      A                      A
 Frequencies --     11.5846                30.8227                64.0707
 Red. masses --      5.1439                 4.3579                 5.4027
 Frc consts  --      0.0004                 0.0024                 0.0131
 IR Inten    --      1.3881                 6.7206                 4.5459

                      4                      5                      6
                      A                      A                      A
 Frequencies --     73.0186                81.9505               117.3067
 Red. masses --      4.3231                 5.8937                 3.2169
 Frc consts  --      0.0136                 0.0233                 0.0261
 IR Inten    --      8.2474                12.1141                 3.7870

                      7                      8                      9
                      A                      A                      A
 Frequencies --    140.6569               161.6175               193.4078
 Red. masses --      6.1748                 4.0138                 3.6630
 Frc consts  --      0.0720                 0.0618                 0.0807
 IR Inten    --      5.6244                10.2350                16.9474

                     10                     11                     12
                      A                      A                      A
 Frequencies --    221.5488               252.4280               279.6698
 Red. masses --      3.1665                 4.6925                 5.7840
 Frc consts  --      0.0916                 0.1762                 0.2665
 IR Inten    --     20.7648                61.7453                17.3118

                     13                     14                     15
                      A                      A                      A
 Frequencies --    303.8081               331.9181               354.6212
 Red. masses --      1.3292                 3.8969                 2.2288
 Frc consts  --      0.0723                 0.2529                 0.1651
 IR Inten    --      2.3327                14.9094                 6.9096

                     16                     17                     18
                      A                      A                      A
 Frequencies --    380.0062               434.0857               461.8268
 Red. masses --      3.2429                 3.6503                 3.6981
 Frc consts  --      0.2759                 0.4053                 0.4647
 IR Inten    --      4.8396                 6.9201                60.2962

                     19                     20                     21
                      A                      A                      A
 Frequencies --    530.5994               541.2325               561.2532
 Red. masses --      2.9261                 1.2355                 1.4073
 Frc consts  --      0.4854                 0.2132                 0.2612
 IR Inten    --      4.7936                13.6750               105.1909

                     22                     23                     24
                      A                      A                      A
 Frequencies --    591.5707               643.1903               655.2981
 Red. masses --      1.7501                 3.7138                 2.2899
 Frc consts  --      0.3609                 0.9052                 0.5794
 IR Inten    --     19.6323                20.1509                40.7666

                     25                     26                     27
                      A                      A                      A
 Frequencies --    681.3573               693.1630               702.5944
 Red. masses --      2.7958                 3.1839                 4.0608
 Frc consts  --      0.7647                 0.9013                 1.1811
 IR Inten    --      0.5804                14.6519                 5.3069

                     28                     29                     30
                      A                      A                      A
 Frequencies --    761.5665               785.2967               840.2956
 Red. masses --      3.0284                 4.7029                 2.3580
 Frc consts  --      1.0349                 1.7088                 0.9810
 IR Inten    --      3.4253                 2.8105                20.1228

                     31                     32                     33
                      A                      A                      A
 Frequencies --    852.3653               854.9948               871.3101
 Red. masses --      1.3941                 2.9625                 1.5945
 Frc consts  --      0.5968                 1.2759                 0.7132
 IR Inten    --     24.8731                 1.1112                 5.3631

                     34                     35                     36
                      A                      A                      A
 Frequencies --    881.6240               934.3799               943.9144
 Red. masses --      1.8960                 3.3663                 4.3660
 Frc consts  --      0.8683                 1.7316                 2.2919
 IR Inten    --     28.1540                13.8849                 4.2871

                     37                     38                     39
                      A                      A                      A
 Frequencies --    958.7178               977.9680              1005.8089
 Red. masses --      2.9793                 1.4986                 3.1677
 Frc consts  --      1.6134                 0.8445                 1.8881
 IR Inten    --      1.2970                11.4683                 7.3790

                     40                     41                     42
                      A                      A                      A
 Frequencies --   1015.7462              1042.3118              1090.9212
 Red. masses --      3.2333                 2.8798                 1.4389
 Frc consts  --      1.9655                 1.8434                 1.0090
 IR Inten    --      8.3781                 4.5466                 6.7121

                     43                     44                     45
                      A                      A                      A
 Frequencies --   1110.3002              1122.7130              1142.5709
 Red. masses --      1.6829                 1.3904                 1.8002
 Frc consts  --      1.2223                 1.0326                 1.3846
 IR Inten    --     13.3420                18.2776                 6.5115

                     46                     47                     48
                      A                      A                      A
 Frequencies --   1149.1724              1199.7992              1208.6272
 Red. masses --      2.1984                 1.5545                 1.7642
 Frc consts  --      1.7105                 1.3184                 1.5184
 IR Inten    --     11.6769                24.0630                25.5461

                     49                     50                     51
                      A                      A                      A
 Frequencies --   1233.1564              1253.4460              1266.3061
 Red. masses --      1.5389                 1.5037                 2.1716
 Frc consts  --      1.3788                 1.3919                 2.0517
 IR Inten    --     10.9265                27.0247                 1.3958

                     52                     53                     54
                      A                      A                      A
 Frequencies --   1291.0700              1303.2473              1320.0926
 Red. masses --      1.3615                 1.8136                 1.3506
 Frc consts  --      1.3371                 1.8148                 1.3867
 IR Inten    --      9.0720               364.7116                28.7964

                     55                     56                     57
                      A                      A                      A
 Frequencies --   1335.4274              1364.0597              1372.6138
 Red. masses --      1.7926                 1.3729                 1.5470
 Frc consts  --      1.8836                 1.5050                 1.7172
 IR Inten    --     43.3239                 3.6645                 9.7306

                     58                     59                     60
                      A                      A                      A
 Frequencies --   1395.7862              1406.9914              1419.8249
 Red. masses --      2.9313                 1.7233                 1.3656
 Frc consts  --      3.3648                 2.0100                 1.6219
 IR Inten    --     26.7300                54.6858                13.0201

                     61                     62                     63
                      A                      A                      A
 Frequencies --   1428.3560              1480.2818              1491.3888
 Red. masses --      2.6087                 1.1738                 1.1040
 Frc consts  --      3.1359                 1.5155                 1.4468
 IR Inten    --     22.1531                19.3698                20.2958

                     64                     65                     66
                      A                      A                      A
 Frequencies --   1497.6184              1510.3760              1546.2551
 Red. masses --      3.0922                 1.0828                 1.5569
 Frc consts  --      4.0862                 1.4553                 2.1932
 IR Inten    --     19.4385                13.5187               398.2995

                     67                     68                     69
                      A                      A                      A
 Frequencies --   1553.5802              1600.4904              1614.7896
 Red. masses --      1.3610                 4.1063                 1.0873
 Frc consts  --      1.9355                 6.1974                 1.6704
 IR Inten    --    104.0142                 6.3287                40.3778

                     70                     71                     72
                      A                      A                      A
 Frequencies --   1684.4061              1738.3349              1792.8704
 Red. masses --      1.1357                 4.5456                 7.5179
 Frc consts  --      1.8985                 8.0930                14.2379
 IR Inten    --     93.7618               178.0383               262.1856

                     73                     74                     75
                      A                      A                      A
 Frequencies --   3056.3230              3064.7332              3069.7338
 Red. masses --      1.0697                 1.0789                 1.0753
 Frc consts  --      5.8872                 5.9704                 5.9698
 IR Inten    --      2.8373                 7.7771               745.1081

                     76                     77                     78
                      A                      A                      A
 Frequencies --   3079.4855              3097.9454              3108.2426
 Red. masses --      1.0596                 1.0611                 1.1008
 Frc consts  --      5.9203                 5.9999                 6.2660
 IR Inten    --      2.2446                12.0405                 2.8269

                     79                     80                     81
                      A                      A                      A
 Frequencies --   3128.8433              3154.7594              3222.7691
 Red. masses --      1.1066                 1.1109                 1.0967
 Frc consts  --      6.3828                 6.5142                 6.7111
 IR Inten    --      2.0510                 0.1517                 2.7833

                     82                     83                     84
                      A                      A                      A
 Frequencies --   3250.1599              3392.2758              3517.7071
 Red. masses --      1.0989                 1.0619                 1.0849
 Frc consts  --      6.8393                 7.2000                 7.9094
 IR Inten    --      1.0128                58.8248               106.7432

                     85                     86                     87
                      A                      A                      A
 Frequencies --   3524.5862              3640.6069              3779.5186
 Red. masses --      1.0783                 1.0815                 1.0662
 Frc consts  --      7.8924                 8.4456                 8.9733
 IR Inten    --    185.4763                57.8096                94.9291

 - Thermochemistry -
 -------------------
 Temperature   298.150 Kelvin.  Pressure   1.00000 Atm.
 Atom     1 has atomic number  8 and mass  15.99491

 Molecular mass:   227.11442 amu.
 Principal axes and moments of inertia in atomic units:
                           1         2         3
     Eigenvalues --  2468.279574287.708045076.47583
           X            0.98076   0.18728   0.05519
           Y           -0.18539   0.80460   0.56413
           Z            0.06124  -0.56351   0.82384
 This molecule is an asymmetric top.
 Rotational symmetry number  1.
 Warning -- assumption of classical behavior for rotation
           may cause significant error
 Rotational temperatures (Kelvin)      0.03509     0.02020     0.01706
 Rotational constants (GHZ):           0.73117     0.42091     0.35551
 Zero-point vibrational energy     683267.9 (Joules/Mol)
                                  163.30494 (Kcal/Mol)
 Warning -- explicit consideration of  22 degrees of freedom as
           vibrations may cause significant error
 Vibrational temperatures:     16.67    44.35    92.18   105.06   117.91
          (Kelvin)            168.78   202.37   232.53   278.27   318.76
                              363.19   402.38   437.11   477.56   510.22
                              546.74   624.55   664.46   763.41   778.71
                              807.52   851.14   925.41   942.83   980.32
                              997.31  1010.88  1095.72  1129.87  1209.00
                             1226.36  1230.15  1253.62  1268.46  1344.36
                             1358.08  1379.38  1407.08  1447.13  1461.43
                             1499.65  1569.59  1597.47  1615.33  1643.90
                             1653.40  1726.24  1738.94  1774.23  1803.43
                             1821.93  1857.56  1875.08  1899.32  1921.38
                             1962.58  1974.88  2008.22  2024.34  2042.81
                             2055.08  2129.79  2145.77  2154.74  2173.09
                             2224.71  2235.25  2302.75  2323.32  2423.48
                             2501.07  2579.54  4397.36  4409.46  4416.66
                             4430.69  4457.25  4472.06  4501.70  4538.99
                             4636.84  4676.25  4880.72  5061.19  5071.09
                             5238.01  5437.88

 Zero-point correction=                           0.260243 (Hartree/Particle)
 Thermal correction to Energy=                    0.275703
 Thermal correction to Enthalpy=                  0.276647
 Thermal correction to Gibbs Free Energy=         0.215289
 Sum of electronic and zero-point Energies=           -796.546064
 Sum of electronic and thermal Energies=              -796.530604
 Sum of electronic and thermal Enthalpies=            -796.529660
 Sum of electronic and thermal Free Energies=         -796.591018

                     E (Thermal)             CV                S
                      KCal/Mol        Cal/Mol-Kelvin    Cal/Mol-Kelvin
 Total                  173.006             57.720            129.139
 Electronic               0.000              0.000              0.000
 Translational            0.889              2.981             42.163
 Rotational               0.889              2.981             32.352
 Vibrational            171.229             51.758             54.624
 Vibration     1          0.593              1.987              7.719
 Vibration     2          0.594              1.984              5.776
 Vibration     3          0.597              1.971              4.328
 Vibration     4          0.599              1.967              4.070
 Vibration     5          0.600              1.962              3.844
 Vibration     6          0.608              1.935              3.144
 Vibration     7          0.615              1.913              2.795
 Vibration     8          0.622              1.889              2.531
 Vibration     9          0.635              1.849              2.195
 Vibration    10          0.648              1.808              1.946
 Vibration    11          0.664              1.759              1.714
 Vibration    12          0.680              1.711              1.536
 Vibration    13          0.695              1.666              1.396
 Vibration    14          0.714              1.612              1.251
 Vibration    15          0.730              1.566              1.146
 Vibration    16          0.750              1.513              1.039
 Vibration    17          0.795              1.396              0.845
 Vibration    18          0.820              1.335              0.761
 Vibration    19          0.886              1.182              0.586
 Vibration    20          0.896              1.159              0.563
 Vibration    21          0.917              1.115              0.521
 Vibration    22          0.949              1.050              0.464

 Normal termination of Gaussian 09 at Sat Jul 24 19:58:58 2021.
