 Gaussian 09, Revision D.01,
 Gaussian 09:  ES64L-G09RevD.01 24-Apr-2013

 ----------------------------------------------------------------------
 # B3LYP/6-311G(2df,2pd) EmpiricalDispersion=GD3BJ opt=calcfc freq=nora
 man nosymm integral(ultrafinegrid)
 ----------------------------------------------------------------------

 ------------------------------------------------------------
 Candidate Structure: Conf:214 OPT and FREQ calc in gas phase
 ------------------------------------------------------------
 Symbolic Z-matrix:
 Charge =  1 Multiplicity = 1

 SCF Done:  E(RB3LYP) =  -796.767765649     A.U. after   16 cycles
 SCF Done:  E(RB3LYP) =  -796.773038849     A.U. after   14 cycles
 SCF Done:  E(RB3LYP) =  -796.773649140     A.U. after   14 cycles
 SCF Done:  E(RB3LYP) =  -796.773641950     A.U. after   14 cycles
 SCF Done:  E(RB3LYP) =  -796.773799787     A.U. after   10 cycles
 SCF Done:  E(RB3LYP) =  -796.773999153     A.U. after   11 cycles
 SCF Done:  E(RB3LYP) =  -796.774081585     A.U. after   11 cycles
 SCF Done:  E(RB3LYP) =  -796.774194722     A.U. after   11 cycles
 SCF Done:  E(RB3LYP) =  -796.775718327     A.U. after   14 cycles
 SCF Done:  E(RB3LYP) =  -796.745790629     A.U. after   15 cycles
 SCF Done:  E(RB3LYP) =  -796.787358497     A.U. after   11 cycles
 SCF Done:  E(RB3LYP) =  -796.787541586     A.U. after   11 cycles
 SCF Done:  E(RB3LYP) =  -796.787739014     A.U. after   10 cycles
 SCF Done:  E(RB3LYP) =  -796.787838895     A.U. after   10 cycles
 SCF Done:  E(RB3LYP) =  -796.787868331     A.U. after   10 cycles
 SCF Done:  E(RB3LYP) =  -796.787873511     A.U. after    8 cycles
 SCF Done:  E(RB3LYP) =  -796.787875081     A.U. after    8 cycles
 SCF Done:  E(RB3LYP) =  -796.787875349     A.U. after    7 cycles
 SCF Done:  E(RB3LYP) =  -796.787875417     A.U. after    6 cycles
 Optimization completed.
    -- Stationary point found.
 Normal termination of Gaussian 09 at Sat Jul 24 15:12:14 2021.

 ----------------------------------------------------------------------
 #N Geom=AllCheck Guess=TCheck SCRF=Check GenChk RB3LYP/6-311G(2df,2pd)
  Freq
 ----------------------------------------------------------------------

 Structure from the checkpoint file:  "conf-214.chk"
 ------------------------------------------------------------
 Candidate Structure: Conf:214 OPT and FREQ calc in gas phase
 ------------------------------------------------------------
 Charge =  1 Multiplicity = 1

                          Input orientation:
 ---------------------------------------------------------------------
 Center     Atomic      Atomic             Coordinates (Angstroms)
 Number     Number       Type             X           Y           Z
 ---------------------------------------------------------------------
      1          8           0       -1.249906   -1.671160   -0.760143
      2          6           0       -1.071645   -0.954501    0.205647
      3          7           0       -0.041215   -1.078202    1.065446
      4          6           0        1.127589   -1.875071    0.751929
      5          6           0        2.100098   -1.696436    1.910941
      6          8           0        3.001985   -2.660747    2.098951
      7          8           0        2.116338   -0.693807    2.577425
      8          6           0        1.842671   -1.395994   -0.567248
      9          6           0        1.660261    0.061823   -0.788049
     10          6           0        0.879924    0.714515   -1.703784
     11          7           0        0.793370    2.057120   -1.408199
     12          6           0        1.531066    2.223713   -0.330876
     13          7           0        2.079826    1.049394    0.080554
     14          6           0       -2.052002    0.188704    0.513151
     15          6           0       -2.296657    0.932360   -0.787561
     16          7           0       -3.436992    1.928570   -0.644936
     17          1           0        0.119304   -0.377154    1.774285
     18          1           0        0.842468   -2.920581    0.634615
     19          1           0        2.837499   -3.427691    1.536873
     20          1           0        2.893371   -1.688953   -0.524217
     21          1           0        1.391899   -1.918298   -1.406267
     22          1           0        0.368759    0.279302   -2.545575
     23          1           0        1.714786    3.157068    0.173969
     24          1           0        2.627074    0.908924    0.915460
     25          1           0       -1.666285    0.856318    1.283958
     26          1           0       -2.975249   -0.266949    0.880304
     27          1           0       -2.578875    0.236788   -1.573034
     28          1           0       -1.428148    1.510883   -1.098930
     29          1           0       -3.224110    2.631952    0.064342
     30          1           0       -3.598955    2.420063   -1.525715
     31          1           0       -4.308262    1.468155   -0.375507
 ---------------------------------------------------------------------

 SCF Done:  E(RB3LYP) =  -796.787875417     A.U. after    1 cycles

 Alpha  occ. eigenvalues --  -19.29258 -19.23422 -19.21808 -14.62435 -14.47563
 Alpha  occ. eigenvalues --  -14.46818 -14.40461 -10.43014 -10.40911 -10.39461
 Alpha  occ. eigenvalues --  -10.35815 -10.34479 -10.33417 -10.31578 -10.30934
 Alpha  occ. eigenvalues --  -10.29018  -1.23578  -1.19175  -1.17741  -1.15429
 Alpha  occ. eigenvalues --   -1.12921  -1.06623  -0.98518  -0.95624  -0.92014
 Alpha  occ. eigenvalues --   -0.86658  -0.83105  -0.79334  -0.77751  -0.77129
 Alpha  occ. eigenvalues --   -0.75139  -0.72649  -0.71995  -0.70424  -0.68417
 Alpha  occ. eigenvalues --   -0.67554  -0.65148  -0.63706  -0.61725  -0.60174
 Alpha  occ. eigenvalues --   -0.59462  -0.57743  -0.57475  -0.56690  -0.56144
 Alpha  occ. eigenvalues --   -0.54572  -0.53627  -0.52502  -0.52286  -0.51953
 Alpha  occ. eigenvalues --   -0.51534  -0.49935  -0.49450  -0.45121  -0.41404
 Alpha  occ. eigenvalues --   -0.39894  -0.39842  -0.39544  -0.38591  -0.34421
 Alpha virt. eigenvalues --   -0.17640  -0.13138  -0.12428  -0.11253  -0.10533
 Alpha virt. eigenvalues --   -0.09829  -0.08910  -0.08420  -0.05939  -0.05711
 Alpha virt. eigenvalues --   -0.04846  -0.03663  -0.02443  -0.02279  -0.02133

 Mulliken charges:
               1
     1  O   -0.409061
     2  C    0.398575
     3  N   -0.277300
     4  C    0.060903
     5  C    0.522185
     6  O   -0.290401
     7  O   -0.373955
     8  C   -0.003077
     9  C    0.092189
    10  C    0.089453
    11  N   -0.382609
    12  C    0.231780
    13  N   -0.220024
    14  C   -0.030654
    15  C    0.112591
    16  N    0.093305
    17  H    0.110689
    18  H    0.041473
    19  H    0.229155
    20  H    0.043107
    21  H    0.047077
    22  H    0.031741
    23  H    0.043171
    24  H    0.131008
    25  H    0.031353
    26  H    0.051441
    27  H    0.073200
    28  H    0.092955
    29  H    0.156797
    30  H    0.148570
    31  H    0.154364
 Sum of Mulliken charges =   1.00000

 Dipole moment (field-independent basis, Debye):
    X=             -9.8053    Y=              4.0658    Z=             -0.0237  Tot=             10.6148
 Quadrupole moment (field-independent basis, Debye-Ang):
   XX=            -34.8127   YY=            -63.6521   ZZ=            -95.6148
   XY=            -35.6602   XZ=              5.0370   YZ=             -2.7150

  Exact polarizability: 133.752 -18.423 139.620  16.998  -3.769 116.147
 Approx polarizability: 185.754 -18.128 218.845  30.364  14.100 197.307

                      1                      2                      3
                      A                      A                      A
 Frequencies --     48.4478                54.2598                69.0870
 Red. masses --      4.1138                 3.0050                 3.7689
 Frc consts  --      0.0057                 0.0052                 0.0106
 IR Inten    --     10.0274                 6.4656                 2.1041

                      4                      5                      6
                      A                      A                      A
 Frequencies --     71.7370                87.4371               102.6043
 Red. masses --      4.7934                 3.6195                 5.9691
 Frc consts  --      0.0145                 0.0163                 0.0370
 IR Inten    --     10.1723                 3.5095                 6.7215

                      7                      8                      9
                      A                      A                      A
 Frequencies --    114.6726               133.7397               150.1425
 Red. masses --      3.9739                 5.5311                 4.6445
 Frc consts  --      0.0308                 0.0583                 0.0617
 IR Inten    --     33.2959                 0.1062                31.3178

                     10                     11                     12
                      A                      A                      A
 Frequencies --    193.3939               200.6641               223.4838
 Red. masses --      4.4978                 4.1953                 1.1614
 Frc consts  --      0.0991                 0.0995                 0.0342
 IR Inten    --     12.3564                 3.4363                 0.4306

                     13                     14                     15
                      A                      A                      A
 Frequencies --    279.0213               314.6522               330.2620
 Red. masses --      6.4883                 4.7458                 2.9643
 Frc consts  --      0.2976                 0.2768                 0.1905
 IR Inten    --      4.5127                 0.1362                 7.4434

                     16                     17                     18
                      A                      A                      A
 Frequencies --    349.3446               372.8001               446.1073
 Red. masses --      3.5792                 3.4883                 3.6453
 Frc consts  --      0.2574                 0.2856                 0.4274
 IR Inten    --      6.7302                26.8017                16.6351

                     19                     20                     21
                      A                      A                      A
 Frequencies --    522.1569               545.6825               586.4320
 Red. masses --      1.2370                 2.5228                 1.6137
 Frc consts  --      0.1987                 0.4426                 0.3270
 IR Inten    --     54.2882                42.8604               156.9454

                     22                     23                     24
                      A                      A                      A
 Frequencies --    613.3588               643.1284               674.1054
 Red. masses --      1.8237                 5.3533                 2.0778
 Frc consts  --      0.4042                 1.3046                 0.5563
 IR Inten    --     19.8054                 9.6829                 3.6391

                     25                     26                     27
                      A                      A                      A
 Frequencies --    683.0176               692.5044               733.7745
 Red. masses --      2.4394                 3.2058                 5.4808
 Frc consts  --      0.6705                 0.9058                 1.7387
 IR Inten    --     13.4366                12.8861                 5.7613

                     28                     29                     30
                      A                      A                      A
 Frequencies --    738.1697               790.7806               805.4417
 Red. masses --      3.8599                 3.6004                 1.2575
 Frc consts  --      1.2392                 1.3265                 0.4806
 IR Inten    --      0.4676                 3.7315                 6.2666

                     31                     32                     33
                      A                      A                      A
 Frequencies --    837.5036               843.0645               872.0402
 Red. masses --      1.7045                 1.7226                 1.8346
 Frc consts  --      0.7044                 0.7214                 0.8220
 IR Inten    --      1.3522                33.5954                15.6225

                     34                     35                     36
                      A                      A                      A
 Frequencies --    888.5548               914.6905               921.6875
 Red. masses --      2.4629                 3.7260                 1.3571
 Frc consts  --      1.1457                 1.8367                 0.6793
 IR Inten    --     26.4994                 3.3881                 2.9775

                     37                     38                     39
                      A                      A                      A
 Frequencies --    945.9261               949.3828               980.5095
 Red. masses --      3.1314                 5.4982                 2.2466
 Frc consts  --      1.6508                 2.9198                 1.2726
 IR Inten    --      2.8627                18.0862                27.5412

                     40                     41                     42
                      A                      A                      A
 Frequencies --   1011.8090              1042.1156              1082.2961
 Red. masses --      3.1620                 2.9560                 1.7631
 Frc consts  --      1.9073                 1.8914                 1.2168
 IR Inten    --     17.8656                 3.1952                 4.2369

                     43                     44                     45
                      A                      A                      A
 Frequencies --   1125.0626              1135.9444              1140.8334
 Red. masses --      2.1560                 1.8565                 1.9646
 Frc consts  --      1.6079                 1.4114                 1.5065
 IR Inten    --     23.6962                17.3006                 7.2315

                     46                     47                     48
                      A                      A                      A
 Frequencies --   1147.0359              1171.2568              1203.5555
 Red. masses --      2.4873                 1.4377                 1.5549
 Frc consts  --      1.9281                 1.1620                 1.3271
 IR Inten    --      2.7754                10.3660                 5.9207

                     49                     50                     51
                      A                      A                      A
 Frequencies --   1247.6092              1257.2002              1265.8377
 Red. masses --      1.6326                 1.3211                 2.1992
 Frc consts  --      1.4972                 1.2302                 2.0762
 IR Inten    --     41.2215                70.1039                 5.6659

                     52                     53                     54
                      A                      A                      A
 Frequencies --   1285.0831              1292.2632              1303.0381
 Red. masses --      1.3779                 1.3443                 1.6202
 Frc consts  --      1.3407                 1.3227                 1.6209
 IR Inten    --     28.9802                 6.5377               210.8139

                     55                     56                     57
                      A                      A                      A
 Frequencies --   1336.4965              1361.7133              1369.9589
 Red. masses --      1.3729                 1.3386                 1.5537
 Frc consts  --      1.4449                 1.4624                 1.7180
 IR Inten    --     33.5452                39.9342                26.2935

                     58                     59                     60
                      A                      A                      A
 Frequencies --   1383.0707              1406.1017              1429.8223
 Red. masses --      3.8759                 2.2675                 1.2864
 Frc consts  --      4.3683                 2.6414                 1.5495
 IR Inten    --     60.4805               223.3111                 9.3017

                     61                     62                     63
                      A                      A                      A
 Frequencies --   1438.0576              1479.3270              1483.7622
 Red. masses --      2.2610                 1.1081                 1.3455
 Frc consts  --      2.7548                 1.4288                 1.7453
 IR Inten    --     29.6281                 3.5725                22.7008

                     64                     65                     66
                      A                      A                      A
 Frequencies --   1505.0512              1506.1054              1524.3139
 Red. masses --      1.7613                 1.3189                 1.0824
 Frc consts  --      2.3506                 1.7626                 1.4818
 IR Inten    --     86.6025                89.3113                 8.9063

                     67                     68                     69
                      A                      A                      A
 Frequencies --   1539.7802              1615.9372              1663.9119
 Red. masses --      2.0498                 4.1307                 1.0431
 Frc consts  --      2.8634                 6.3551                 1.7015
 IR Inten    --    205.5161                12.3383                42.9887

                     70                     71                     72
                      A                      A                      A
 Frequencies --   1668.9217              1762.4112              1823.9699
 Red. masses --      1.0436                 9.7051                 9.1428
 Frc consts  --      1.7126                17.7609                17.9211
 IR Inten    --     32.5860               235.0054               133.0795

                     73                     74                     75
                      A                      A                      A
 Frequencies --   3035.3073              3050.4103              3071.6194
 Red. masses --      1.0608                 1.0696                 1.0656
 Frc consts  --      5.7584                 5.8638                 5.9236
 IR Inten    --     12.3245                13.6247                55.6669

                     76                     77                     78
                      A                      A                      A
 Frequencies --   3072.0724              3088.5687              3130.5498
 Red. masses --      1.0851                 1.1025                 1.0945
 Frc consts  --      6.0340                 6.1963                 6.3198
 IR Inten    --     11.1006                 7.2559                 0.3262

                     79                     80                     81
                      A                      A                      A
 Frequencies --   3149.8786              3240.7938              3249.7590
 Red. masses --      1.1081                 1.0964                 1.0995
 Frc consts  --      6.4774                 6.7846                 6.8411
 IR Inten    --     10.7442                 1.0028                 0.7837

                     82                     83                     84
                      A                      A                      A
 Frequencies --   3408.3192              3488.4943              3489.4867
 Red. masses --      1.0294                 1.0932                 1.0929
 Frc consts  --      7.0452                 7.8385                 7.8405
 IR Inten    --     46.9270                81.0942                83.4540

                     85                     86                     87
                      A                      A                      A
 Frequencies --   3577.0276              3619.2341              3793.3162
 Red. masses --      1.0773                 1.0821                 1.0662
 Frc consts  --      8.1213                 8.3514                 9.0390
 IR Inten    --     69.5936               110.7276                85.7148

 - Thermochemistry -
 -------------------
 Temperature   298.150 Kelvin.  Pressure   1.00000 Atm.
 Atom     1 has atomic number  8 and mass  15.99491

 Molecular mass:   227.11442 amu.
 Principal axes and moments of inertia in atomic units:
                           1         2         3
     Eigenvalues --  2235.618284639.067715585.50017
           X            0.76637   0.63454  -0.10021
           Y           -0.50305   0.68980   0.52069
           Z            0.39952  -0.34863   0.84785
 This molecule is an asymmetric top.
 Rotational symmetry number  1.
 Warning -- assumption of classical behavior for rotation
           may cause significant error
 Rotational temperatures (Kelvin)      0.03874     0.01867     0.01551
 Rotational constants (GHZ):           0.80727     0.38903     0.32311
 Zero-point vibrational energy     683057.3 (Joules/Mol)
                                  163.25461 (Kcal/Mol)
 Warning -- explicit consideration of  22 degrees of freedom as
           vibrations may cause significant error
 Vibrational temperatures:     69.71    78.07    99.40   103.21   125.80
          (Kelvin)            147.62   164.99   192.42   216.02   278.25
                              288.71   321.54   401.45   452.71   475.17
                              502.63   536.38   641.85   751.27   785.11
                              843.74   882.49   925.32   969.89   982.71
                              996.36  1055.74  1062.06  1137.76  1158.85
                             1204.98  1212.98  1254.67  1278.43  1316.03
                             1326.10  1360.97  1365.95  1410.73  1455.77
                             1499.37  1557.18  1618.71  1634.37  1641.40
                             1650.33  1685.18  1731.65  1795.03  1808.83
                             1821.26  1848.95  1859.28  1874.78  1922.92
                             1959.20  1971.06  1989.93  2023.06  2057.19
                             2069.04  2128.42  2134.80  2165.43  2166.95
                             2193.14  2215.40  2324.97  2394.00  2401.20
                             2535.71  2624.28  4367.12  4388.85  4419.37
                             4420.02  4443.76  4504.16  4531.97  4662.77
                             4675.67  4903.80  5019.16  5020.59  5146.54
                             5207.26  5457.73

 Zero-point correction=                           0.260163 (Hartree/Particle)
 Thermal correction to Energy=                    0.276050
 Thermal correction to Enthalpy=                  0.276994
 Thermal correction to Gibbs Free Energy=         0.216044
 Sum of electronic and zero-point Energies=           -796.527713
 Sum of electronic and thermal Energies=              -796.511826
 Sum of electronic and thermal Enthalpies=            -796.510882
 Sum of electronic and thermal Free Energies=         -796.571832

                     E (Thermal)             CV                S
                      KCal/Mol        Cal/Mol-Kelvin    Cal/Mol-Kelvin
 Total                  173.224             58.470            128.280
 Electronic               0.000              0.000              0.000
 Translational            0.889              2.981             42.163
 Rotational               0.889              2.981             32.427
 Vibrational            171.446             52.508             53.690
 Vibration     1          0.595              1.978              4.880
 Vibration     2          0.596              1.976              4.656
 Vibration     3          0.598              1.969              4.179
 Vibration     4          0.598              1.967              4.105
 Vibration     5          0.601              1.958              3.717
 Vibration     6          0.605              1.947              3.404
 Vibration     7          0.608              1.937              3.188
 Vibration     8          0.613              1.920              2.892
 Vibration     9          0.618              1.903              2.670
 Vibration    10          0.635              1.849              2.195
 Vibration    11          0.638              1.839              2.127
 Vibration    12          0.649              1.805              1.931
 Vibration    13          0.679              1.712              1.540
 Vibration    14          0.702              1.646              1.338
 Vibration    15          0.713              1.615              1.259
 Vibration    16          0.727              1.577              1.169
 Vibration    17          0.744              1.528              1.068
 Vibration    18          0.805              1.369              0.808
 Vibration    19          0.877              1.201              0.605
 Vibration    20          0.901              1.149              0.553
 Vibration    21          0.944              1.061              0.474
 Vibration    22          0.973              1.004              0.427

 Optimization completed.
    -- Stationary point found.
 Normal termination of Gaussian 09 at Sat Jul 24 19:34:30 2021.
