 Gaussian 09, Revision D.01,
 Gaussian 09:  ES64L-G09RevD.01 24-Apr-2013

 ----------------------------------------------------------------------
 # B3LYP/6-311G(2df,2pd) EmpiricalDispersion=GD3BJ opt=calcfc freq=nora
 man nosymm integral(ultrafinegrid)
 ----------------------------------------------------------------------

 ------------------------------------------------------------
 Candidate Structure: Conf:342 OPT and FREQ calc in gas phase
 ------------------------------------------------------------
 Symbolic Z-matrix:
 Charge =  1 Multiplicity = 1

 SCF Done:  E(RB3LYP) =  -796.771170596     A.U. after   16 cycles
 SCF Done:  E(RB3LYP) =  -796.776368861     A.U. after   11 cycles
 SCF Done:  E(RB3LYP) =  -796.777279611     A.U. after   12 cycles
 SCF Done:  E(RB3LYP) =  -796.777823252     A.U. after   12 cycles
 SCF Done:  E(RB3LYP) =  -796.778479845     A.U. after   11 cycles
 SCF Done:  E(RB3LYP) =  -796.779255138     A.U. after   12 cycles
 SCF Done:  E(RB3LYP) =  -796.779566175     A.U. after   11 cycles
 SCF Done:  E(RB3LYP) =  -796.779672963     A.U. after   11 cycles
 SCF Done:  E(RB3LYP) =  -796.779718779     A.U. after   11 cycles
 SCF Done:  E(RB3LYP) =  -796.779743213     A.U. after   10 cycles
 SCF Done:  E(RB3LYP) =  -796.779744813     A.U. after    8 cycles
 SCF Done:  E(RB3LYP) =  -796.779745145     A.U. after    7 cycles
 SCF Done:  E(RB3LYP) =  -796.779745204     A.U. after    7 cycles
 SCF Done:  E(RB3LYP) =  -796.779745209     A.U. after    6 cycles
 Optimization completed.
    -- Stationary point found.
 Normal termination of Gaussian 09 at Sat Jul 24 07:51:00 2021.

 ----------------------------------------------------------------------
 #N Geom=AllCheck Guess=TCheck SCRF=Check GenChk RB3LYP/6-311G(2df,2pd)
  Freq
 ----------------------------------------------------------------------

 Structure from the checkpoint file:  "conf-342.chk"
 ------------------------------------------------------------
 Candidate Structure: Conf:342 OPT and FREQ calc in gas phase
 ------------------------------------------------------------
 Charge =  1 Multiplicity = 1

                          Input orientation:
 ---------------------------------------------------------------------
 Center     Atomic      Atomic             Coordinates (Angstroms)
 Number     Number       Type             X           Y           Z
 ---------------------------------------------------------------------
      1          8           0        1.046888   -1.150715    0.314999
      2          6           0        1.400222   -0.054596   -0.096464
      3          7           0        0.570510    0.908481   -0.510155
      4          6           0       -0.857978    0.692853   -0.632851
      5          6           0       -1.369825    1.785830   -1.579252
      6          8           0       -2.673090    1.801479   -1.826059
      7          8           0       -0.617900    2.585353   -2.072866
      8          6           0       -1.575883    0.692055    0.742287
      9          6           0       -2.925103    0.068585    0.680613
     10          6           0       -4.197819    0.587842    0.661837
     11          7           0       -5.131709   -0.415480    0.555790
     12          6           0       -4.448734   -1.530217    0.512684
     13          7           0       -3.105163   -1.297306    0.576507
     14          6           0        2.894327    0.296359   -0.150069
     15          6           0        3.670607   -0.914493    0.328717
     16          7           0        5.166774   -0.636546    0.297525
     17          1           0        0.898098    1.746195   -0.977914
     18          1           0       -1.028059   -0.277882   -1.104833
     19          1           0       -3.161516    1.163257   -1.273267
     20          1           0       -1.656016    1.712648    1.114773
     21          1           0       -0.940846    0.140735    1.435261
     22          1           0       -4.486557    1.623090    0.741712
     23          1           0       -4.860115   -2.522609    0.434913
     24          1           0       -2.375758   -1.990485    0.597074
     25          1           0        3.084691    1.166602    0.482515
     26          1           0        3.169109    0.565736   -1.172893
     27          1           0        3.498090   -1.782689   -0.299750
     28          1           0        3.419295   -1.179908    1.350790
     29          1           0        5.482620   -0.411007   -0.647784
     30          1           0        5.409969    0.154083    0.897469
     31          1           0        5.700601   -1.446307    0.618680
 ---------------------------------------------------------------------

 SCF Done:  E(RB3LYP) =  -796.779745209     A.U. after    1 cycles

 Alpha  occ. eigenvalues --  -19.26113 -19.22681 -19.21021 -14.64172 -14.46690
 Alpha  occ. eigenvalues --  -14.45890 -14.37541 -10.41799 -10.41588 -10.40657
 Alpha  occ. eigenvalues --  -10.35821 -10.34416 -10.31085 -10.30240 -10.29822
 Alpha  occ. eigenvalues --  -10.27426  -1.20935  -1.20888  -1.18287  -1.12935
 Alpha  occ. eigenvalues --   -1.10940  -1.06446  -0.97124  -0.96468  -0.91415
 Alpha  occ. eigenvalues --   -0.86227  -0.83327  -0.79418  -0.79078  -0.77685
 Alpha  occ. eigenvalues --   -0.73184  -0.71245  -0.70616  -0.69651  -0.68712
 Alpha  occ. eigenvalues --   -0.67416  -0.65278  -0.63718  -0.61214  -0.60600
 Alpha  occ. eigenvalues --   -0.58127  -0.57620  -0.56789  -0.55590  -0.54883
 Alpha  occ. eigenvalues --   -0.54333  -0.53309  -0.52075  -0.50897  -0.50754
 Alpha  occ. eigenvalues --   -0.50093  -0.49016  -0.47627  -0.42472  -0.40652
 Alpha  occ. eigenvalues --   -0.39872  -0.38825  -0.37610  -0.35624  -0.32752
 Alpha virt. eigenvalues --   -0.19250  -0.13558  -0.12754  -0.11490  -0.10626
 Alpha virt. eigenvalues --   -0.09851  -0.07951  -0.07587  -0.05918  -0.05225
 Alpha virt. eigenvalues --   -0.04902  -0.04232  -0.02951  -0.02483  -0.01933

 Mulliken charges:
               1
     1  O   -0.431772
     2  C    0.504527
     3  N   -0.332795
     4  C    0.043082
     5  C    0.547209
     6  O   -0.278308
     7  O   -0.363392
     8  C    0.000532
     9  C    0.028674
    10  C    0.093657
    11  N   -0.334851
    12  C    0.255023
    13  N   -0.237671
    14  C   -0.129970
    15  C    0.155829
    16  N    0.088762
    17  H    0.115251
    18  H    0.029939
    19  H    0.230347
    20  H    0.037488
    21  H    0.034268
    22  H    0.039025
    23  H    0.040697
    24  H    0.120272
    25  H    0.054266
    26  H    0.054601
    27  H    0.084050
    28  H    0.083773
    29  H    0.160751
    30  H    0.160306
    31  H    0.146430
 Sum of Mulliken charges =   1.00000

 Dipole moment (field-independent basis, Debye):
    X=             21.5920    Y=             -4.1110    Z=              2.4049  Tot=             22.1110
 Quadrupole moment (field-independent basis, Debye-Ang):
   XX=             13.7262   YY=            -87.6549   ZZ=            -94.3582
   XY=             -4.8823   XZ=              4.2472   YZ=              6.4956

  Exact polarizability: 179.976   3.850 128.519  -1.837 -13.013  96.859
 Approx polarizability: 230.325   7.010 214.914  -1.885 -17.259 151.973

                      1                      2                      3
                      A                      A                      A
 Frequencies --      4.2797                26.4571                39.1107
 Red. masses --      1.8636                 4.8505                 3.5126
 Frc consts  --      0.0000                 0.0020                 0.0032
 IR Inten    --      0.0389                 1.5530                 7.3206

                      4                      5                      6
                      A                      A                      A
 Frequencies --     59.3654                82.4317                88.0245
 Red. masses --      5.3606                 7.0834                 4.5381
 Frc consts  --      0.0111                 0.0284                 0.0207
 IR Inten    --      3.0547                 7.9919                10.8860

                      7                      8                      9
                      A                      A                      A
 Frequencies --     97.2248               116.1367               125.4316
 Red. masses --      6.5912                 5.1145                 4.2884
 Frc consts  --      0.0367                 0.0406                 0.0398
 IR Inten    --      3.3186                11.5370                 6.4209

                     10                     11                     12
                      A                      A                      A
 Frequencies --    193.7143               223.9890               225.7683
 Red. masses --      5.2769                 4.9919                 1.0671
 Frc consts  --      0.1167                 0.1476                 0.0320
 IR Inten    --      1.9153                30.1966                 0.1526

                     13                     14                     15
                      A                      A                      A
 Frequencies --    276.2658               334.6408               335.5783
 Red. masses --      5.8761                 4.7666                 2.4546
 Frc consts  --      0.2642                 0.3145                 0.1629
 IR Inten    --     13.4355                 1.6830                 4.7247

                     16                     17                     18
                      A                      A                      A
 Frequencies --    350.3498               377.7275               384.9612
 Red. masses --      5.0666                 4.0968                 4.4679
 Frc consts  --      0.3664                 0.3444                 0.3901
 IR Inten    --     11.7481                18.0289                13.6778

                     19                     20                     21
                      A                      A                      A
 Frequencies --    554.1503               565.6911               572.3914
 Red. masses --      1.5810                 4.0217                 2.0311
 Frc consts  --      0.2860                 0.7583                 0.3921
 IR Inten    --     57.0301                14.9162                14.9363

                     22                     23                     24
                      A                      A                      A
 Frequencies --    618.7718               658.3162               663.7294
 Red. masses --      2.8407                 1.5530                 1.3582
 Frc consts  --      0.6408                 0.3966                 0.3525
 IR Inten    --     44.5307                 8.4273                76.3725

                     25                     26                     27
                      A                      A                      A
 Frequencies --    676.3284               690.0190               716.2186
 Red. masses --      3.0180                 2.7418                 2.9177
 Frc consts  --      0.8134                 0.7691                 0.8818
 IR Inten    --     18.9055                 1.4159                31.4239

                     28                     29                     30
                      A                      A                      A
 Frequencies --    744.1587               774.1588               793.5211
 Red. masses --      3.2643                 4.0445                 1.2451
 Frc consts  --      1.0651                 1.4281                 0.4619
 IR Inten    --      1.8162                 0.2693                10.0106

                     31                     32                     33
                      A                      A                      A
 Frequencies --    827.0340               852.6272               875.8222
 Red. masses --      3.2020                 1.4179                 1.3687
 Frc consts  --      1.2904                 0.6073                 0.6186
 IR Inten    --      5.6018                15.3288                11.0293

                     34                     35                     36
                      A                      A                      A
 Frequencies --    882.5923               919.8825               935.6546
 Red. masses --      3.0023                 1.2644                 3.5126
 Frc consts  --      1.3779                 0.6304                 1.8118
 IR Inten    --     36.1224                 3.8110                10.6061

                     37                     38                     39
                      A                      A                      A
 Frequencies --    941.8945               980.4525              1004.1881
 Red. masses --      5.3985                 2.0103                 3.5592
 Frc consts  --      2.8218                 1.1386                 2.1146
 IR Inten    --     28.1112                16.3840                34.0387

                     40                     41                     42
                      A                      A                      A
 Frequencies --   1029.2213              1033.4024              1102.5823
 Red. masses --      3.9339                 3.1916                 1.6695
 Frc consts  --      2.4552                 2.0082                 1.1958
 IR Inten    --      9.9395                 2.9033                15.5513

                     43                     44                     45
                      A                      A                      A
 Frequencies --   1104.1777              1113.7585              1146.7122
 Red. masses --      1.5406                 2.6838                 2.1731
 Frc consts  --      1.1067                 1.9615                 1.6836
 IR Inten    --      4.3530                30.2334                11.4335

                     46                     47                     48
                      A                      A                      A
 Frequencies --   1155.5462              1175.9408              1235.5235
 Red. masses --      2.6465                 1.4111                 1.7010
 Frc consts  --      2.0821                 1.1497                 1.5299
 IR Inten    --      4.1729                 3.7559                20.0948

                     49                     50                     51
                      A                      A                      A
 Frequencies --   1242.3287              1257.5918              1285.1863
 Red. masses --      1.7151                 2.2380                 1.3721
 Frc consts  --      1.5596                 2.0854                 1.3353
 IR Inten    --      5.9698                18.7156                 1.1581

                     52                     53                     54
                      A                      A                      A
 Frequencies --   1288.6020              1309.7781              1329.9286
 Red. masses --      1.3303                 1.3325                 1.4090
 Frc consts  --      1.3015                 1.3469                 1.4683
 IR Inten    --      1.5606                20.1507                28.4987

                     55                     56                     57
                      A                      A                      A
 Frequencies --   1338.1968              1342.1450              1362.3779
 Red. masses --      1.2018                 1.3951                 1.7608
 Frc consts  --      1.2680                 1.4807                 1.9256
 IR Inten    --     24.0533                43.1254               108.9804

                     58                     59                     60
                      A                      A                      A
 Frequencies --   1387.4723              1405.9262              1414.7068
 Red. masses --      2.2802                 1.3462                 2.2978
 Frc consts  --      2.5862                 1.5678                 2.7095
 IR Inten    --      1.2750                11.5244               205.5956

                     61                     62                     63
                      A                      A                      A
 Frequencies --   1425.6511              1484.7181              1488.6112
 Red. masses --      2.6837                 1.1249                 1.1064
 Frc consts  --      3.2137                 1.4610                 1.4445
 IR Inten    --     21.4369                 0.9390                12.0984

                     64                     65                     66
                      A                      A                      A
 Frequencies --   1497.8921              1500.3110              1513.3418
 Red. masses --      1.0782                 3.7254                 1.1844
 Frc consts  --      1.4254                 4.9406                 1.5981
 IR Inten    --      8.9925                33.7128               204.5317

                     67                     68                     69
                      A                      A                      A
 Frequencies --   1537.8962              1602.0920              1665.9183
 Red. masses --      2.5699                 4.2712                 1.0420
 Frc consts  --      3.5812                 6.4591                 1.7038
 IR Inten    --    319.7699                 7.0352                47.5531

                     70                     71                     72
                      A                      A                      A
 Frequencies --   1669.2804              1740.3803              1827.6687
 Red. masses --      1.0453                 9.9619                 9.3316
 Frc consts  --      1.7161                17.7780                18.3655
 IR Inten    --     38.8785               256.4549               308.6685

                     73                     74                     75
                      A                      A                      A
 Frequencies --   3033.5808              3041.2344              3061.3851
 Red. masses --      1.0590                 1.0818                 1.0607
 Frc consts  --      5.7418                 5.8950                 5.8573
 IR Inten    --      3.4120                 6.5386                12.6892

                     76                     77                     78
                      A                      A                      A
 Frequencies --   3074.5153              3105.5773              3116.6419
 Red. masses --      1.1046                 1.1048                 1.0593
 Frc consts  --      6.1519                 6.2780                 6.0625
 IR Inten    --      2.8443                 3.0542                 0.5886

                     79                     80                     81
                      A                      A                      A
 Frequencies --   3171.9900              3233.0944              3249.2491
 Red. masses --      1.1120                 1.0967                 1.0989
 Frc consts  --      6.5920                 6.7540                 6.8357
 IR Inten    --      0.0233                 1.9268                 0.8440

                     82                     83                     84
                      A                      A                      A
 Frequencies --   3407.5402              3484.2894              3487.1221
 Red. masses --      1.0297                 1.0929                 1.0931
 Frc consts  --      7.0443                 7.8174                 7.8317
 IR Inten    --     54.8182                85.8078                91.7392

                     85                     86                     87
                      A                      A                      A
 Frequencies --   3520.4040              3567.5324              3639.0531
 Red. masses --      1.0776                 1.0676                 1.0814
 Frc consts  --      7.8683                 8.0059                 8.4373
 IR Inten    --    128.3622               518.8896                54.5590

 - Thermochemistry -
 -------------------
 Temperature   298.150 Kelvin.  Pressure   1.00000 Atm.
 Atom     1 has atomic number  8 and mass  15.99491

 Molecular mass:   227.11442 amu.
 Principal axes and moments of inertia in atomic units:
                           1         2         3
     Eigenvalues --  1901.796297429.004248961.57094
           X            0.99883   0.03327   0.03520
           Y           -0.04765   0.80557   0.59058
           Z           -0.00870  -0.59157   0.80621
 This molecule is an asymmetric top.
 Rotational symmetry number  1.
 Warning -- assumption of classical behavior for rotation
           may cause significant error
 Rotational temperatures (Kelvin)      0.04554     0.01166     0.00967
 Rotational constants (GHZ):           0.94897     0.24293     0.20139
 Zero-point vibrational energy     680658.0 (Joules/Mol)
                                  162.68117 (Kcal/Mol)
 Warning -- explicit consideration of  22 degrees of freedom as
           vibrations may cause significant error
 Vibrational temperatures:      6.16    38.07    56.27    85.41   118.60
          (Kelvin)            126.65   139.88   167.09   180.47   278.71
                              322.27   324.83   397.48   481.47   482.82
                              504.07   543.46   553.87   797.30   813.90
                              823.54   890.27   947.17   954.96   973.08
                              992.78  1030.48  1070.68  1113.84  1141.70
                             1189.92  1226.74  1260.11  1269.85  1323.50
                             1346.20  1355.17  1410.65  1444.80  1480.82
                             1486.83  1586.37  1588.66  1602.45  1649.86
                             1662.57  1691.91  1777.64  1787.43  1809.39
                             1849.09  1854.01  1884.48  1913.47  1925.36
                             1931.04  1960.16  1996.26  2022.81  2035.44
                             2051.19  2136.18  2141.78  2155.13  2158.61
                             2177.36  2212.69  2305.05  2396.88  2401.72
                             2504.02  2629.60  4364.64  4375.65  4404.64
                             4423.54  4468.23  4484.15  4563.78  4651.70
                             4674.94  4902.68  5013.11  5017.18  5065.07
                             5132.88  5235.78

 Zero-point correction=                           0.259249 (Hartree/Particle)
 Thermal correction to Energy=                    0.275483
 Thermal correction to Enthalpy=                  0.276428
 Thermal correction to Gibbs Free Energy=         0.210900
 Sum of electronic and zero-point Energies=           -796.520496
 Sum of electronic and thermal Energies=              -796.504262
 Sum of electronic and thermal Enthalpies=            -796.503318
 Sum of electronic and thermal Free Energies=         -796.568846

                     E (Thermal)             CV                S
                      KCal/Mol        Cal/Mol-Kelvin    Cal/Mol-Kelvin
 Total                  172.868             58.486            137.915
 Electronic               0.000              0.000              0.000
 Translational            0.889              2.981             42.163
 Rotational               0.889              2.981             33.204
 Vibrational            171.091             52.524             62.548
 Vibration     1          0.593              1.987              9.697
 Vibration     2          0.593              1.985              6.079
 Vibration     3          0.594              1.981              5.304
 Vibration     4          0.597              1.974              4.478
 Vibration     5          0.600              1.961              3.832
 Vibration     6          0.601              1.958              3.704
 Vibration     7          0.603              1.951              3.509
 Vibration     8          0.608              1.936              3.164
 Vibration     9          0.610              1.928              3.015
 Vibration    10          0.635              1.849              2.192
 Vibration    11          0.649              1.805              1.927
 Vibration    12          0.650              1.802              1.912
 Vibration    13          0.678              1.717              1.557
 Vibration    14          0.716              1.606              1.238
 Vibration    15          0.717              1.604              1.233
 Vibration    16          0.727              1.575              1.165
 Vibration    17          0.748              1.518              1.048
 Vibration    18          0.754              1.502              1.020
 Vibration    19          0.910              1.131              0.536
 Vibration    20          0.922              1.105              0.513
 Vibration    21          0.929              1.091              0.500
 Vibration    22          0.979              0.992              0.418

 Optimization completed on the basis of negligible forces.
    -- Stationary point found.
 Normal termination of Gaussian 09 at Sat Jul 24 11:29:24 2021.
