 Gaussian 09, Revision D.01,
 Gaussian 09:  ES64L-G09RevD.01 24-Apr-2013

 ----------------------------------------------------------------------
 # B3LYP/6-311G(2df,2pd) EmpiricalDispersion=GD3BJ guess=read geom=chec
 kpoint opt=readfc freq=noraman nosymm integral(ultrafinegrid)
 ----------------------------------------------------------------------

 ------------------------------------------------------------
 Candidate Structure: Conf:719 OPT and FREQ calc in gas phase
 ------------------------------------------------------------
 Structure from the checkpoint file:  "conf-719.chk"
 Charge =  1 Multiplicity = 1

 SCF Done:  E(RB3LYP) =  -796.779683935     A.U. after   11 cycles
 SCF Done:  E(RB3LYP) =  -796.780398719     A.U. after   10 cycles
 SCF Done:  E(RB3LYP) =  -796.780429905     A.U. after   10 cycles
 SCF Done:  E(RB3LYP) =  -796.780459960     A.U. after   11 cycles
 SCF Done:  E(RB3LYP) =  -796.780487234     A.U. after   11 cycles
 SCF Done:  E(RB3LYP) =  -796.780486597     A.U. after    9 cycles
 SCF Done:  E(RB3LYP) =  -796.780492390     A.U. after   10 cycles
 SCF Done:  E(RB3LYP) =  -796.780348686     A.U. after   13 cycles
 SCF Done:  E(RB3LYP) =  -796.780464850     A.U. after   12 cycles
 SCF Done:  E(RB3LYP) =  -796.780506616     A.U. after   11 cycles
 SCF Done:  E(RB3LYP) =  -796.780488523     A.U. after    8 cycles
 SCF Done:  E(RB3LYP) =  -796.780524904     A.U. after   11 cycles
 SCF Done:  E(RB3LYP) =  -796.780532496     A.U. after    9 cycles
 SCF Done:  E(RB3LYP) =  -796.780536176     A.U. after    9 cycles
 SCF Done:  E(RB3LYP) =  -796.780536214     A.U. after    6 cycles
 Optimization completed.
    -- Stationary point found.
 Normal termination of Gaussian 09 at Thu Jul 29 05:01:55 2021.

 ----------------------------------------------------------------------
 #N Geom=AllCheck Guess=TCheck SCRF=Check GenChk RB3LYP/6-311G(2df,2pd)
  Freq
 ----------------------------------------------------------------------

 Structure from the checkpoint file:  "conf-719.chk"
 ------------------------------------------------------------
 Candidate Structure: Conf:719 OPT and FREQ calc in gas phase
 ------------------------------------------------------------
 Charge =  1 Multiplicity = 1

                          Input orientation:
 ---------------------------------------------------------------------
 Center     Atomic      Atomic             Coordinates (Angstroms)
 Number     Number       Type             X           Y           Z
 ---------------------------------------------------------------------
      1          8           0       -0.918077    0.260742    1.287746
      2          6           0       -1.342548    0.308319    0.145414
      3          7           0       -0.577368    0.310267   -0.954290
      4          6           0        0.874763    0.343093   -0.878893
      5          6           0        1.346377    0.764827   -2.257987
      6          8           0        2.679525    0.868519   -2.340927
      7          8           0        0.607646    0.967549   -3.186667
      8          6           0        1.478992   -1.020045   -0.422746
      9          6           0        2.717878   -0.907428    0.389886
     10          6           0        2.903211   -1.027945    1.742752
     11          7           0        4.221786   -0.843452    2.074536
     12          6           0        4.837837   -0.610091    0.941544
     13          7           0        3.975150   -0.641268   -0.112694
     14          6           0       -2.859265    0.359257   -0.099361
     15          6           0       -3.531278    0.351846    1.260201
     16          7           0       -5.045502    0.406003    1.113482
     17          1           0       -0.966154    0.444400   -1.877831
     18          1           0        1.180574    1.098243   -0.152861
     19          1           0        2.895681    1.140537   -3.245994
     20          1           0        0.728923   -1.491075    0.207357
     21          1           0        1.616323   -1.665877   -1.293005
     22          1           0        2.154389   -1.240837    2.487181
     23          1           0        5.890564   -0.417245    0.820592
     24          1           0        4.188495   -0.435539   -1.072413
     25          1           0       -3.162851   -0.502212   -0.698970
     26          1           0       -3.111306    1.260911   -0.663060
     27          1           0       -3.241345    1.208601    1.860321
     28          1           0       -3.300204   -0.547828    1.821719
     29          1           0       -5.396676   -0.394847    0.585111
     30          1           0       -5.504246    0.401533    2.026368
     31          1           0       -5.341076    1.251096    0.621200
 ---------------------------------------------------------------------

 SCF Done:  E(RB3LYP) =  -796.780536214     A.U. after    1 cycles

 Alpha  occ. eigenvalues --  -19.28825 -19.23166 -19.22036 -14.63800 -14.46486
 Alpha  occ. eigenvalues --  -14.43235 -14.35048 -10.42311 -10.41330 -10.41062
 Alpha  occ. eigenvalues --  -10.35465 -10.34170 -10.28633 -10.28521 -10.27345
 Alpha  occ. eigenvalues --  -10.24582  -1.23418  -1.20530  -1.17846  -1.14547
 Alpha  occ. eigenvalues --   -1.08345  -1.06166  -0.96666  -0.93942  -0.90745
 Alpha  occ. eigenvalues --   -0.85201  -0.82902  -0.79062  -0.78536  -0.77113
 Alpha  occ. eigenvalues --   -0.74313  -0.71108  -0.69192  -0.68389  -0.66158
 Alpha  occ. eigenvalues --   -0.64932  -0.64560  -0.62809  -0.60953  -0.59925
 Alpha  occ. eigenvalues --   -0.59444  -0.57647  -0.56831  -0.56328  -0.54298
 Alpha  occ. eigenvalues --   -0.53688  -0.53185  -0.51416  -0.50233  -0.49060
 Alpha  occ. eigenvalues --   -0.48175  -0.47979  -0.47401  -0.44752  -0.40782
 Alpha  occ. eigenvalues --   -0.39697  -0.39358  -0.35094  -0.33315  -0.29932
 Alpha virt. eigenvalues --   -0.18939  -0.13172  -0.12428  -0.11540  -0.10678
 Alpha virt. eigenvalues --   -0.10217  -0.07552  -0.06814  -0.05547  -0.05174
 Alpha virt. eigenvalues --   -0.04611  -0.02559  -0.02298  -0.01531  -0.01276

 Mulliken charges:
               1
     1  O   -0.409631
     2  C    0.502844
     3  N   -0.338014
     4  C    0.118117
     5  C    0.551202
     6  O   -0.349936
     7  O   -0.368709
     8  C   -0.018726
     9  C    0.083758
    10  C    0.124855
    11  N   -0.342779
    12  C    0.240457
    13  N   -0.227495
    14  C   -0.133727
    15  C    0.155477
    16  N    0.087220
    17  H    0.110549
    18  H    0.037537
    19  H    0.246479
    20  H    0.021500
    21  H    0.026336
    22  H    0.010894
    23  H    0.029522
    24  H    0.101254
    25  H    0.051617
    26  H    0.051646
    27  H    0.086185
    28  H    0.085582
    29  H    0.159258
    30  H    0.147233
    31  H    0.159494
 Sum of Mulliken charges =   1.00000

 Dipole moment (field-independent basis, Debye):
    X=            -19.3236    Y=              2.3798    Z=             -1.6766  Tot=             19.5417
 Quadrupole moment (field-independent basis, Debye-Ang):
   XX=             28.7853   YY=            -88.2594   ZZ=            -89.0010
   XY=             -3.7873   XZ=            -44.1780   YZ=              2.4730

  Exact polarizability: 176.697  -2.960  89.708   0.004 -10.171 138.013
 Approx polarizability: 223.419   3.556 141.610   8.782 -11.073 227.752

                      1                      2                      3
                      A                      A                      A
 Frequencies --      9.7498                14.3623                36.1017
 Red. masses --      1.7843                 4.5134                 5.6730
 Frc consts  --      0.0001                 0.0005                 0.0044
 IR Inten    --      0.3169                 6.0417                 4.8758

                      4                      5                      6
                      A                      A                      A
 Frequencies --     40.6677                57.1587                78.3695
 Red. masses --      3.8719                 6.6015                 9.0639
 Frc consts  --      0.0038                 0.0127                 0.0328
 IR Inten    --     16.4805                 4.6015                 8.2711

                      7                      8                      9
                      A                      A                      A
 Frequencies --     97.7739               107.3913               127.8972
 Red. masses --      3.6853                 5.0005                 4.4290
 Frc consts  --      0.0208                 0.0340                 0.0427
 IR Inten    --      1.4103                 9.3171                 1.9751

                     10                     11                     12
                      A                      A                      A
 Frequencies --    187.9191               212.4063               225.9981
 Red. masses --      4.9207                 4.9354                 1.0643
 Frc consts  --      0.1024                 0.1312                 0.0320
 IR Inten    --      2.3092                16.5178                 0.0312

                     13                     14                     15
                      A                      A                      A
 Frequencies --    274.9671               312.0294               333.4377
 Red. masses --      5.8213                 2.6824                 3.7205
 Frc consts  --      0.2593                 0.1539                 0.2437
 IR Inten    --     19.9445                 2.1186                 3.3395

                     16                     17                     18
                      A                      A                      A
 Frequencies --    346.2784               371.3466               381.9979
 Red. masses --      6.2105                 3.9872                 4.1522
 Frc consts  --      0.4388                 0.3239                 0.3570
 IR Inten    --     19.0741                 5.4590                 7.6980

                     19                     20                     21
                      A                      A                      A
 Frequencies --    532.5482               540.7427               551.5101
 Red. masses --      1.5151                 1.6172                 3.2878
 Frc consts  --      0.2532                 0.2786                 0.5892
 IR Inten    --     72.7074                29.6312                52.0800

                     22                     23                     24
                      A                      A                      A
 Frequencies --    599.8384               638.2544               642.4317
 Red. masses --      1.7783                 1.5894                 2.4955
 Frc consts  --      0.3770                 0.3815                 0.6068
 IR Inten    --     29.7048                34.7291                28.7947

                     25                     26                     27
                      A                      A                      A
 Frequencies --    670.4205               684.2918               708.0160
 Red. masses --      2.3430                 2.9271                 4.2733
 Frc consts  --      0.6205                 0.8075                 1.2621
 IR Inten    --     56.4084                10.4389                 2.7287

                     28                     29                     30
                      A                      A                      A
 Frequencies --    741.8412               777.0207               792.1743
 Red. masses --      3.1887                 3.8177                 1.2440
 Frc consts  --      1.0339                 1.3581                 0.4600
 IR Inten    --     23.7555                 7.4820                 9.3345

                     31                     32                     33
                      A                      A                      A
 Frequencies --    823.6151               836.0169               865.4541
 Red. masses --      2.5765                 1.4141                 1.4715
 Frc consts  --      1.0297                 0.5823                 0.6494
 IR Inten    --     12.9870                18.1319                13.9978

                     34                     35                     36
                      A                      A                      A
 Frequencies --    881.1426               919.8468               928.4948
 Red. masses --      3.0660                 1.2657                 3.5233
 Frc consts  --      1.4025                 0.6310                 1.7896
 IR Inten    --     35.0273                 3.7051                22.6216

                     37                     38                     39
                      A                      A                      A
 Frequencies --    942.8221               976.9691              1007.0008
 Red. masses --      5.6423                 2.0027                 4.7989
 Frc consts  --      2.9550                 1.1263                 2.8672
 IR Inten    --     14.3707                16.3633                 5.7251

                     40                     41                     42
                      A                      A                      A
 Frequencies --   1012.9360              1032.7409              1096.4896
 Red. masses --      3.1145                 3.5183                 3.2482
 Frc consts  --      1.8828                 2.2109                 2.3009
 IR Inten    --     35.1431                14.1871                54.3013

                     43                     44                     45
                      A                      A                      A
 Frequencies --   1102.1239              1111.9665              1145.4119
 Red. masses --      1.5408                 1.6022                 2.1933
 Frc consts  --      1.1027                 1.1672                 1.6954
 IR Inten    --      5.4318                29.4980                 1.3550

                     46                     47                     48
                      A                      A                      A
 Frequencies --   1149.7594              1188.1910              1193.0941
 Red. masses --      2.2732                 1.3162                 2.5616
 Frc consts  --      1.7705                 1.0948                 2.1484
 IR Inten    --     25.2059                 4.6108               169.6133

                     49                     50                     51
                      A                      A                      A
 Frequencies --   1239.4855              1265.7293              1281.0715
 Red. masses --      1.5719                 2.2346                 1.4655
 Frc consts  --      1.4229                 2.1093                 1.4170
 IR Inten    --     16.9549                 6.8095                 5.2002

                     52                     53                     54
                      A                      A                      A
 Frequencies --   1286.2546              1307.3285              1324.5047
 Red. masses --      1.3331                 1.3714                 1.2279
 Frc consts  --      1.2995                 1.3810                 1.2692
 IR Inten    --      1.3763                 7.8344                 3.1068

                     55                     56                     57
                      A                      A                      A
 Frequencies --   1339.3263              1344.1175              1360.0430
 Red. masses --      1.1001                 1.5741                 1.4999
 Frc consts  --      1.1626                 1.6756                 1.6346
 IR Inten    --      3.9268                 7.9780                33.6620

                     58                     59                     60
                      A                      A                      A
 Frequencies --   1396.5333              1405.6695              1423.9267
 Red. masses --      3.2463                 1.3356                 2.5299
 Frc consts  --      3.7303                 1.5549                 3.0222
 IR Inten    --     39.5232                18.1295                99.2671

                     61                     62                     63
                      A                      A                      A
 Frequencies --   1430.8221              1477.4799              1484.6109
 Red. masses --      2.7879                 1.1505                 1.1264
 Frc consts  --      3.3628                 1.4798                 1.4627
 IR Inten    --     21.0018                24.0125                 2.4679

                     64                     65                     66
                      A                      A                      A
 Frequencies --   1496.3927              1498.2366              1512.0136
 Red. masses --      1.0804                 3.1829                 1.1776
 Frc consts  --      1.4254                 4.2095                 1.5862
 IR Inten    --      8.5907                23.1080               182.6136

                     67                     68                     69
                      A                      A                      A
 Frequencies --   1543.2385              1606.7054              1666.1487
 Red. masses --      2.3961                 4.3652                 1.0422
 Frc consts  --      3.3621                 6.6394                 1.7046
 IR Inten    --    317.6116                 4.0196                47.3794

                     70                     71                     72
                      A                      A                      A
 Frequencies --   1669.1995              1750.3350              1814.8631
 Red. masses --      1.0452                10.1131                 9.6306
 Frc consts  --      1.7157                18.2548                18.6892
 IR Inten    --     37.5592               246.9854               276.1732

                     73                     74                     75
                      A                      A                      A
 Frequencies --   3032.6875              3036.9885              3063.5341
 Red. masses --      1.0587                 1.0702                 1.0828
 Frc consts  --      5.7371                 5.8156                 5.9876
 IR Inten    --      4.6305                19.6560                 7.2252

                     76                     77                     78
                      A                      A                      A
 Frequencies --   3073.9649              3118.0548              3118.3927
 Red. masses --      1.1047                 1.0605                 1.0923
 Frc consts  --      6.1502                 6.0746                 6.2584
 IR Inten    --      3.5560                 0.2512                 4.2490

                     79                     80                     81
                      A                      A                      A
 Frequencies --   3173.3707              3236.3446              3246.7548
 Red. masses --      1.1121                 1.0962                 1.0987
 Frc consts  --      6.5982                 6.7645                 6.8236
 IR Inten    --      0.0590                 5.0445                 0.4195

                     82                     83                     84
                      A                      A                      A
 Frequencies --   3408.3783              3486.1919              3487.5078
 Red. masses --      1.0296                 1.0929                 1.0931
 Frc consts  --      7.0473                 7.8261                 7.8334
 IR Inten    --     53.6309                84.7877                91.3962

                     85                     86                     87
                      A                      A                      A
 Frequencies --   3561.0473              3666.7537              3735.6337
 Red. masses --      1.0779                 1.0807                 1.0642
 Frc consts  --      8.0537                 8.5612                 8.7499
 IR Inten    --    115.1248                67.8592               116.7140

 - Thermochemistry -
 -------------------
 Temperature   298.150 Kelvin.  Pressure   1.00000 Atm.
 Atom     1 has atomic number  8 and mass  15.99491

 Molecular mass:   227.11442 amu.
 Principal axes and moments of inertia in atomic units:
                           1         2         3
     Eigenvalues --  2222.624746957.072808927.16476
           X            0.99090   0.01598   0.13361
           Y           -0.12246  -0.30459   0.94458
           Z           -0.05579   0.95235   0.29986
 This molecule is an asymmetric top.
 Rotational symmetry number  1.
 Warning -- assumption of classical behavior for rotation
           may cause significant error
 Rotational temperatures (Kelvin)      0.03897     0.01245     0.00970
 Rotational constants (GHZ):           0.81199     0.25941     0.20216
 Zero-point vibrational energy     679949.4 (Joules/Mol)
                                  162.51180 (Kcal/Mol)
 Warning -- explicit consideration of  22 degrees of freedom as
           vibrations may cause significant error
 Vibrational temperatures:     14.03    20.66    51.94    58.51    82.24
          (Kelvin)            112.76   140.67   154.51   184.02   270.37
                              305.60   325.16   395.62   448.94   479.74
                              498.22   534.28   549.61   766.22   778.01
                              793.50   863.03   918.30   924.31   964.58
                              984.54  1018.68  1067.34  1117.96  1139.76
                             1185.00  1202.84  1245.19  1267.77  1323.45
                             1335.90  1356.51  1405.64  1448.85  1457.39
                             1485.88  1577.60  1585.71  1599.87  1647.99
                             1654.25  1709.54  1716.59  1783.34  1821.10
                             1843.17  1850.63  1880.95  1905.66  1926.99
                             1933.88  1956.80  2009.30  2022.44  2048.71
                             2058.63  2125.76  2136.02  2152.97  2155.63
                             2175.45  2220.37  2311.69  2397.21  2401.60
                             2518.34  2611.18  4363.36  4369.54  4407.74
                             4422.74  4486.18  4486.67  4565.77  4656.37
                             4671.35  4903.89  5015.85  5017.74  5123.55
                             5275.63  5374.74

 Zero-point correction=                           0.258979 (Hartree/Particle)
 Thermal correction to Energy=                    0.275521
 Thermal correction to Enthalpy=                  0.276465
 Thermal correction to Gibbs Free Energy=         0.209867
 Sum of electronic and zero-point Energies=           -796.521557
 Sum of electronic and thermal Energies=              -796.505015
 Sum of electronic and thermal Enthalpies=            -796.504071
 Sum of electronic and thermal Free Energies=         -796.570669

                     E (Thermal)             CV                S
                      KCal/Mol        Cal/Mol-Kelvin    Cal/Mol-Kelvin
 Total                  172.892             59.039            140.168
 Electronic               0.000              0.000              0.000
 Translational            0.889              2.981             42.163
 Rotational               0.889              2.981             33.290
 Vibrational            171.115             53.077             64.716
 Vibration     1          0.593              1.987              8.061
 Vibration     2          0.593              1.986              7.292
 Vibration     3          0.594              1.982              5.462
 Vibration     4          0.594              1.981              5.226
 Vibration     5          0.596              1.975              4.553
 Vibration     6          0.600              1.964              3.931
 Vibration     7          0.603              1.951              3.498
 Vibration     8          0.606              1.943              3.316
 Vibration     9          0.611              1.925              2.977
 Vibration    10          0.633              1.856              2.248
 Vibration    11          0.643              1.822              2.023
 Vibration    12          0.650              1.801              1.911
 Vibration    13          0.677              1.720              1.565
 Vibration    14          0.700              1.651              1.352
 Vibration    15          0.715              1.609              1.243
 Vibration    16          0.724              1.583              1.183
 Vibration    17          0.743              1.531              1.074
 Vibration    18          0.751              1.509              1.031
 Vibration    19          0.888              1.178              0.582
 Vibration    20          0.896              1.160              0.564
 Vibration    21          0.907              1.136              0.541
 Vibration    22          0.958              1.032              0.450

 Normal termination of Gaussian 09 at Thu Jul 29 08:39:49 2021.
