 Gaussian 09, Revision D.01,
 Gaussian 09:  ES64L-G09RevD.01 24-Apr-2013

 ----------------------------------------------------------------------
 # B3LYP/6-311G(2df,2pd) EmpiricalDispersion=GD3BJ opt=calcfc freq=nora
 man nosymm integral(ultrafinegrid)
 ----------------------------------------------------------------------

 ------------------------------------------------------------
 Candidate Structure: Conf:318 OPT and FREQ calc in gas phase
 ------------------------------------------------------------
 Symbolic Z-matrix:
 Charge =  1 Multiplicity = 1

 SCF Done:  E(RB3LYP) =  -796.768087946     A.U. after   16 cycles
 SCF Done:  E(RB3LYP) =  -796.774424775     A.U. after   14 cycles
 SCF Done:  E(RB3LYP) =  -796.775007339     A.U. after   14 cycles
 SCF Done:  E(RB3LYP) =  -796.778360544     A.U. after   14 cycles
 SCF Done:  E(RB3LYP) =  -796.770375690     A.U. after   15 cycles
 SCF Done:  E(RB3LYP) =  -796.779836930     A.U. after   11 cycles
 SCF Done:  E(RB3LYP) =  -796.097206070     A.U. after   22 cycles
 SCF Done:  E(RB3LYP) =  -796.780279709     A.U. after   12 cycles
 SCF Done:  E(RB3LYP) =  -796.781425574     A.U. after   12 cycles
 SCF Done:  E(RB3LYP) =  -796.780894328     A.U. after   12 cycles
 SCF Done:  E(RB3LYP) =  -796.781713139     A.U. after    9 cycles
 SCF Done:  E(RB3LYP) =  -796.781692122     A.U. after   12 cycles
 SCF Done:  E(RB3LYP) =  -796.782188552     A.U. after   12 cycles
 SCF Done:  E(RB3LYP) =  -796.782395801     A.U. after   11 cycles
 SCF Done:  E(RB3LYP) =  -796.782412153     A.U. after    9 cycles
 SCF Done:  E(RB3LYP) =  -796.782412183     A.U. after    9 cycles
 SCF Done:  E(RB3LYP) =  -796.782413795     A.U. after    8 cycles
 SCF Done:  E(RB3LYP) =  -796.782414132     A.U. after    7 cycles
 SCF Done:  E(RB3LYP) =  -796.782414149     A.U. after    6 cycles
 Optimization completed.
    -- Stationary point found.
 Normal termination of Gaussian 09 at Sat Jul 24 10:46:50 2021.

 ----------------------------------------------------------------------
 #N Geom=AllCheck Guess=TCheck SCRF=Check GenChk RB3LYP/6-311G(2df,2pd)
  Freq
 ----------------------------------------------------------------------

 Structure from the checkpoint file:  "conf-318.chk"
 ------------------------------------------------------------
 Candidate Structure: Conf:318 OPT and FREQ calc in gas phase
 ------------------------------------------------------------
 Charge =  1 Multiplicity = 1

                          Input orientation:
 ---------------------------------------------------------------------
 Center     Atomic      Atomic             Coordinates (Angstroms)
 Number     Number       Type             X           Y           Z
 ---------------------------------------------------------------------
      1          8           0        0.816907    0.323986    1.936736
      2          6           0        0.953067   -0.532805    1.083376
      3          7           0        0.071936   -1.514509    0.820985
      4          6           0       -1.305349   -1.507269    1.269986
      5          6           0       -2.024597   -2.543443    0.395430
      6          8           0       -3.253441   -2.897815    0.778984
      7          8           0       -1.527837   -3.000637   -0.597061
      8          6           0       -1.996230   -0.115310    1.170904
      9          6           0       -1.591293    0.684279   -0.022860
     10          6           0       -1.196113    0.360573   -1.296730
     11          7           0       -0.801077    1.489178   -1.984992
     12          6           0       -0.977885    2.490741   -1.151503
     13          7           0       -1.445426    2.053293    0.047968
     14          6           0        2.177439   -0.499732    0.157116
     15          6           0        2.176055    0.876659   -0.484957
     16          7           0        3.355269    1.043413   -1.430319
     17          1           0        0.209804   -2.108962    0.014436
     18          1           0       -1.367571   -1.830298    2.312144
     19          1           0       -3.500318   -2.507888    1.626062
     20          1           0       -3.077447   -0.270702    1.191476
     21          1           0       -1.735085    0.444750    2.065927
     22          1           0       -1.173961   -0.614091   -1.752468
     23          1           0       -0.800682    3.532135   -1.361411
     24          1           0       -1.648775    2.622930    0.852418
     25          1           0        2.135541   -1.286333   -0.597282
     26          1           0        3.069976   -0.646219    0.768300
     27          1           0        2.258879    1.653193    0.269746
     28          1           0        1.287376    1.050827   -1.089373
     29          1           0        4.247593    0.922937   -0.947815
     30          1           0        3.348885    1.970504   -1.859212
     31          1           0        3.314311    0.356857   -2.185807
 ---------------------------------------------------------------------

 SCF Done:  E(RB3LYP) =  -796.782414149     A.U. after    1 cycles

 Alpha  occ. eigenvalues --  -19.28731 -19.22926 -19.21777 -14.62526 -14.48122
 Alpha  occ. eigenvalues --  -14.46486 -14.40525 -10.42458 -10.40801 -10.39735
 Alpha  occ. eigenvalues --  -10.35879 -10.34337 -10.33554 -10.32088 -10.31348
 Alpha  occ. eigenvalues --  -10.29145  -1.23046  -1.19271  -1.17618  -1.14991
 Alpha  occ. eigenvalues --   -1.13261  -1.06471  -0.98789  -0.95747  -0.92172
 Alpha  occ. eigenvalues --   -0.86673  -0.83115  -0.79841  -0.77830  -0.77161
 Alpha  occ. eigenvalues --   -0.74819  -0.73000  -0.71479  -0.70459  -0.68452
 Alpha  occ. eigenvalues --   -0.67612  -0.65511  -0.63517  -0.61835  -0.60191
 Alpha  occ. eigenvalues --   -0.58845  -0.57711  -0.57510  -0.56604  -0.56261
 Alpha  occ. eigenvalues --   -0.54659  -0.53729  -0.52475  -0.52308  -0.51980
 Alpha  occ. eigenvalues --   -0.51780  -0.50022  -0.49556  -0.44479  -0.40855
 Alpha  occ. eigenvalues --   -0.40381  -0.39592  -0.39111  -0.38687  -0.34610
 Alpha virt. eigenvalues --   -0.17662  -0.12880  -0.12086  -0.11341  -0.10605
 Alpha virt. eigenvalues --   -0.09874  -0.08881  -0.08211  -0.06606  -0.05675
 Alpha virt. eigenvalues --   -0.05338  -0.03999  -0.03170  -0.02859  -0.02101

 Mulliken charges:
               1
     1  O   -0.417907
     2  C    0.382039
     3  N   -0.267952
     4  C    0.028642
     5  C    0.545343
     6  O   -0.284266
     7  O   -0.351908
     8  C   -0.023929
     9  C    0.160785
    10  C    0.009444
    11  N   -0.366444
    12  C    0.215439
    13  N   -0.205256
    14  C   -0.030691
    15  C    0.105230
    16  N    0.099393
    17  H    0.113264
    18  H    0.051921
    19  H    0.222111
    20  H    0.037962
    21  H    0.046535
    22  H    0.044877
    23  H    0.042742
    24  H    0.121340
    25  H    0.034315
    26  H    0.051945
    27  H    0.064664
    28  H    0.111627
    29  H    0.153121
    30  H    0.145511
    31  H    0.160103
 Sum of Mulliken charges =   1.00000

 Dipole moment (field-independent basis, Debye):
    X=              9.5350    Y=              4.3741    Z=             -0.7061  Tot=             10.5141
 Quadrupole moment (field-independent basis, Debye-Ang):
   XX=            -31.9714   YY=            -78.3376   ZZ=            -86.2232
   XY=              9.6762   XZ=            -34.6573   YZ=            -11.1537

  Exact polarizability: 132.466  14.069 134.773 -17.819  -5.800 120.280
 Approx polarizability: 181.632  13.360 209.400 -28.614  13.743 208.438

                      1                      2                      3
                      A                      A                      A
 Frequencies --     41.2409                48.5173                57.1211
 Red. masses --      4.1040                 4.0353                 2.8621
 Frc consts  --      0.0041                 0.0056                 0.0055
 IR Inten    --     11.4286                14.9297                 7.7800

                      4                      5                      6
                      A                      A                      A
 Frequencies --     59.9232                79.8492                94.7341
 Red. masses --      3.7975                 4.9499                 6.3869
 Frc consts  --      0.0080                 0.0186                 0.0338
 IR Inten    --      4.6898                 5.8675                 6.7940

                      7                      8                      9
                      A                      A                      A
 Frequencies --    122.5616               154.4905               163.4895
 Red. masses --      3.1996                 4.7065                 6.2932
 Frc consts  --      0.0283                 0.0662                 0.0991
 IR Inten    --     10.8450                13.7592                27.2507

                     10                     11                     12
                      A                      A                      A
 Frequencies --    200.3210               215.1160               220.8950
 Red. masses --      4.1786                 5.0296                 1.1638
 Frc consts  --      0.0988                 0.1371                 0.0335
 IR Inten    --      4.1529                 2.9589                 0.0471

                     13                     14                     15
                      A                      A                      A
 Frequencies --    288.4995               308.1948               320.1106
 Red. masses --      5.1942                 3.1860                 4.9678
 Frc consts  --      0.2547                 0.1783                 0.2999
 IR Inten    --      1.4022                 3.9315                 8.6400

                     16                     17                     18
                      A                      A                      A
 Frequencies --    336.3124               377.4454               456.0315
 Red. masses --      3.5884                 3.4877                 2.4846
 Frc consts  --      0.2391                 0.2927                 0.3044
 IR Inten    --     10.3453                24.0022                51.7029

                     19                     20                     21
                      A                      A                      A
 Frequencies --    503.8988               549.0354               573.2241
 Red. masses --      1.4494                 3.1155                 1.4513
 Frc consts  --      0.2168                 0.5533                 0.2810
 IR Inten    --     50.5549                19.9009                71.3167

                     22                     23                     24
                      A                      A                      A
 Frequencies --    625.6730               633.5754               666.0126
 Red. masses --      5.0251                 2.4293                 2.3513
 Frc consts  --      1.1590                 0.5745                 0.6145
 IR Inten    --     21.0587                60.9169                10.5362

                     25                     26                     27
                      A                      A                      A
 Frequencies --    689.2581               691.6957               714.2827
 Red. masses --      2.1815                 2.9433                 3.1683
 Frc consts  --      0.6106                 0.8297                 0.9524
 IR Inten    --     15.1157                16.9638                 0.3091

                     28                     29                     30
                      A                      A                      A
 Frequencies --    742.0769               797.8374               800.5074
 Red. masses --      6.4736                 1.6807                 1.9159
 Frc consts  --      2.1004                 0.6303                 0.7234
 IR Inten    --      6.9344                 4.2498                 4.7079

                     31                     32                     33
                      A                      A                      A
 Frequencies --    828.3812               846.2076               885.5977
 Red. masses --      1.4353                 2.7185                 1.7515
 Frc consts  --      0.5803                 1.1469                 0.8093
 IR Inten    --     13.1689                 9.0416                22.7926

                     34                     35                     36
                      A                      A                      A
 Frequencies --    889.4491               920.5618               928.2751
 Red. masses --      1.9774                 1.4453                 2.9976
 Frc consts  --      0.9217                 0.7216                 1.5219
 IR Inten    --     10.6163                 2.3106                 8.1562

                     37                     38                     39
                      A                      A                      A
 Frequencies --    949.5169               959.5161               978.6737
 Red. masses --      3.3563                 4.4377                 2.3493
 Frc consts  --      1.7829                 2.4072                 1.3257
 IR Inten    --     18.3126                 7.9303                36.6721

                     40                     41                     42
                      A                      A                      A
 Frequencies --   1027.6638              1040.7866              1080.0473
 Red. masses --      3.3959                 2.7456                 1.6186
 Frc consts  --      2.1130                 1.7523                 1.1124
 IR Inten    --      6.3126                 5.2004                 3.6763

                     43                     44                     45
                      A                      A                      A
 Frequencies --   1124.2530              1131.2345              1142.0642
 Red. masses --      1.5497                 2.0703                 2.6746
 Frc consts  --      1.1541                 1.5609                 2.0553
 IR Inten    --     15.5267                11.5007                20.0633

                     46                     47                     48
                      A                      A                      A
 Frequencies --   1152.1600              1190.1172              1217.6434
 Red. masses --      2.8091                 1.6505                 1.7464
 Frc consts  --      2.1971                 1.3774                 1.5255
 IR Inten    --      1.5121                10.1755                13.3975

                     49                     50                     51
                      A                      A                      A
 Frequencies --   1245.5035              1262.8472              1270.7153
 Red. masses --      1.4058                 1.7686                 1.3278
 Frc consts  --      1.2849                 1.6618                 1.2632
 IR Inten    --     17.9768                18.9508                34.2558

                     52                     53                     54
                      A                      A                      A
 Frequencies --   1290.1639              1299.3487              1305.2926
 Red. masses --      1.4673                 1.4310                 1.6467
 Frc consts  --      1.4390                 1.4235                 1.6530
 IR Inten    --     64.2053                 1.2250               256.1122

                     55                     56                     57
                      A                      A                      A
 Frequencies --   1337.4531              1355.8240              1361.7952
 Red. masses --      1.4595                 1.9202                 1.4591
 Frc consts  --      1.5382                 2.0797                 1.5943
 IR Inten    --     53.3811                60.9479                 6.0892

                     58                     59                     60
                      A                      A                      A
 Frequencies --   1398.5756              1422.5040              1428.7130
 Red. masses --      1.9217                 1.8895                 1.9531
 Frc consts  --      2.2146                 2.2527                 2.3489
 IR Inten    --    155.5751                22.4759                30.2434

                     61                     62                     63
                      A                      A                      A
 Frequencies --   1433.1398              1476.5737              1483.6424
 Red. masses --      1.5384                 1.3701                 1.1097
 Frc consts  --      1.8617                 1.7600                 1.4391
 IR Inten    --      4.6652                26.2072                 5.1514

                     64                     65                     66
                      A                      A                      A
 Frequencies --   1498.0456              1506.5717              1523.4111
 Red. masses --      2.2772                 1.1616                 1.0801
 Frc consts  --      3.0109                 1.5534                 1.4769
 IR Inten    --      2.4757               162.3265                11.5354

                     67                     68                     69
                      A                      A                      A
 Frequencies --   1548.1602              1604.0694              1663.1060
 Red. masses --      2.0037                 3.9728                 1.0426
 Frc consts  --      2.8296                 6.0228                 1.6990
 IR Inten    --    240.0698                19.8596                44.0573

                     70                     71                     72
                      A                      A                      A
 Frequencies --   1668.4872              1763.0735              1838.6006
 Red. masses --      1.0440                 9.3517                 9.3253
 Frc consts  --      1.7123                17.1270                18.5732
 IR Inten    --     32.8229               230.1268               143.7057

                     73                     74                     75
                      A                      A                      A
 Frequencies --   3035.2829              3040.6213              3043.2573
 Red. masses --      1.0748                 1.0786                 1.0581
 Frc consts  --      5.8343                 5.8755                 5.7737
 IR Inten    --      1.9480                33.3865                12.6836

                     76                     77                     78
                      A                      A                      A
 Frequencies --   3079.3171              3092.1836              3107.3281
 Red. masses --      1.0663                 1.1037                 1.0928
 Frc consts  --      5.9570                 6.2176                 6.2166
 IR Inten    --     50.7949                 5.1742                 1.7548

                     79                     80                     81
                      A                      A                      A
 Frequencies --   3154.2456              3245.6274              3249.8132
 Red. masses --      1.1082                 1.0954                 1.1007
 Frc consts  --      6.4959                 6.7983                 6.8493
 IR Inten    --     13.5596                 0.0429                 1.3159

                     82                     83                     84
                      A                      A                      A
 Frequencies --   3407.8700              3486.6450              3489.9579
 Red. masses --      1.0293                 1.0929                 1.0933
 Frc consts  --      7.0431                 7.8281                 7.8453
 IR Inten    --     44.7741                77.3457                84.9235

                     85                     86                     87
                      A                      A                      A
 Frequencies --   3546.9768              3641.6533              3795.3531
 Red. masses --      1.0770                 1.0816                 1.0661
 Frc consts  --      7.9835                 8.4510                 9.0484
 IR Inten    --    117.0613                71.6821                69.6842

 - Thermochemistry -
 -------------------
 Temperature   298.150 Kelvin.  Pressure   1.00000 Atm.
 Atom     1 has atomic number  8 and mass  15.99491

 Molecular mass:   227.11442 amu.
 Principal axes and moments of inertia in atomic units:
                           1         2         3
     Eigenvalues --  2467.678614442.680785360.92507
           X            0.73803   0.67428  -0.02564
           Y            0.62814  -0.67264   0.39115
           Z           -0.24649   0.30479   0.91997
 This molecule is an asymmetric top.
 Rotational symmetry number  1.
 Warning -- assumption of classical behavior for rotation
           may cause significant error
 Rotational temperatures (Kelvin)      0.03510     0.01950     0.01616
 Rotational constants (GHZ):           0.73135     0.40623     0.33665
 Zero-point vibrational energy     683222.2 (Joules/Mol)
                                  163.29402 (Kcal/Mol)
 Warning -- explicit consideration of  21 degrees of freedom as
           vibrations may cause significant error
 Vibrational temperatures:     59.34    69.81    82.18    86.22   114.89
          (Kelvin)            136.30   176.34   222.28   235.22   288.22
                              309.50   317.82   415.09   443.42   460.57
                              483.88   543.06   656.13   725.00   789.94
                              824.74   900.20   911.57   958.24   991.69
                              995.19  1027.69  1067.68  1147.91  1151.75
                             1191.85  1217.50  1274.18  1279.72  1324.48
                             1335.58  1366.14  1380.53  1408.09  1478.58
                             1497.46  1553.95  1617.55  1627.59  1643.17
                             1657.70  1712.31  1751.92  1792.00  1816.95
                             1828.27  1856.26  1869.47  1878.02  1924.29
                             1950.73  1959.32  2012.24  2046.66  2055.60
                             2061.97  2124.46  2134.63  2155.35  2167.62
                             2191.85  2227.45  2307.90  2392.84  2400.58
                             2536.67  2645.33  4367.09  4374.77  4378.56
                             4430.44  4448.96  4470.75  4538.25  4669.73
                             4675.75  4903.16  5016.50  5021.26  5103.30
                             5239.52  5460.66

 Zero-point correction=                           0.260226 (Hartree/Particle)
 Thermal correction to Energy=                    0.276136
 Thermal correction to Enthalpy=                  0.277080
 Thermal correction to Gibbs Free Energy=         0.215671
 Sum of electronic and zero-point Energies=           -796.522189
 Sum of electronic and thermal Energies=              -796.506278
 Sum of electronic and thermal Enthalpies=            -796.505334
 Sum of electronic and thermal Free Energies=         -796.566743

                     E (Thermal)             CV                S
                      KCal/Mol        Cal/Mol-Kelvin    Cal/Mol-Kelvin
 Total                  173.278             58.431            129.246
 Electronic               0.000              0.000              0.000
 Translational            0.889              2.981             42.163
 Rotational               0.889              2.981             32.441
 Vibrational            171.501             52.469             54.641
 Vibration     1          0.594              1.981              5.199
 Vibration     2          0.595              1.978              4.877
 Vibration     3          0.596              1.975              4.554
 Vibration     4          0.597              1.973              4.460
 Vibration     5          0.600              1.963              3.895
 Vibration     6          0.603              1.953              3.560
 Vibration     7          0.610              1.930              3.060
 Vibration     8          0.620              1.898              2.616
 Vibration     9          0.623              1.887              2.509
 Vibration    10          0.638              1.839              2.130
 Vibration    11          0.645              1.818              2.000
 Vibration    12          0.648              1.809              1.952
 Vibration    13          0.685              1.695              1.483
 Vibration    14          0.698              1.658              1.372
 Vibration    15          0.706              1.635              1.310
 Vibration    16          0.717              1.603              1.230
 Vibration    17          0.748              1.518              1.049
 Vibration    18          0.814              1.348              0.778
 Vibration    19          0.859              1.241              0.648
 Vibration    20          0.904              1.142              0.546
 Vibration    21          0.929              1.089              0.498

 Optimization completed.
    -- Stationary point found.
 Normal termination of Gaussian 09 at Sat Jul 24 15:13:28 2021.
