 Gaussian 09, Revision D.01,
 Gaussian 09:  ES64L-G09RevD.01 24-Apr-2013

 ----------------------------------------------------------------------
 # B3LYP/6-311G(2df,2pd) EmpiricalDispersion=GD3BJ opt=calcfc freq=nora
 man nosymm integral(ultrafinegrid)
 ----------------------------------------------------------------------

 ------------------------------------------------------------
 Candidate Structure: Conf:580 OPT and FREQ calc in gas phase
 ------------------------------------------------------------
 Symbolic Z-matrix:
 Charge =  1 Multiplicity = 1

 SCF Done:  E(RB3LYP) =  -796.773730759     A.U. after   17 cycles
 SCF Done:  E(RB3LYP) =  -796.779468005     A.U. after   12 cycles
 SCF Done:  E(RB3LYP) =  -796.780416851     A.U. after   14 cycles
 SCF Done:  E(RB3LYP) =  -796.755291841     A.U. after   14 cycles
 SCF Done:  E(RB3LYP) =  -796.763188371     A.U. after   11 cycles
 SCF Done:  E(RB3LYP) =  -796.768733612     A.U. after   10 cycles
 SCF Done:  E(RB3LYP) =  -796.773068934     A.U. after   10 cycles
 SCF Done:  E(RB3LYP) =  -796.776405342     A.U. after   11 cycles
 SCF Done:  E(RB3LYP) =  -796.780417038     A.U. after    7 cycles
 SCF Done:  E(RB3LYP) =  -796.780869692     A.U. after   12 cycles
 SCF Done:  E(RB3LYP) =  -796.780423361     A.U. after   14 cycles
 SCF Done:  E(RB3LYP) =  -796.781008377     A.U. after   12 cycles
 SCF Done:  E(RB3LYP) =  -796.781031065     A.U. after   10 cycles
 SCF Done:  E(RB3LYP) =  -796.781035072     A.U. after    9 cycles
 SCF Done:  E(RB3LYP) =  -796.781037692     A.U. after    9 cycles
 SCF Done:  E(RB3LYP) =  -796.781041484     A.U. after    9 cycles
 SCF Done:  E(RB3LYP) =  -796.781043105     A.U. after    9 cycles
 SCF Done:  E(RB3LYP) =  -796.781043196     A.U. after    7 cycles
 SCF Done:  E(RB3LYP) =  -796.781043201     A.U. after    6 cycles
 Optimization completed.
    -- Stationary point found.
 Normal termination of Gaussian 09 at Sat Jul 24 08:57:59 2021.

 ----------------------------------------------------------------------
 #N Geom=AllCheck Guess=TCheck SCRF=Check GenChk RB3LYP/6-311G(2df,2pd)
  Freq
 ----------------------------------------------------------------------

 Structure from the checkpoint file:  "conf-580.chk"
 ------------------------------------------------------------
 Candidate Structure: Conf:580 OPT and FREQ calc in gas phase
 ------------------------------------------------------------
 Charge =  1 Multiplicity = 1

                          Input orientation:
 ---------------------------------------------------------------------
 Center     Atomic      Atomic             Coordinates (Angstroms)
 Number     Number       Type             X           Y           Z
 ---------------------------------------------------------------------
      1          8           0        1.307269    0.520867   -1.211739
      2          6           0        1.458792    0.453806   -0.001874
      3          7           0        0.465217    0.381481    0.890410
      4          6           0       -0.936769    0.381719    0.505299
      5          6           0       -1.716233    0.795292    1.740349
      6          8           0       -2.913543    1.286027    1.436433
      7          8           0       -1.285729    0.664458    2.858961
      8          6           0       -1.374108   -1.026851    0.010824
      9          6           0       -2.798877   -1.129292   -0.387042
     10          6           0       -3.872468   -1.717331    0.226443
     11          7           0       -5.023817   -1.503610   -0.490547
     12          6           0       -4.663699   -0.793358   -1.529545
     13          7           0       -3.323909   -0.533841   -1.517225
     14          6           0        2.878196    0.452916    0.587981
     15          6           0        3.850846    0.525841   -0.572820
     16          7           0        5.287374    0.540510   -0.069212
     17          1           0        0.632731    0.341119    1.886852
     18          1           0       -1.091449    1.109094   -0.289406
     19          1           0       -3.399812    1.451250    2.258639
     20          1           0       -1.182750   -1.737567    0.814887
     21          1           0       -0.707863   -1.280595   -0.815696
     22          1           0       -3.873839   -2.283194    1.143303
     23          1           0       -5.311651   -0.445809   -2.316527
     24          1           0       -2.809724   -0.036906   -2.223897
     25          1           0        3.029466   -0.454517    1.177500
     26          1           0        2.995879    1.307265    1.259110
     27          1           0        3.757475   -0.328744   -1.235578
     28          1           0        3.712661    1.427522   -1.161040
     29          1           0        5.950200    0.590786   -0.845039
     30          1           0        5.459042    1.343422    0.538964
     31          1           0        5.501286   -0.301607    0.468428
 ---------------------------------------------------------------------

 SCF Done:  E(RB3LYP) =  -796.781043201     A.U. after    1 cycles

 Alpha  occ. eigenvalues --  -19.27275 -19.22136 -19.21864 -14.63960 -14.46621
 Alpha  occ. eigenvalues --  -14.43863 -14.35463 -10.41520 -10.41229 -10.41066
 Alpha  occ. eigenvalues --  -10.35593 -10.33898 -10.28976 -10.28750 -10.27763
 Alpha  occ. eigenvalues --  -10.24977  -1.22038  -1.20690  -1.17888  -1.13290
 Alpha  occ. eigenvalues --   -1.08791  -1.06245  -0.96821  -0.94425  -0.90780
 Alpha  occ. eigenvalues --   -0.85398  -0.82788  -0.79216  -0.78629  -0.77344
 Alpha  occ. eigenvalues --   -0.73834  -0.71163  -0.69344  -0.68677  -0.66641
 Alpha  occ. eigenvalues --   -0.65035  -0.64454  -0.62181  -0.60738  -0.59948
 Alpha  occ. eigenvalues --   -0.58686  -0.57485  -0.56774  -0.56303  -0.54071
 Alpha  occ. eigenvalues --   -0.53542  -0.52583  -0.51206  -0.50637  -0.49656
 Alpha  occ. eigenvalues --   -0.48416  -0.47991  -0.47146  -0.43267  -0.40398
 Alpha  occ. eigenvalues --   -0.39574  -0.39072  -0.35551  -0.33703  -0.30226
 Alpha virt. eigenvalues --   -0.19083  -0.13290  -0.12587  -0.11221  -0.10451
 Alpha virt. eigenvalues --   -0.10060  -0.07662  -0.06015  -0.05593  -0.04808
 Alpha virt. eigenvalues --   -0.04697  -0.04280  -0.02442  -0.02126  -0.01415

 Mulliken charges:
               1
     1  O   -0.422444
     2  C    0.507132
     3  N   -0.346331
     4  C    0.106059
     5  C    0.562258
     6  O   -0.310158
     7  O   -0.384226
     8  C   -0.018250
     9  C    0.077597
    10  C    0.111366
    11  N   -0.342421
    12  C    0.243125
    13  N   -0.237320
    14  C   -0.132432
    15  C    0.155575
    16  N    0.088056
    17  H    0.117738
    18  H    0.029905
    19  H    0.236233
    20  H    0.024165
    21  H    0.033618
    22  H    0.018246
    23  H    0.031957
    24  H    0.109455
    25  H    0.052117
    26  H    0.053061
    27  H    0.084608
    28  H    0.084946
    29  H    0.146706
    30  H    0.159991
    31  H    0.159669
 Sum of Mulliken charges =   1.00000

 Dipole moment (field-independent basis, Debye):
    X=             21.6479    Y=              3.8840    Z=              0.2875  Tot=             21.9954
 Quadrupole moment (field-independent basis, Debye-Ang):
   XX=             20.5150   YY=            -88.5426   ZZ=            -85.8263
   XY=              0.5145   XZ=              3.5282   YZ=              0.2087

  Exact polarizability: 181.882   9.720  97.715   4.817  -4.038 126.704
 Approx polarizability: 226.975   6.436 154.352   5.538 -19.087 214.021

 ******    1 imaginary frequencies (negative Signs) ******

                      1                      2                      3
                      A                      A                      A
 Frequencies --    -10.8426                15.6020                34.0907
 Red. masses --      1.8621                 5.2394                 3.5488
 Frc consts  --      0.0001                 0.0008                 0.0024
 IR Inten    --      0.0987                 0.9015                 7.7220

                      4                      5                      6
                      A                      A                      A
 Frequencies --     51.8492                70.4407                72.7565
 Red. masses --      5.7732                 5.0034                 9.0482
 Frc consts  --      0.0091                 0.0146                 0.0282
 IR Inten    --     11.5703                 3.3305                 8.5487

                      7                      8                      9
                      A                      A                      A
 Frequencies --     80.7142               102.2921               121.6019
 Red. masses --      5.1681                 4.1588                 3.9988
 Frc consts  --      0.0198                 0.0256                 0.0348
 IR Inten    --      4.5097                 7.1376                 7.2978

                     10                     11                     12
                      A                      A                      A
 Frequencies --    180.6770               212.3325               225.8996
 Red. masses --      5.2662                 4.6978                 1.0643
 Frc consts  --      0.1013                 0.1248                 0.0320
 IR Inten    --      3.0597                15.7415                 0.0467

                     13                     14                     15
                      A                      A                      A
 Frequencies --    267.6986               327.8649               333.8443
 Red. masses --      6.0531                 5.9415                 2.2534
 Frc consts  --      0.2556                 0.3763                 0.1480
 IR Inten    --     11.1253                 6.8371                 6.9390

                     16                     17                     18
                      A                      A                      A
 Frequencies --    337.1538               363.9996               387.6614
 Red. masses --      6.0031                 3.8711                 4.0891
 Frc consts  --      0.4020                 0.3022                 0.3621
 IR Inten    --     14.1511                12.0818                 2.2889

                     19                     20                     21
                      A                      A                      A
 Frequencies --    517.3797               541.5026               549.9854
 Red. masses --      1.3703                 2.9985                 2.1598
 Frc consts  --      0.2161                 0.5180                 0.3849
 IR Inten    --     70.6216                25.0107                50.1659

                     22                     23                     24
                      A                      A                      A
 Frequencies --    607.5015               632.6073               649.0904
 Red. masses --      1.2345                 4.1333                 1.4403
 Frc consts  --      0.2684                 0.9746                 0.3575
 IR Inten    --     97.9922                12.7326                22.4476

                     25                     26                     27
                      A                      A                      A
 Frequencies --    669.9673               683.3595               708.7931
 Red. masses --      2.6320                 3.1261                 4.6016
 Frc consts  --      0.6960                 0.8601                 1.3621
 IR Inten    --     22.4510                14.0610                 3.4680

                     28                     29                     30
                      A                      A                      A
 Frequencies --    755.9439               775.7866               792.4747
 Red. masses --      3.6476                 3.8548                 1.2293
 Frc consts  --      1.2281                 1.3669                 0.4549
 IR Inten    --     15.6962                12.5842                10.4572

                     31                     32                     33
                      A                      A                      A
 Frequencies --    817.6821               835.4842               866.8993
 Red. masses --      2.4615                 1.4178                 1.4714
 Frc consts  --      0.9697                 0.5831                 0.6515
 IR Inten    --      6.5124                15.0341                16.1868

                     34                     35                     36
                      A                      A                      A
 Frequencies --    881.1641               919.3800               936.1777
 Red. masses --      3.0775                 1.2637                 3.7412
 Frc consts  --      1.4079                 0.6293                 1.9319
 IR Inten    --     38.7287                 3.7430                 8.9419

                     37                     38                     39
                      A                      A                      A
 Frequencies --    941.5594               980.2855               998.8767
 Red. masses --      5.4565                 2.0057                 3.6092
 Frc consts  --      2.8501                 1.1356                 2.1217
 IR Inten    --     25.6657                14.9495                22.8751

                     40                     41                     42
                      A                      A                      A
 Frequencies --   1023.3075              1036.3107              1094.5369
 Red. masses --      3.1542                 3.1003                 3.5502
 Frc consts  --      1.9460                 1.9617                 2.5059
 IR Inten    --     26.6439                 3.7719                37.6690

                     43                     44                     45
                      A                      A                      A
 Frequencies --   1102.3157              1105.7878              1145.9111
 Red. masses --      1.5164                 1.6393                 2.1614
 Frc consts  --      1.0856                 1.1810                 1.6722
 IR Inten    --      3.9021                18.1840                 8.5984

                     46                     47                     48
                      A                      A                      A
 Frequencies --   1149.5366              1169.7737              1198.2432
 Red. masses --      2.4079                 1.5644                 1.9055
 Frc consts  --      1.8747                 1.2612                 1.6120
 IR Inten    --     19.0883                40.4023               112.1200

                     49                     50                     51
                      A                      A                      A
 Frequencies --   1238.1878              1262.9271              1280.1663
 Red. masses --      1.4818                 2.3196                 1.3991
 Frc consts  --      1.3385                 2.1798                 1.3510
 IR Inten    --     12.8296                 9.2401                 5.3230

                     52                     53                     54
                      A                      A                      A
 Frequencies --   1287.3004              1300.6945              1331.8782
 Red. masses --      1.3320                 1.3653                 1.4133
 Frc consts  --      1.3005                 1.3609                 1.4771
 IR Inten    --      1.4327                 8.2718                 1.9609

                     55                     56                     57
                      A                      A                      A
 Frequencies --   1338.7795              1340.3764              1363.9632
 Red. masses --      1.0944                 1.5342                 1.3848
 Frc consts  --      1.1557                 1.6240                 1.5178
 IR Inten    --      3.4819                 9.2234                16.9475

                     58                     59                     60
                      A                      A                      A
 Frequencies --   1391.6456              1404.9629              1428.8916
 Red. masses --      3.3191                 1.3416                 2.8042
 Frc consts  --      3.7873                 1.5603                 3.3733
 IR Inten    --      6.2980                19.5811                30.7285

                     61                     62                     63
                      A                      A                      A
 Frequencies --   1440.4461              1484.7387              1486.7664
 Red. masses --      2.8347                 1.1254                 1.1573
 Frc consts  --      3.4654                 1.4617                 1.5072
 IR Inten    --    165.7955                 1.3831                11.4199

                     64                     65                     66
                      A                      A                      A
 Frequencies --   1496.9462              1499.6628              1512.5240
 Red. masses --      1.0789                 3.1773                 1.1768
 Frc consts  --      1.4244                 4.2101                 1.5862
 IR Inten    --     10.4461                25.7648               174.3602

                     67                     68                     69
                      A                      A                      A
 Frequencies --   1548.8437              1612.6671              1665.9964
 Red. masses --      2.4394                 4.5179                 1.0421
 Frc consts  --      3.4479                 6.9228                 1.7042
 IR Inten    --    320.4414                 5.5997                47.4864

                     70                     71                     72
                      A                      A                      A
 Frequencies --   1669.2627              1746.1176              1811.6813
 Red. masses --      1.0453                10.3013                 9.7466
 Frc consts  --      1.7160                18.5049                18.8481
 IR Inten    --     38.9859               305.2726               255.0950

                     73                     74                     75
                      A                      A                      A
 Frequencies --   3032.8784              3043.4565              3074.0425
 Red. masses --      1.0587                 1.0611                 1.1047
 Frc consts  --      5.7379                 5.7906                 6.1506
 IR Inten    --      4.3322                14.7589                 3.4671

                     76                     77                     78
                      A                      A                      A
 Frequencies --   3086.4133              3102.5688              3117.6632
 Red. masses --      1.0950                 1.0920                 1.0593
 Frc consts  --      6.1458                 6.1935                 6.0666
 IR Inten    --      3.7667                 5.7620                 0.6263

                     79                     80                     81
                      A                      A                      A
 Frequencies --   3173.0726              3232.7391              3247.4995
 Red. masses --      1.1121                 1.0966                 1.0985
 Frc consts  --      6.5969                 6.7520                 6.8256
 IR Inten    --      0.0421                 4.4071                 0.5311

                     82                     83                     84
                      A                      A                      A
 Frequencies --   3408.1386              3485.4714              3487.5679
 Red. masses --      1.0296                 1.0929                 1.0931
 Frc consts  --      7.0464                 7.8227                 7.8337
 IR Inten    --     53.8614                85.1075                92.0250

                     85                     86                     87
                      A                      A                      A
 Frequencies --   3561.1204              3650.0781              3737.7659
 Red. masses --      1.0781                 1.0811                 1.0642
 Frc consts  --      8.0549                 8.4861                 8.7601
 IR Inten    --    108.7049                43.5476               105.1377

 - Thermochemistry -
 -------------------
 Temperature   298.150 Kelvin.  Pressure   1.00000 Atm.
 Atom     1 has atomic number  8 and mass  15.99491

 Molecular mass:   227.11442 amu.
 Principal axes and moments of inertia in atomic units:
                           1         2         3
     Eigenvalues --  1648.785458021.302389061.97153
           X            0.98481  -0.09042  -0.14825
           Y            0.17168   0.37865   0.90948
           Z            0.02611   0.92111  -0.38842
 This molecule is an asymmetric top.
 Rotational symmetry number  1.
 Warning -- assumption of classical behavior for rotation
           may cause significant error
 Rotational temperatures (Kelvin)      0.05253     0.01080     0.00956
 Rotational constants (GHZ):           1.09459     0.22499     0.19916
    1 imaginary frequencies ignored.
 Zero-point vibrational energy     679837.8 (Joules/Mol)
                                  162.48513 (Kcal/Mol)
 Warning -- explicit consideration of  21 degrees of freedom as
           vibrations may cause significant error
 Vibrational temperatures:     22.45    49.05    74.60   101.35   104.68
          (Kelvin)            116.13   147.18   174.96   259.95   305.50
                              325.02   385.16   471.72   480.33   485.09
                              523.71   557.76   744.39   779.10   791.31
                              874.06   910.18   933.90   963.93   983.20
                             1019.79  1087.63  1116.18  1140.19  1176.46
                             1202.07  1247.27  1267.80  1322.78  1346.95
                             1354.69  1410.41  1437.16  1472.31  1491.02
                             1574.79  1585.98  1590.98  1648.71  1653.92
                             1683.04  1724.00  1781.47  1817.07  1841.87
                             1852.14  1871.41  1916.27  1926.20  1928.50
                             1962.44  2002.27  2021.43  2055.85  2072.48
                             2136.21  2139.12  2153.77  2157.68  2176.18
                             2228.44  2320.27  2396.99  2401.69  2512.27
                             2606.60  4363.63  4378.85  4422.86  4440.65
                             4463.90  4485.62  4565.34  4651.18  4672.42
                             4903.55  5014.81  5017.83  5123.65  5251.64
                             5377.80

 Zero-point correction=                           0.258937 (Hartree/Particle)
 Thermal correction to Energy=                    0.274590
 Thermal correction to Enthalpy=                  0.275535
 Thermal correction to Gibbs Free Energy=         0.212895
 Sum of electronic and zero-point Energies=           -796.522107
 Sum of electronic and thermal Energies=              -796.506453
 Sum of electronic and thermal Enthalpies=            -796.505509
 Sum of electronic and thermal Free Energies=         -796.568148

                     E (Thermal)             CV                S
                      KCal/Mol        Cal/Mol-Kelvin    Cal/Mol-Kelvin
 Total                  172.308             57.076            131.837
 Electronic               0.000              0.000              0.000
 Translational            0.889              2.981             42.163
 Rotational               0.889              2.981             33.149
 Vibrational            170.531             51.114             56.524
 Vibration     1          0.593              1.986              7.127
 Vibration     2          0.594              1.983              5.576
 Vibration     3          0.596              1.977              4.746
 Vibration     4          0.598              1.968              4.141
 Vibration     5          0.599              1.967              4.077
 Vibration     6          0.600              1.962              3.873
 Vibration     7          0.604              1.947              3.410
 Vibration     8          0.609              1.931              3.075
 Vibration     9          0.630              1.866              2.321
 Vibration    10          0.643              1.822              2.024
 Vibration    11          0.650              1.802              1.911
 Vibration    12          0.673              1.732              1.611
 Vibration    13          0.711              1.620              1.271
 Vibration    14          0.715              1.608              1.241
 Vibration    15          0.718              1.601              1.226
 Vibration    16          0.738              1.546              1.105
 Vibration    17          0.756              1.497              1.009
 Vibration    18          0.872              1.212              0.616
 Vibration    19          0.897              1.158              0.562
 Vibration    20          0.905              1.140              0.544
 Vibration    21          0.966              1.016              0.437

 Optimization completed on the basis of negligible forces.
    -- Stationary point found.
 Normal termination of Gaussian 09 at Sat Jul 24 12:32:46 2021.
