 Gaussian 09, Revision D.01,
 Gaussian 09:  ES64L-G09RevD.01 24-Apr-2013

 ----------------------------------------------------------------------
 # B3LYP/6-311G(2df,2pd) EmpiricalDispersion=GD3BJ opt=calcfc freq=nora
 man nosymm integral(ultrafinegrid)
 ----------------------------------------------------------------------

 ------------------------------------------------------------
 Candidate Structure: Conf:628 OPT and FREQ calc in gas phase
 ------------------------------------------------------------
 Symbolic Z-matrix:
 Charge =  1 Multiplicity = 1

 SCF Done:  E(RB3LYP) =  -796.797023812     A.U. after   13 cycles
 SCF Done:  E(RB3LYP) =  -796.801360185     A.U. after   12 cycles
 SCF Done:  E(RB3LYP) =  -796.804018762     A.U. after   12 cycles
 SCF Done:  E(RB3LYP) =  -796.804581905     A.U. after   12 cycles
 SCF Done:  E(RB3LYP) =  -796.805338161     A.U. after   12 cycles
 SCF Done:  E(RB3LYP) =  -796.805428583     A.U. after   10 cycles
 SCF Done:  E(RB3LYP) =  -796.805443841     A.U. after   10 cycles
 SCF Done:  E(RB3LYP) =  -796.805446880     A.U. after    9 cycles
 SCF Done:  E(RB3LYP) =  -796.805447882     A.U. after    7 cycles
 SCF Done:  E(RB3LYP) =  -796.805448213     A.U. after    8 cycles
 SCF Done:  E(RB3LYP) =  -796.805448275     A.U. after    6 cycles
 Optimization completed.
    -- Stationary point found.
 Normal termination of Gaussian 09 at Sat Jul 24 06:58:53 2021.

 ----------------------------------------------------------------------
 #N Geom=AllCheck Guess=TCheck SCRF=Check GenChk RB3LYP/6-311G(2df,2pd)
  Freq
 ----------------------------------------------------------------------

 Structure from the checkpoint file:  "conf-628.chk"
 ------------------------------------------------------------
 Candidate Structure: Conf:628 OPT and FREQ calc in gas phase
 ------------------------------------------------------------
 Charge =  1 Multiplicity = 1

                          Input orientation:
 ---------------------------------------------------------------------
 Center     Atomic      Atomic             Coordinates (Angstroms)
 Number     Number       Type             X           Y           Z
 ---------------------------------------------------------------------
      1          8           0       -1.397217   -0.056436   -0.851733
      2          6           0       -1.522186   -0.202232    0.380129
      3          7           0       -0.482867   -0.368616    1.181636
      4          6           0        0.891943   -0.421062    0.698998
      5          6           0        1.696937   -1.006860    1.845941
      6          8           0        2.987883   -1.169714    1.535411
      7          8           0        1.227339   -1.272190    2.921137
      8          6           0        1.423600    0.973583    0.244105
      9          6           0        2.341100    0.923686   -0.922950
     10          6           0        2.124210    1.253522   -2.235544
     11          7           0        3.252144    1.040840   -2.986038
     12          6           0        4.149511    0.583971   -2.147204
     13          7           0        3.652140    0.495176   -0.881564
     14          6           0       -2.906479   -0.155506    1.015179
     15          6           0       -3.973188   -0.723848    0.080939
     16          7           0       -3.890298   -0.023915   -1.251698
     17          1           0       -0.600447   -0.563123    2.168681
     18          1           0        0.941823   -1.094734   -0.156736
     19          1           0        3.436502   -1.538037    2.312407
     20          1           0        0.558388    1.559537   -0.055904
     21          1           0        1.871616    1.485977    1.098184
     22          1           0        1.217716    1.639367   -2.671276
     23          1           0        5.161227    0.306352   -2.390731
     24          1           0        4.124283    0.132663   -0.072090
     25          1           0       -2.931633   -0.707805    1.952924
     26          1           0       -3.130225    0.886569    1.259197
     27          1           0       -3.793474   -1.778251   -0.116088
     28          1           0       -4.972949   -0.610659    0.490017
     29          1           0       -4.289562    0.912334   -1.220294
     30          1           0       -2.815570    0.043183   -1.409128
     31          1           0       -4.352248   -0.543490   -1.994506
 ---------------------------------------------------------------------

 SCF Done:  E(RB3LYP) =  -796.805448275     A.U. after    1 cycles

 Alpha  occ. eigenvalues --  -19.30382 -19.26321 -19.24749 -14.57896 -14.49765
 Alpha  occ. eigenvalues --  -14.44659 -14.36443 -10.44252 -10.43951 -10.40553
 Alpha  occ. eigenvalues --  -10.36273 -10.36068 -10.30531 -10.29908 -10.28894
 Alpha  occ. eigenvalues --  -10.26138  -1.25001  -1.21709  -1.16256  -1.15400
 Alpha  occ. eigenvalues --   -1.09810  -1.09180  -0.96566  -0.95346  -0.92378
 Alpha  occ. eigenvalues --   -0.86008  -0.83271  -0.78832  -0.77474  -0.75372
 Alpha  occ. eigenvalues --   -0.74274  -0.72898  -0.69833  -0.68406  -0.67599
 Alpha  occ. eigenvalues --   -0.66300  -0.64759  -0.63214  -0.62330  -0.61555
 Alpha  occ. eigenvalues --   -0.60825  -0.59446  -0.58498  -0.56746  -0.56429
 Alpha  occ. eigenvalues --   -0.55499  -0.54763  -0.53024  -0.52125  -0.50771
 Alpha  occ. eigenvalues --   -0.49983  -0.49817  -0.48900  -0.46300  -0.44056
 Alpha  occ. eigenvalues --   -0.42762  -0.42146  -0.36535  -0.34698  -0.31434
 Alpha virt. eigenvalues --   -0.15931  -0.14444  -0.12837  -0.10274  -0.10115
 Alpha virt. eigenvalues --   -0.08429  -0.07585  -0.06773  -0.05536  -0.05054
 Alpha virt. eigenvalues --   -0.03770  -0.03069  -0.02599  -0.02321  -0.01846

 Mulliken charges:
               1
     1  O   -0.463348
     2  C    0.530779
     3  N   -0.303936
     4  C    0.113273
     5  C    0.550316
     6  O   -0.349363
     7  O   -0.360462
     8  C   -0.019726
     9  C    0.085172
    10  C    0.125539
    11  N   -0.340272
    12  C    0.244693
    13  N   -0.229964
    14  C   -0.100843
    15  C    0.109420
    16  N    0.064840
    17  H    0.125142
    18  H    0.041536
    19  H    0.252075
    20  H    0.020656
    21  H    0.035909
    22  H    0.005245
    23  H    0.034120
    24  H    0.105089
    25  H    0.056666
    26  H    0.065351
    27  H    0.073934
    28  H    0.073440
    29  H    0.137146
    30  H    0.188860
    31  H    0.128712
 Sum of Mulliken charges =   1.00000

 Dipole moment (field-independent basis, Debye):
    X=            -11.6526    Y=             -2.0576    Z=              2.6589  Tot=             12.1280
 Quadrupole moment (field-independent basis, Debye-Ang):
   XX=             -6.0002   YY=            -88.1969   ZZ=            -94.5553
   XY=             -5.4548   XZ=             24.5151   YZ=              2.3895

  Exact polarizability: 169.172  -3.990  93.579  -5.857 -15.226 140.961
 Approx polarizability: 217.717 -13.186 147.012  -4.157 -18.828 227.946

                      1                      2                      3
                      A                      A                      A
 Frequencies --     15.2336                29.8151                45.6655
 Red. masses --      4.6193                 4.0692                 4.8454
 Frc consts  --      0.0006                 0.0021                 0.0060
 IR Inten    --      3.9948                 9.7612                 2.5342

                      4                      5                      6
                      A                      A                      A
 Frequencies --     57.7249                72.0963                97.2673
 Red. masses --      5.6657                 4.8775                 5.6398
 Frc consts  --      0.0111                 0.0149                 0.0314
 IR Inten    --      4.7027                 3.0368                 6.4712

                      7                      8                      9
                      A                      A                      A
 Frequencies --    116.0884               130.1641               189.5033
 Red. masses --      5.0088                 5.4891                 4.9586
 Frc consts  --      0.0398                 0.0548                 0.1049
 IR Inten    --      2.3695                 0.4333                 6.8665

                     10                     11                     12
                      A                      A                      A
 Frequencies --    206.8293               264.5513               289.9352
 Red. masses --      2.1636                 5.2984                 4.2429
 Frc consts  --      0.0545                 0.2185                 0.2101
 IR Inten    --     21.7615                54.5939                 2.8245

                     13                     14                     15
                      A                      A                      A
 Frequencies --    323.9476               347.9913               388.7026
 Red. masses --      2.0366                 6.1207                 3.6729
 Frc consts  --      0.1259                 0.4367                 0.3270
 IR Inten    --      7.3275                 0.4898                 2.8175

                     16                     17                     18
                      A                      A                      A
 Frequencies --    403.1005               408.6494               456.6210
 Red. masses --      1.7882                 2.7507                 1.9941
 Frc consts  --      0.1712                 0.2706                 0.2450
 IR Inten    --     80.6838               101.4734                 4.0311

                     19                     20                     21
                      A                      A                      A
 Frequencies --    540.0670               547.5623               590.6246
 Red. masses --      1.5894                 2.4246                 2.0489
 Frc consts  --      0.2731                 0.4283                 0.4211
 IR Inten    --     62.7952                64.2625                17.1861

                     22                     23                     24
                      A                      A                      A
 Frequencies --    606.8620               644.4097               669.8497
 Red. masses --      2.3239                 2.9501                 2.0572
 Frc consts  --      0.5042                 0.7218                 0.5439
 IR Inten    --     27.7150                79.7581                39.6099

                     25                     26                     27
                      A                      A                      A
 Frequencies --    674.7993               683.8065               734.1077
 Red. masses --      1.3088                 2.8317                 3.0004
 Frc consts  --      0.3511                 0.7801                 0.9527
 IR Inten    --     52.8728                 9.8430                13.5342

                     28                     29                     30
                      A                      A                      A
 Frequencies --    741.0069               775.2376               824.2827
 Red. masses --      3.1723                 3.9902                 2.6063
 Frc consts  --      1.0263                 1.4129                 1.0434
 IR Inten    --     26.0732                 8.5243                 5.5775

                     31                     32                     33
                      A                      A                      A
 Frequencies --    840.7296               852.9162               862.0054
 Red. masses --      1.4083                 2.5006                 1.4938
 Frc consts  --      0.5865                 1.0718                 0.6540
 IR Inten    --     20.2155                43.7504                11.6962

                     34                     35                     36
                      A                      A                      A
 Frequencies --    889.8050               941.6710               949.9870
 Red. masses --      2.0998                 5.4067                 2.0959
 Frc consts  --      0.9796                 2.8248                 1.1144
 IR Inten    --     86.9279                15.8273                 2.9525

                     37                     38                     39
                      A                      A                      A
 Frequencies --    952.1097              1001.9947              1004.8872
 Red. masses --      1.5432                 4.2256                 3.2878
 Frc consts  --      0.8242                 2.4996                 1.9561
 IR Inten    --      3.2820                 1.0160                 3.9845

                     40                     41                     42
                      A                      A                      A
 Frequencies --   1026.4243              1034.1193              1101.4364
 Red. masses --      3.5919                 3.3394                 2.7808
 Frc consts  --      2.2296                 2.1041                 1.9876
 IR Inten    --     32.0157                11.9500                 5.6619

                     43                     44                     45
                      A                      A                      A
 Frequencies --   1111.7435              1130.4722              1138.1682
 Red. masses --      1.6269                 1.4785                 1.5326
 Frc consts  --      1.1847                 1.1133                 1.1698
 IR Inten    --     31.4501               153.4279                29.7686

                     46                     47                     48
                      A                      A                      A
 Frequencies --   1150.3890              1190.7203              1193.3278
 Red. masses --      2.1310                 1.3344                 2.3796
 Frc consts  --      1.6616                 1.1147                 1.9965
 IR Inten    --     18.9351                 3.2140               177.6770

                     49                     50                     51
                      A                      A                      A
 Frequencies --   1252.4590              1267.9506              1279.8709
 Red. masses --      1.5183                 1.9902                 1.4570
 Frc consts  --      1.4033                 1.8852                 1.4062
 IR Inten    --      9.4505                11.6701                 2.2744

                     52                     53                     54
                      A                      A                      A
 Frequencies --   1291.9145              1311.4906              1319.1959
 Red. masses --      1.3008                 1.3293                 1.2492
 Frc consts  --      1.2791                 1.3471                 1.2809
 IR Inten    --     15.1472                 1.6322               106.2875

                     55                     56                     57
                      A                      A                      A
 Frequencies --   1329.9926              1359.6712              1382.1964
 Red. masses --      1.3326                 1.4661                 1.6257
 Frc consts  --      1.3889                 1.5969                 1.8299
 IR Inten    --     10.5514                43.4003                 4.4492

                     58                     59                     60
                      A                      A                      A
 Frequencies --   1395.7643              1396.4771              1430.8315
 Red. masses --      2.1129                 1.6044                 2.7373
 Frc consts  --      2.4252                 1.8434                 3.3018
 IR Inten    --     82.8283                75.0102                67.4364

                     61                     62                     63
                      A                      A                      A
 Frequencies --   1432.4529              1458.8022              1469.0008
 Red. masses --      2.3092                 1.3265                 1.0817
 Frc consts  --      2.7917                 1.6633                 1.3754
 IR Inten    --     40.2402               526.6369                17.2637

                     64                     65                     66
                      A                      A                      A
 Frequencies --   1479.0701              1498.2291              1511.8194
 Red. masses --      1.1479                 3.2343                 1.0765
 Frc consts  --      1.4795                 4.2774                 1.4497
 IR Inten    --     11.4519                20.5495                31.7266

                     67                     68                     69
                      A                      A                      A
 Frequencies --   1570.2470              1606.8594              1629.8585
 Red. masses --      2.8228                 4.3652                 1.1596
 Frc consts  --      4.1007                 6.6406                 1.8149
 IR Inten    --    234.8290                 3.1003                32.8359

                     70                     71                     72
                      A                      A                      A
 Frequencies --   1675.7042              1705.0184              1819.4809
 Red. masses --      1.0904                 2.9928                 9.7409
 Frc consts  --      1.8040                 5.1261                18.9996
 IR Inten    --     67.5344               120.9817               289.8639

                     73                     74                     75
                      A                      A                      A
 Frequencies --   2446.5403              3040.7142              3043.3891
 Red. masses --      1.0961                 1.0696                 1.0689
 Frc consts  --      3.8656                 5.8269                 5.8330
 IR Inten    --   1256.4666                17.8861                 0.8214

                     76                     77                     78
                      A                      A                      A
 Frequencies --   3075.9136              3093.0579              3111.5303
 Red. masses --      1.0835                 1.0617                 1.0937
 Frc consts  --      6.0396                 5.9847                 6.2390
 IR Inten    --      3.9317                 1.9534                 0.4336

                     79                     80                     81
                      A                      A                      A
 Frequencies --   3116.2337              3147.9154              3233.9250
 Red. masses --      1.0939                 1.1107                 1.0963
 Frc consts  --      6.2590                 6.4849                 6.7551
 IR Inten    --      4.8168                 0.5335                 6.1217

                     82                     83                     84
                      A                      A                      A
 Frequencies --   3248.4799              3468.7488              3534.0208
 Red. masses --      1.0986                 1.0517                 1.0945
 Frc consts  --      6.8306                 7.4555                 8.0541
 IR Inten    --      0.4170                78.6861                73.3208

                     85                     86                     87
                      A                      A                      A
 Frequencies --   3540.0671              3662.9334              3731.6468
 Red. masses --      1.0783                 1.0809                 1.0643
 Frc consts  --      7.9621                 8.5445                 8.7318
 IR Inten    --    138.3060                73.4838               129.9687

 - Thermochemistry -
 -------------------
 Temperature   298.150 Kelvin.  Pressure   1.00000 Atm.
 Atom     1 has atomic number  8 and mass  15.99491

 Molecular mass:   227.11442 amu.
 Principal axes and moments of inertia in atomic units:
                           1         2         3
     Eigenvalues --  2482.090705895.143968058.76718
           X            0.97755   0.20661  -0.04133
           Y            0.11803  -0.37446   0.91970
           Z           -0.17455   0.90393   0.39044
 This molecule is an asymmetric top.
 Rotational symmetry number  1.
 Warning -- assumption of classical behavior for rotation
           may cause significant error
 Rotational temperatures (Kelvin)      0.03490     0.01469     0.01075
 Rotational constants (GHZ):           0.72711     0.30614     0.22395
 Zero-point vibrational energy     679591.8 (Joules/Mol)
                                  162.42635 (Kcal/Mol)
 Warning -- explicit consideration of  22 degrees of freedom as
           vibrations may cause significant error
 Vibrational temperatures:     21.92    42.90    65.70    83.05   103.73
          (Kelvin)            139.95   167.03   187.28   272.65   297.58
                              380.63   417.15   466.09   500.68   559.26
                              579.97   587.95   656.97   777.04   787.82
                              849.78   873.14   927.16   963.76   970.88
                              983.84  1056.22  1066.14  1115.39  1185.96
                             1209.62  1227.15  1240.23  1280.23  1354.85
                             1366.82  1369.87  1441.65  1445.81  1476.79
                             1487.87  1584.72  1599.55  1626.50  1637.57
                             1655.15  1713.18  1716.93  1802.01  1824.30
                             1841.45  1858.77  1886.94  1898.03  1913.56
                             1956.26  1988.67  2008.19  2009.22  2058.64
                             2060.98  2098.89  2113.56  2128.05  2155.61
                             2175.17  2259.23  2311.91  2345.00  2410.96
                             2453.14  2617.82  3520.02  4374.90  4378.75
                             4425.55  4450.21  4476.79  4483.56  4529.14
                             4652.89  4673.83  4990.75  5084.66  5093.36
                             5270.14  5369.00

 Zero-point correction=                           0.258843 (Hartree/Particle)
 Thermal correction to Energy=                    0.274412
 Thermal correction to Enthalpy=                  0.275356
 Thermal correction to Gibbs Free Energy=         0.212845
 Sum of electronic and zero-point Energies=           -796.546605
 Sum of electronic and thermal Energies=              -796.531036
 Sum of electronic and thermal Enthalpies=            -796.530092
 Sum of electronic and thermal Free Energies=         -796.592603

                     E (Thermal)             CV                S
                      KCal/Mol        Cal/Mol-Kelvin    Cal/Mol-Kelvin
 Total                  172.196             57.548            131.566
 Electronic               0.000              0.000              0.000
 Translational            0.889              2.981             42.163
 Rotational               0.889              2.981             33.133
 Vibrational            170.419             51.586             56.270
 Vibration     1          0.593              1.986              7.175
 Vibration     2          0.594              1.984              5.842
 Vibration     3          0.595              1.979              4.997
 Vibration     4          0.596              1.974              4.534
 Vibration     5          0.598              1.967              4.095
 Vibration     6          0.603              1.951              3.508
 Vibration     7          0.608              1.936              3.164
 Vibration     8          0.612              1.923              2.944
 Vibration     9          0.633              1.854              2.233
 Vibration    10          0.641              1.830              2.071
 Vibration    11          0.671              1.738              1.632
 Vibration    12          0.686              1.692              1.474
 Vibration    13          0.709              1.628              1.290
 Vibration    14          0.726              1.579              1.175
 Vibration    15          0.757              1.494              1.005
 Vibration    16          0.769              1.463              0.951
 Vibration    17          0.773              1.451              0.931
 Vibration    18          0.815              1.346              0.776
 Vibration    19          0.895              1.161              0.565
 Vibration    20          0.903              1.145              0.549
 Vibration    21          0.948              1.052              0.466
 Vibration    22          0.966              1.017              0.438

 Normal termination of Gaussian 09 at Sat Jul 24 10:41:56 2021.
