 Gaussian 09, Revision D.01,
 Gaussian 09:  ES64L-G09RevD.01 24-Apr-2013

 ----------------------------------------------------------------------
 # B3LYP/6-31+G(d,p) EmpiricalDispersion=GD3BJ opt=calcfc freq=noraman
 nosymm integral(ultrafinegrid)
 ----------------------------------------------------------------------

 -----------------------------------------------------------
 Candidate Structure: Conf:55 OPT and FREQ calc in gas phase
 -----------------------------------------------------------
 Symbolic Z-matrix:
 Charge =  1 Multiplicity = 1

 SCF Done:  E(RB3LYP) =  -796.551916839     A.U. after   17 cycles
 SCF Done:  E(RB3LYP) =  -796.558148291     A.U. after   15 cycles
 SCF Done:  E(RB3LYP) =  -796.558915330     A.U. after   15 cycles
 SCF Done:  E(RB3LYP) =  -796.558321420     A.U. after   15 cycles
 SCF Done:  E(RB3LYP) =  -796.559298177     A.U. after   12 cycles
 SCF Done:  E(RB3LYP) =  -796.557298217     A.U. after   15 cycles
 SCF Done:  E(RB3LYP) =  -796.559859024     A.U. after   11 cycles
 SCF Done:  E(RB3LYP) =  -796.560154558     A.U. after   12 cycles
 SCF Done:  E(RB3LYP) =  -796.560431587     A.U. after   13 cycles
 SCF Done:  E(RB3LYP) =  -796.560517919     A.U. after   12 cycles
 SCF Done:  E(RB3LYP) =  -796.560548435     A.U. after   12 cycles
 SCF Done:  E(RB3LYP) =  -796.560554517     A.U. after   11 cycles
 SCF Done:  E(RB3LYP) =  -796.560555256     A.U. after    9 cycles
 SCF Done:  E(RB3LYP) =  -796.560555705     A.U. after    9 cycles
 SCF Done:  E(RB3LYP) =  -796.560556058     A.U. after    9 cycles
 SCF Done:  E(RB3LYP) =  -796.560556248     A.U. after    9 cycles
 SCF Done:  E(RB3LYP) =  -796.560556271     A.U. after    8 cycles
 Optimization completed.
    -- Stationary point found.
 Normal termination of Gaussian 09 at Sat Jul 24 02:21:13 2021.

 ----------------------------------------------------------------------
 #N Geom=AllCheck Guess=TCheck SCRF=Check GenChk RB3LYP/6-31+G(d,p) Fre
 q
 ----------------------------------------------------------------------

 Structure from the checkpoint file:  "conf-55.chk"
 -----------------------------------------------------------
 Candidate Structure: Conf:55 OPT and FREQ calc in gas phase
 -----------------------------------------------------------
 Charge =  1 Multiplicity = 1

                          Input orientation:
 ---------------------------------------------------------------------
 Center     Atomic      Atomic             Coordinates (Angstroms)
 Number     Number       Type             X           Y           Z
 ---------------------------------------------------------------------
      1          8           0        1.413843    0.692931    1.091434
      2          6           0        1.529178    0.125549    0.006096
      3          7           0        0.528634   -0.497974   -0.639154
      4          6           0       -0.800164   -0.641123   -0.063540
      5          6           0       -1.454301   -1.822925   -0.799097
      6          8           0       -2.638238   -2.235020   -0.347555
      7          8           0       -0.915514   -2.347878   -1.751271
      8          6           0       -1.626564    0.667679   -0.184550
      9          6           0       -2.942158    0.574390    0.524872
     10          6           0       -3.275531    0.197141    1.813032
     11          7           0       -4.641356    0.242762    1.998719
     12          6           0       -5.141430    0.641546    0.849100
     13          7           0       -4.155757    0.851269   -0.079223
     14          6           0        2.890119    0.125809   -0.718231
     15          6           0        3.975696    0.170312    0.347269
     16          7           0        5.335226    0.487447   -0.267325
     17          1           0        0.682909   -1.057471   -1.474484
     18          1           0       -0.696133   -0.886138    0.999452
     19          1           0       -2.959905   -1.669476    0.384276
     20          1           0       -1.775854    0.894238   -1.245782
     21          1           0       -1.015617    1.470348    0.240063
     22          1           0       -2.608929   -0.074882    2.620300
     23          1           0       -6.188645    0.790779    0.628657
     24          1           0       -4.292326    1.144986   -1.036156
     25          1           0        2.997392   -0.744195   -1.374626
     26          1           0        2.923778    1.028093   -1.343527
     27          1           0        3.760479    0.950328    1.078767
     28          1           0        4.088374   -0.782598    0.867303
     29          1           0        5.612865   -0.216633   -0.959714
     30          1           0        5.321722    1.396907   -0.742132
     31          1           0        6.068044    0.523798    0.449798
 ---------------------------------------------------------------------

 SCF Done:  E(RB3LYP) =  -796.560556271     A.U. after    1 cycles

 Alpha  occ. eigenvalues --  -19.30658 -19.26448 -19.25670 -14.66883 -14.50210
 Alpha  occ. eigenvalues --  -14.49375 -14.41176 -10.44043 -10.43760 -10.43669
 Alpha  occ. eigenvalues --  -10.37888 -10.36964 -10.33567 -10.32980 -10.32398
 Alpha  occ. eigenvalues --  -10.30011  -1.21730  -1.20840  -1.18318  -1.13706
 Alpha  occ. eigenvalues --   -1.11393  -1.06783  -0.97115  -0.96901  -0.91937
 Alpha  occ. eigenvalues --   -0.86292  -0.83473  -0.79222  -0.79104  -0.77942
 Alpha  occ. eigenvalues --   -0.73657  -0.71881  -0.71198  -0.69579  -0.68627
 Alpha  occ. eigenvalues --   -0.67771  -0.65259  -0.63807  -0.60932  -0.60665
 Alpha  occ. eigenvalues --   -0.58724  -0.57892  -0.56626  -0.55793  -0.54705
 Alpha  occ. eigenvalues --   -0.54317  -0.53412  -0.52627  -0.51448  -0.51152
 Alpha  occ. eigenvalues --   -0.50394  -0.49049  -0.48381  -0.43042  -0.40625
 Alpha  occ. eigenvalues --   -0.40007  -0.39305  -0.38087  -0.36177  -0.32882
 Alpha virt. eigenvalues --   -0.20183  -0.14352  -0.13590  -0.13190  -0.11609
 Alpha virt. eigenvalues --   -0.11155  -0.09914  -0.08864  -0.08444  -0.07906
 Alpha virt. eigenvalues --   -0.07515  -0.07062  -0.06601  -0.05886  -0.05177

 Mulliken charges:
               1
     1  O   -0.485867
     2  C    0.329253
     3  N   -0.191170
     4  C   -0.625807
     5  C    0.570874
     6  O   -0.323845
     7  O   -0.444626
     8  C   -0.765208
     9  C    0.386877
    10  C    0.141092
    11  N   -0.258097
    12  C    0.206209
    13  N   -0.338426
    14  C   -0.305664
    15  C   -0.221157
    16  N   -0.600747
    17  H    0.336293
    18  H    0.200191
    19  H    0.373761
    20  H    0.153978
    21  H    0.204777
    22  H    0.145478
    23  H    0.159225
    24  H    0.312394
    25  H    0.176954
    26  H    0.191286
    27  H    0.246523
    28  H    0.214720
    29  H    0.403302
    30  H    0.401601
    31  H    0.405825
 Sum of Mulliken charges =   1.00000

 Dipole moment (field-independent basis, Debye):
    X=             20.0855    Y=              4.0812    Z=             -4.0012  Tot=             20.8828
 Quadrupole moment (field-independent basis, Debye-Ang):
   XX=             41.7549   YY=            -97.6909   ZZ=            -98.5496
   XY=             -1.0472   XZ=              2.8153   YZ=            -11.4075

  Exact polarizability: 184.914   1.390 109.024 -12.767   6.542 127.389
 Approx polarizability: 221.537   1.733 164.026 -13.369   7.350 216.172

                      1                      2                      3
                      A                      A                      A
 Frequencies --     19.8486                27.3495                40.1910
 Red. masses --      3.6358                 4.0027                 2.0131
 Frc consts  --      0.0008                 0.0018                 0.0019
 IR Inten    --      7.1693                 4.7729                 9.8189

                      4                      5                      6
                      A                      A                      A
 Frequencies --     45.1408                66.4827                81.0436
 Red. masses --      4.6322                 7.1764                 5.3136
 Frc consts  --      0.0056                 0.0187                 0.0206
 IR Inten    --      1.9312                14.7653                 9.0909

                      7                      8                      9
                      A                      A                      A
 Frequencies --     91.9228               114.3642               120.5699
 Red. masses --      5.5259                 5.1395                 4.7458
 Frc consts  --      0.0275                 0.0396                 0.0406
 IR Inten    --      4.3158                 5.1193                 9.2222

                     10                     11                     12
                      A                      A                      A
 Frequencies --    195.1456               222.8417               241.2538
 Red. masses --      5.1992                 1.8033                 1.7066
 Frc consts  --      0.1167                 0.0528                 0.0585
 IR Inten    --      5.0544                19.2224                13.0027

                     13                     14                     15
                      A                      A                      A
 Frequencies --    271.1312               320.2570               326.5866
 Red. masses --      5.4355                 2.3277                 7.3409
 Frc consts  --      0.2354                 0.1407                 0.4613
 IR Inten    --      8.5983                 4.9965                 1.9469

                     16                     17                     18
                      A                      A                      A
 Frequencies --    348.8892               377.4023               400.8510
 Red. masses --      5.3563                 3.6440                 4.3820
 Frc consts  --      0.3841                 0.3058                 0.4148
 IR Inten    --     12.7653                13.6636                15.8246

                     19                     20                     21
                      A                      A                      A
 Frequencies --    542.0630               545.2328               582.3903
 Red. masses --      1.4508                 3.5352                 2.2838
 Frc consts  --      0.2512                 0.6192                 0.4564
 IR Inten    --     80.2292                14.9027                47.4146

                     22                     23                     24
                      A                      A                      A
 Frequencies --    617.5657               650.8040               660.3078
 Red. masses --      3.0790                 1.6126                 2.9411
 Frc consts  --      0.6919                 0.4024                 0.7555
 IR Inten    --     29.7019                 7.4636                22.4464

                     25                     26                     27
                      A                      A                      A
 Frequencies --    669.1640               678.1671               719.5193
 Red. masses --      1.6064                 2.0821                 3.9790
 Frc consts  --      0.4238                 0.5642                 1.2137
 IR Inten    --     29.4285                44.5071                 6.1402

                     28                     29                     30
                      A                      A                      A
 Frequencies --    738.1593               761.2778               795.3599
 Red. masses --      3.3591                 3.3593                 1.3557
 Frc consts  --      1.0784                 1.1471                 0.5053
 IR Inten    --      0.8341                 0.4710                10.2628

                     31                     32                     33
                      A                      A                      A
 Frequencies --    821.6502               832.9973               855.1537
 Red. masses --      2.6274                 1.3972                 1.3937
 Frc consts  --      1.0451                 0.5712                 0.6005
 IR Inten    --      1.3866                27.9578                31.7639

                     34                     35                     36
                      A                      A                      A
 Frequencies --    887.8810               918.4072               937.1992
 Red. masses --      2.7354                 1.2649                 5.9388
 Frc consts  --      1.2705                 0.6286                 3.0734
 IR Inten    --     34.0201                 5.4646                 9.9073

                     37                     38                     39
                      A                      A                      A
 Frequencies --    939.3276               986.0458              1015.3083
 Red. masses --      3.4944                 2.1066                 3.0170
 Frc consts  --      1.8166                 1.2068                 1.8324
 IR Inten    --     33.3511                31.1930                 7.0242

                     40                     41                     42
                      A                      A                      A
 Frequencies --   1027.5616              1039.5093              1091.9645
 Red. masses --      3.2016                 3.9232                 1.6615
 Frc consts  --      1.9918                 2.4977                 1.1672
 IR Inten    --     14.4778                 3.2388                12.0394

                     43                     44                     45
                      A                      A                      A
 Frequencies --   1114.1445              1121.2016              1153.4925
 Red. masses --      1.6336                 2.2859                 2.3247
 Frc consts  --      1.1948                 1.6931                 1.8224
 IR Inten    --     17.0205                41.0708                17.0168

                     46                     47                     48
                      A                      A                      A
 Frequencies --   1155.2897              1173.8097              1226.8962
 Red. masses --      2.4812                 1.3690                 1.8342
 Frc consts  --      1.9512                 1.1113                 1.6267
 IR Inten    --      2.5896                 0.5930                 5.3986

                     49                     50                     51
                      A                      A                      A
 Frequencies --   1238.8474              1259.3248              1282.9818
 Red. masses --      1.5108                 1.8864                 1.4641
 Frc consts  --      1.3661                 1.7626                 1.4199
 IR Inten    --      7.4269                12.0881                 1.4417

                     52                     53                     54
                      A                      A                      A
 Frequencies --   1289.6740              1310.5851              1326.6662
 Red. masses --      1.3019                 1.3531                 1.2627
 Frc consts  --      1.2758                 1.3693                 1.3094
 IR Inten    --      1.9433                26.3165                23.5571

                     55                     56                     57
                      A                      A                      A
 Frequencies --   1329.8244              1356.9436              1365.1914
 Red. masses --      1.5272                 1.3834                 1.4592
 Frc consts  --      1.5912                 1.5008                 1.6024
 IR Inten    --     39.3168                31.2076               111.8835

                     58                     59                     60
                      A                      A                      A
 Frequencies --   1405.5782              1409.5045              1421.2621
 Red. masses --      2.4433                 1.4247                 2.2035
 Frc consts  --      2.8440                 1.6677                 2.6225
 IR Inten    --     60.8715                25.1927               174.7345

                     61                     62                     63
                      A                      A                      A
 Frequencies --   1437.3635              1483.5086              1489.2555
 Red. masses --      3.2790                 1.1160                 1.5382
 Frc consts  --      3.9913                 1.4471                 2.0100
 IR Inten    --     19.3741                 1.6153                17.8465

                     64                     65                     66
                      A                      A                      A
 Frequencies --   1499.4167              1508.8506              1520.0447
 Red. masses --      2.0688                 1.0762                 1.1796
 Frc consts  --      2.7404                 1.4435                 1.6058
 IR Inten    --     18.8579                13.2836               220.4973

                     67                     68                     69
                      A                      A                      A
 Frequencies --   1545.2758              1601.9405              1668.4259
 Red. masses --      2.5277                 4.0726                 1.0422
 Frc consts  --      3.5563                 6.1577                 1.7092
 IR Inten    --    319.6135                 9.7807                51.4048

                     70                     71                     72
                      A                      A                      A
 Frequencies --   1671.7138              1750.3573              1822.6629
 Red. masses --      1.0438                 9.9907                 9.3862
 Frc consts  --      1.7187                18.0343                18.3718
 IR Inten    --     42.3908               317.3319               321.8560

                     73                     74                     75
                      A                      A                      A
 Frequencies --   3040.4156              3056.4951              3073.8330
 Red. masses --      1.0627                 1.0618                 1.0823
 Frc consts  --      5.7877                 5.8442                 6.0252
 IR Inten    --      4.2072                 8.3807                10.4117

                     76                     77                     78
                      A                      A                      A
 Frequencies --   3099.3148              3105.8756              3114.0691
 Red. masses --      1.1019                 1.1052                 1.0602
 Frc consts  --      6.2365                 6.2815                 6.0573
 IR Inten    --      5.5680                 2.7829                 3.5984

                     79                     80                     81
                      A                      A                      A
 Frequencies --   3179.9451              3249.6943              3274.5855
 Red. masses --      1.1119                 1.0965                 1.0988
 Frc consts  --      6.6247                 6.8223                 6.9423
 IR Inten    --      2.7078                 3.9281                 1.7671

                     82                     83                     84
                      A                      A                      A
 Frequencies --   3400.6734              3492.8911              3494.2997
 Red. masses --      1.0304                 1.0935                 1.0938
 Frc consts  --      7.0206                 7.8604                 7.8686
 IR Inten    --     55.6571                94.5777                93.1079

                     85                     86                     87
                      A                      A                      A
 Frequencies --   3538.5330              3585.7499              3651.3859
 Red. masses --      1.0784                 1.0675                 1.0819
 Frc consts  --      7.9555                 8.0867                 8.4988
 IR Inten    --    131.6117               419.1709                66.5979

 - Thermochemistry -
 -------------------
 Temperature   298.150 Kelvin.  Pressure   1.00000 Atm.
 Atom     1 has atomic number  8 and mass  15.99491

 Molecular mass:   227.11442 amu.
 Principal axes and moments of inertia in atomic units:
                           1         2         3
     Eigenvalues --  1621.673058137.878059138.53270
           X            0.99376   0.04998   0.09971
           Y            0.02274   0.78438  -0.61987
           Z           -0.10919   0.61827   0.77834
 This molecule is an asymmetric top.
 Rotational symmetry number  1.
 Warning -- assumption of classical behavior for rotation
           may cause significant error
 Rotational temperatures (Kelvin)      0.05341     0.01064     0.00948
 Rotational constants (GHZ):           1.11289     0.22177     0.19749
 Zero-point vibrational energy     681405.4 (Joules/Mol)
                                  162.85979 (Kcal/Mol)
 Warning -- explicit consideration of  22 degrees of freedom as
           vibrations may cause significant error
 Vibrational temperatures:     28.56    39.35    57.83    64.95    95.65
          (Kelvin)            116.60   132.26   164.54   173.47   280.77
                              320.62   347.11   390.10   460.78   469.88
                              501.97   543.00   576.73   779.91   784.47
                              837.93   888.54   936.36   950.03   962.78
                              975.73  1035.23  1062.05  1095.31  1144.34
                             1182.17  1198.50  1230.37  1277.46  1321.38
                             1348.42  1351.48  1418.70  1460.80  1478.43
                             1495.62  1571.09  1603.00  1613.16  1659.62
                             1662.20  1688.85  1765.23  1782.42  1811.89
                             1845.92  1855.55  1885.64  1908.77  1913.32
                             1952.34  1964.20  2022.31  2027.96  2044.88
                             2068.04  2134.44  2142.70  2157.32  2170.90
                             2187.00  2223.30  2304.83  2400.49  2405.22
                             2518.37  2622.40  4374.47  4397.61  4422.55
                             4459.22  4468.66  4480.45  4575.23  4675.58
                             4711.39  4892.80  5025.48  5027.51  5091.15
                             5159.09  5253.52

 Zero-point correction=                           0.259534 (Hartree/Particle)
 Thermal correction to Energy=                    0.275862
 Thermal correction to Enthalpy=                  0.276807
 Thermal correction to Gibbs Free Energy=         0.212127
 Sum of electronic and zero-point Energies=           -796.301023
 Sum of electronic and thermal Energies=              -796.284694
 Sum of electronic and thermal Enthalpies=            -796.283750
 Sum of electronic and thermal Free Energies=         -796.348430

                     E (Thermal)             CV                S
                      KCal/Mol        Cal/Mol-Kelvin    Cal/Mol-Kelvin
 Total                  173.106             58.665            136.130
 Electronic               0.000              0.000              0.000
 Translational            0.889              2.981             42.163
 Rotational               0.889              2.981             33.155
 Vibrational            171.329             52.703             60.812
 Vibration     1          0.593              1.986              6.649
 Vibration     2          0.593              1.984              6.013
 Vibration     3          0.594              1.981              5.250
 Vibration     4          0.595              1.979              5.020
 Vibration     5          0.598              1.970              4.255
 Vibration     6          0.600              1.962              3.865
 Vibration     7          0.602              1.955              3.619
 Vibration     8          0.607              1.938              3.193
 Vibration     9          0.609              1.932              3.091
 Vibration    10          0.636              1.847              2.178
 Vibration    11          0.649              1.806              1.936
 Vibration    12          0.658              1.777              1.794
 Vibration    13          0.675              1.726              1.589
 Vibration    14          0.706              1.635              1.309
 Vibration    15          0.710              1.622              1.277
 Vibration    16          0.726              1.578              1.171
 Vibration    17          0.748              1.518              1.050
 Vibration    18          0.767              1.468              0.960
 Vibration    19          0.897              1.157              0.561
 Vibration    20          0.900              1.150              0.554
 Vibration    21          0.939              1.069              0.481
 Vibration    22          0.977              0.995              0.420

 Optimization completed.
    -- Stationary point found.
 Normal termination of Gaussian 09 at Sat Jul 24 03:01:45 2021.
