 Gaussian 09, Revision D.01,
 Gaussian 09:  ES64L-G09RevD.01 24-Apr-2013

 ----------------------------------------------------------------------
 # B3LYP/6-31+G(d,p) EmpiricalDispersion=GD3BJ opt=calcfc freq=noraman
 nosymm integral(ultrafinegrid)
 ----------------------------------------------------------------------

 ------------------------------------------------------------
 Candidate Structure: Conf:214 OPT and FREQ calc in gas phase
 ------------------------------------------------------------
 Symbolic Z-matrix:
 Charge =  1 Multiplicity = 1

 SCF Done:  E(RB3LYP) =  -796.548597202     A.U. after   17 cycles
 SCF Done:  E(RB3LYP) =  -796.554197941     A.U. after   14 cycles
 SCF Done:  E(RB3LYP) =  -796.555040764     A.U. after   14 cycles
 SCF Done:  E(RB3LYP) =  -796.555238839     A.U. after   13 cycles
 SCF Done:  E(RB3LYP) =  -796.555281666     A.U. after   13 cycles
 SCF Done:  E(RB3LYP) =  -796.555245284     A.U. after   13 cycles
 SCF Done:  E(RB3LYP) =  -796.555304372     A.U. after   13 cycles
 SCF Done:  E(RB3LYP) =  -796.555315960     A.U. after   12 cycles
 SCF Done:  E(RB3LYP) =  -796.555351944     A.U. after   13 cycles
 SCF Done:  E(RB3LYP) =  -796.555374759     A.U. after   13 cycles
 SCF Done:  E(RB3LYP) =  -796.590335043     A.U. after   12 cycles
 SCF Done:  E(RB3LYP) =  -796.590294227     A.U. after   13 cycles
 SCF Done:  E(RB3LYP) =  -796.590415636     A.U. after   12 cycles
 SCF Done:  E(RB3LYP) =  -796.590474188     A.U. after   12 cycles
 SCF Done:  E(RB3LYP) =  -796.590479866     A.U. after   11 cycles
 SCF Done:  E(RB3LYP) =  -796.590482505     A.U. after   11 cycles
 SCF Done:  E(RB3LYP) =  -796.590483308     A.U. after   10 cycles
 SCF Done:  E(RB3LYP) =  -796.590483683     A.U. after    9 cycles
 SCF Done:  E(RB3LYP) =  -796.590483793     A.U. after    8 cycles
 Optimization completed.
    -- Stationary point found.
 Normal termination of Gaussian 09 at Sat Jul 24 05:35:33 2021.

 ----------------------------------------------------------------------
 #N Geom=AllCheck Guess=TCheck SCRF=Check GenChk RB3LYP/6-31+G(d,p) Fre
 q
 ----------------------------------------------------------------------

 Structure from the checkpoint file:  "conf-214.chk"
 ------------------------------------------------------------
 Candidate Structure: Conf:214 OPT and FREQ calc in gas phase
 ------------------------------------------------------------
 Charge =  1 Multiplicity = 1

                          Input orientation:
 ---------------------------------------------------------------------
 Center     Atomic      Atomic             Coordinates (Angstroms)
 Number     Number       Type             X           Y           Z
 ---------------------------------------------------------------------
      1          8           0       -1.242426   -1.611576   -0.859861
      2          6           0       -1.089209   -0.975599    0.177696
      3          7           0       -0.007046   -1.122648    0.985441
      4          6           0        1.176056   -1.859537    0.568505
      5          6           0        2.182034   -1.755092    1.714428
      6          8           0        3.016547   -2.782105    1.904311
      7          8           0        2.283204   -0.740144    2.372743
      8          6           0        1.862927   -1.247689   -0.724205
      9          6           0        1.534580    0.200070   -0.838258
     10          6           0        0.547547    0.792950   -1.584747
     11          7           0        0.284868    2.064970   -1.110766
     12          6           0        1.134340    2.261003   -0.104539
     13          7           0        1.908559    1.164923    0.083640
     14          6           0       -2.153455    0.018610    0.668259
     15          6           0       -2.896888    0.686997   -0.494461
     16          7           0       -2.399503    2.088161   -0.785742
     17          1           0        0.140651   -0.482266    1.756960
     18          1           0        0.903084   -2.897739    0.358262
     19          1           0        2.787795   -3.554508    1.364232
     20          1           0        2.940009   -1.442885   -0.692142
     21          1           0        1.460073   -1.754583   -1.601587
     22          1           0       -0.019075    0.351970   -2.390842
     23          1           0        1.225541    3.161433    0.485211
     24          1           0        2.562257    1.027181    0.846459
     25          1           0       -1.731157    0.757053    1.359133
     26          1           0       -2.878353   -0.563678    1.247337
     27          1           0       -3.964370    0.775650   -0.289133
     28          1           0       -2.760915    0.093445   -1.401026
     29          1           0       -1.318806    2.163406   -0.958434
     30          1           0       -2.865767    2.462473   -1.616333
     31          1           0       -2.623114    2.719860   -0.012732
 ---------------------------------------------------------------------

 SCF Done:  E(RB3LYP) =  -796.590483793     A.U. after    1 cycles

 Alpha  occ. eigenvalues --  -19.34309 -19.28575 -19.26312 -14.59625 -14.53856
 Alpha  occ. eigenvalues --  -14.50795 -14.48357 -10.46788 -10.43681 -10.40445
 Alpha  occ. eigenvalues --  -10.39645 -10.39261 -10.36696 -10.36083 -10.34739
 Alpha  occ. eigenvalues --  -10.34608  -1.24985  -1.18448  -1.16874  -1.16592
 Alpha  occ. eigenvalues --   -1.14267  -1.07476  -1.02508  -0.95044  -0.93206
 Alpha  occ. eigenvalues --   -0.88824  -0.83051  -0.80624  -0.77004  -0.76237
 Alpha  occ. eigenvalues --   -0.74219  -0.73341  -0.72724  -0.71540  -0.69173
 Alpha  occ. eigenvalues --   -0.67940  -0.65269  -0.63372  -0.63201  -0.61391
 Alpha  occ. eigenvalues --   -0.60105  -0.58915  -0.58736  -0.58289  -0.56490
 Alpha  occ. eigenvalues --   -0.56035  -0.55286  -0.54326  -0.54001  -0.53247
 Alpha  occ. eigenvalues --   -0.52459  -0.51301  -0.49934  -0.46251  -0.45051
 Alpha  occ. eigenvalues --   -0.43604  -0.42239  -0.40608  -0.40085  -0.37374
 Alpha virt. eigenvalues --   -0.15596  -0.14975  -0.13747  -0.13279  -0.12012
 Alpha virt. eigenvalues --   -0.11596  -0.10491  -0.09787  -0.09707  -0.08242
 Alpha virt. eigenvalues --   -0.07844  -0.07768  -0.07134  -0.06646  -0.05805

 Mulliken charges:
               1
     1  O   -0.442341
     2  C    0.130246
     3  N   -0.219769
     4  C   -0.218489
     5  C    0.462186
     6  O   -0.343750
     7  O   -0.453679
     8  C   -0.470745
     9  C    0.556553
    10  C   -0.412875
    11  N   -0.347613
    12  C    0.140810
    13  N   -0.308693
    14  C   -0.100002
    15  C   -0.217068
    16  N   -0.699826
    17  H    0.321275
    18  H    0.173088
    19  H    0.363121
    20  H    0.182783
    21  H    0.203312
    22  H    0.169858
    23  H    0.174971
    24  H    0.349699
    25  H    0.146760
    26  H    0.215843
    27  H    0.189509
    28  H    0.228438
    29  H    0.455547
    30  H    0.387969
    31  H    0.382882
 Sum of Mulliken charges =   1.00000

 Dipole moment (field-independent basis, Debye):
    X=             -4.7189    Y=              3.8863    Z=             -0.5149  Tot=              6.1348
 Quadrupole moment (field-independent basis, Debye-Ang):
   XX=            -60.2129   YY=            -61.8373   ZZ=            -94.5576
   XY=            -24.7691   XZ=             -0.9011   YZ=             -2.9839

  Exact polarizability: 140.950 -18.810 141.249  15.749  -0.279 118.320
 Approx polarizability: 194.167 -20.682 213.601  28.611  21.235 196.578

                      1                      2                      3
                      A                      A                      A
 Frequencies --     45.5990                65.8590                80.9504
 Red. masses --      6.2338                 3.7266                 4.7048
 Frc consts  --      0.0076                 0.0095                 0.0182
 IR Inten    --      4.2590                10.0133                 0.1737

                      4                      5                      6
                      A                      A                      A
 Frequencies --    103.0706               112.5593               126.0690
 Red. masses --      4.9125                 4.6652                 4.2418
 Frc consts  --      0.0307                 0.0348                 0.0397
 IR Inten    --     16.4179                 5.3238                29.8713

                      7                      8                      9
                      A                      A                      A
 Frequencies --    136.1184               147.2344               191.2767
 Red. masses --      4.3313                 6.7302                 4.8728
 Frc consts  --      0.0473                 0.0860                 0.1050
 IR Inten    --      2.3277                 7.3647                 3.8471

                     10                     11                     12
                      A                      A                      A
 Frequencies --    253.7823               264.6531               294.2272
 Red. masses --      2.7740                 4.7585                 5.1299
 Frc consts  --      0.1053                 0.1964                 0.2617
 IR Inten    --     46.9017                52.9464                 9.6227

                     13                     14                     15
                      A                      A                      A
 Frequencies --    322.5048               332.3985               348.8682
 Red. masses --      3.2163                 2.5896                 4.3613
 Frc consts  --      0.1971                 0.1686                 0.3127
 IR Inten    --      5.1635                 5.9724                16.9356

                     16                     17                     18
                      A                      A                      A
 Frequencies --    393.5976               435.2332               474.3014
 Red. masses --      2.3324                 2.1129                 1.6366
 Frc consts  --      0.2129                 0.2358                 0.2169
 IR Inten    --     16.2825                 9.8184                 8.3789

                     19                     20                     21
                      A                      A                      A
 Frequencies --    514.9384               523.2607               580.5482
 Red. masses --      2.2667                 1.2284                 1.9385
 Frc consts  --      0.3541                 0.1982                 0.3849
 IR Inten    --     19.0271               119.5620                99.3999

                     22                     23                     24
                      A                      A                      A
 Frequencies --    624.2002               641.1860               642.6954
 Red. masses --      1.9717                 4.4115                 1.8775
 Frc consts  --      0.4526                 1.0686                 0.4569
 IR Inten    --     71.1789                 0.7665                28.6622

                     25                     26                     27
                      A                      A                      A
 Frequencies --    689.0484               692.4848               705.0372
 Red. masses --      3.8541                 2.1186                 3.7216
 Frc consts  --      1.0781                 0.5986                 1.0899
 IR Inten    --     37.2416                 2.3976                 6.5105

                     28                     29                     30
                      A                      A                      A
 Frequencies --    743.6404               778.0505               820.9816
 Red. masses --      4.4654                 3.9614                 1.5339
 Frc consts  --      1.4549                 1.4129                 0.6091
 IR Inten    --      1.0196                 2.0139                 1.6659

                     31                     32                     33
                      A                      A                      A
 Frequencies --    832.3284               845.9506               861.6094
 Red. masses --      2.0227                 2.6231                 1.7565
 Frc consts  --      0.8256                 1.1060                 0.7683
 IR Inten    --     35.4273                 6.8578                18.9890

                     34                     35                     36
                      A                      A                      A
 Frequencies --    898.2459               923.5966               936.3752
 Red. masses --      3.1265                 2.3882                 1.8545
 Frc consts  --      1.4863                 1.2003                 0.9580
 IR Inten    --      6.2056                 6.2664                 9.7304

                     37                     38                     39
                      A                      A                      A
 Frequencies --    964.1661               967.0415              1007.5421
 Red. masses --      5.3499                 2.0954                 2.7527
 Frc consts  --      2.9302                 1.1545                 1.6464
 IR Inten    --     16.4355                 2.0015                 0.7897

                     40                     41                     42
                      A                      A                      A
 Frequencies --   1029.2283              1041.8546              1104.0632
 Red. masses --      2.7085                 2.9740                 2.6512
 Frc consts  --      1.6905                 1.9020                 1.9041
 IR Inten    --     18.6671                 2.9059                12.0599

                     43                     44                     45
                      A                      A                      A
 Frequencies --   1131.3340              1144.0693              1152.6388
 Red. masses --      1.3620                 1.9599                 1.7441
 Frc consts  --      1.0271                 1.5114                 1.3652
 IR Inten    --      4.8790                38.4952                 3.2055

                     46                     47                     48
                      A                      A                      A
 Frequencies --   1161.1275              1165.6209              1194.5443
 Red. masses --      1.4399                 1.4669                 1.4176
 Frc consts  --      1.1438                 1.1743                 1.1918
 IR Inten    --     13.8314                13.3611                 7.9543

                     49                     50                     51
                      A                      A                      A
 Frequencies --   1234.1045              1260.6939              1271.0503
 Red. masses --      1.5642                 1.3704                 1.8167
 Frc consts  --      1.4036                 1.2832                 1.7293
 IR Inten    --     49.2192               110.6692                54.1314

                     52                     53                     54
                      A                      A                      A
 Frequencies --   1280.5019              1294.9325              1306.6975
 Red. masses --      1.3913                 1.5451                 1.7586
 Frc consts  --      1.3441                 1.5265                 1.7692
 IR Inten    --     26.9613                18.0116               128.0150

                     55                     56                     57
                      A                      A                      A
 Frequencies --   1337.4388              1363.5418              1371.9483
 Red. masses --      1.2100                 1.5249                 1.6299
 Frc consts  --      1.2752                 1.6704                 1.8075
 IR Inten    --      6.4778                 0.5894               119.1456

                     58                     59                     60
                      A                      A                      A
 Frequencies --   1385.3422              1408.2547              1420.1915
 Red. masses --      3.7388                 1.8822                 1.5765
 Frc consts  --      4.2276                 2.1992                 1.8734
 IR Inten    --     67.7809               160.1461                38.8472

                     61                     62                     63
                      A                      A                      A
 Frequencies --   1454.0639              1464.4168              1490.3363
 Red. masses --      2.2587                 1.0860                 1.2347
 Frc consts  --      2.8137                 1.3722                 1.6157
 IR Inten    --     23.2195                16.9834                14.5322

                     64                     65                     66
                      A                      A                      A
 Frequencies --   1510.4374              1517.7362              1543.8514
 Red. masses --      1.3192                 1.8152                 2.0557
 Frc consts  --      1.7732                 2.4636                 2.8869
 IR Inten    --     14.8956                46.8197               213.7889

                     67                     68                     69
                      A                      A                      A
 Frequencies --   1596.1057              1633.7889              1670.3916
 Red. masses --      1.1510                 4.2108                 1.0356
 Frc consts  --      1.7276                 6.6223                 1.7025
 IR Inten    --     85.0161                25.1571                24.7298

                     70                     71                     72
                      A                      A                      A
 Frequencies --   1719.0540              1757.2566              1820.1516
 Red. masses --      1.0478                 9.3978                 9.3650
 Frc consts  --      1.8243                17.0980                18.2799
 IR Inten    --     28.3790               236.1373               153.4095

                     73                     74                     75
                      A                      A                      A
 Frequencies --   2264.0173              3059.3207              3072.6385
 Red. masses --      1.1172                 1.0626                 1.0681
 Frc consts  --      3.3740                 5.8596                 5.9416
 IR Inten    --   2199.5100                 6.5318                 8.1201

                     76                     77                     78
                      A                      A                      A
 Frequencies --   3090.2653              3099.6536              3108.1361
 Red. masses --      1.0868                 1.0807                 1.0809
 Frc consts  --      6.1152                 6.1174                 6.1522
 IR Inten    --     12.8363                 7.1707                 4.4168

                     79                     80                     81
                      A                      A                      A
 Frequencies --   3150.1400              3160.7542              3276.6291
 Red. masses --      1.0981                 1.1103                 1.0963
 Frc consts  --      6.4200                 6.5355                 6.9346
 IR Inten    --      0.1623                 1.0594                 2.1768

                     82                     83                     84
                      A                      A                      A
 Frequencies --   3280.2282              3456.1748              3522.6801
 Red. masses --      1.1019                 1.0527                 1.0928
 Frc consts  --      6.9854                 7.4086                 7.9896
 IR Inten    --      3.3745                69.0671                58.6597

                     85                     86                     87
                      A                      A                      A
 Frequencies --   3591.2283              3609.1756              3786.8057
 Red. masses --      1.0779                 1.0831                 1.0667
 Frc consts  --      8.1906                 8.3129                 9.0126
 IR Inten    --     52.3691               146.5774                91.3398

 - Thermochemistry -
 -------------------
 Temperature   298.150 Kelvin.  Pressure   1.00000 Atm.
 Atom     1 has atomic number  8 and mass  15.99491

 Molecular mass:   227.11442 amu.
 Principal axes and moments of inertia in atomic units:
                           1         2         3
     Eigenvalues --  2071.111824404.003525269.54030
           X            0.74637   0.64517  -0.16336
           Y           -0.54454   0.73312   0.40744
           Z            0.38263  -0.21514   0.89850
 This molecule is an asymmetric top.
 Rotational symmetry number  1.
 Warning -- assumption of classical behavior for rotation
           may cause significant error
 Rotational temperatures (Kelvin)      0.04182     0.01967     0.01644
 Rotational constants (GHZ):           0.87139     0.40980     0.34249
 Zero-point vibrational energy     682384.9 (Joules/Mol)
                                  163.09391 (Kcal/Mol)
 Warning -- explicit consideration of  21 degrees of freedom as
           vibrations may cause significant error
 Vibrational temperatures:     65.61    94.76   116.47   148.30   161.95
          (Kelvin)            181.38   195.84   211.84   275.20   365.14
                              380.78   423.33   464.01   478.25   501.94
                              566.30   626.20   682.41   740.88   752.85
                              835.28   898.08   922.52   924.69   991.39
                              996.33  1014.39  1069.93  1119.44  1181.21
                             1197.53  1217.13  1239.66  1292.37  1328.85
                             1347.23  1387.22  1391.36  1449.63  1480.83
                             1498.99  1588.50  1627.74  1646.06  1658.39
                             1670.60  1677.07  1718.68  1775.60  1813.86
                             1828.76  1842.35  1863.12  1880.04  1924.27
                             1961.83  1973.93  1993.20  2026.16  2043.34
                             2092.07  2106.97  2144.26  2173.18  2183.68
                             2221.26  2296.44  2350.65  2403.32  2473.33
                             2528.30  2618.79  3257.41  4401.67  4420.84
                             4446.20  4459.70  4471.91  4532.34  4547.61
                             4714.33  4719.51  4972.66  5068.34  5166.97
                             5192.79  5448.36

 Zero-point correction=                           0.259907 (Hartree/Particle)
 Thermal correction to Energy=                    0.274977
 Thermal correction to Enthalpy=                  0.275921
 Thermal correction to Gibbs Free Energy=         0.217653
 Sum of electronic and zero-point Energies=           -796.330577
 Sum of electronic and thermal Energies=              -796.315507
 Sum of electronic and thermal Enthalpies=            -796.314563
 Sum of electronic and thermal Free Energies=         -796.372831

                     E (Thermal)             CV                S
                      KCal/Mol        Cal/Mol-Kelvin    Cal/Mol-Kelvin
 Total                  172.551             57.524            122.637
 Electronic               0.000              0.000              0.000
 Translational            0.889              2.981             42.163
 Rotational               0.889              2.981             32.241
 Vibrational            170.773             51.562             48.232
 Vibration     1          0.595              1.979              5.000
 Vibration     2          0.597              1.971              4.273
 Vibration     3          0.600              1.962              3.868
 Vibration     4          0.605              1.947              3.395
 Vibration     5          0.607              1.939              3.224
 Vibration     6          0.611              1.927              3.005
 Vibration     7          0.614              1.917              2.858
 Vibration     8          0.617              1.906              2.708
 Vibration     9          0.634              1.852              2.215
 Vibration    10          0.665              1.756              1.704
 Vibration    11          0.671              1.738              1.631
 Vibration    12          0.689              1.684              1.450
 Vibration    13          0.708              1.630              1.297
 Vibration    14          0.714              1.611              1.248
 Vibration    15          0.726              1.578              1.171
 Vibration    16          0.761              1.484              0.986
 Vibration    17          0.796              1.393              0.842
 Vibration    18          0.831              1.307              0.726
 Vibration    19          0.870              1.217              0.622
 Vibration    20          0.878              1.198              0.602
 Vibration    21          0.937              1.073              0.484

 Normal termination of Gaussian 09 at Sat Jul 24 06:23:23 2021.
