 Gaussian 09, Revision D.01,
 Gaussian 09:  ES64L-G09RevD.01 24-Apr-2013

 ----------------------------------------------------------------------
 # B3LYP/6-31+G(d,p) EmpiricalDispersion=GD3BJ opt=calcfc freq=noraman
 nosymm integral(ultrafinegrid)
 ----------------------------------------------------------------------

 ------------------------------------------------------------
 Candidate Structure: Conf:318 OPT and FREQ calc in gas phase
 ------------------------------------------------------------
 Symbolic Z-matrix:
 Charge =  1 Multiplicity = 1

 SCF Done:  E(RB3LYP) =  -796.548494873     A.U. after   17 cycles
 SCF Done:  E(RB3LYP) =  -796.554998895     A.U. after   15 cycles
 SCF Done:  E(RB3LYP) =  -796.556386597     A.U. after   17 cycles
 SCF Done:  E(RB3LYP) =  -796.556336496     A.U. after   16 cycles
 SCF Done:  E(RB3LYP) =  -796.557942000     A.U. after   12 cycles
 SCF Done:  E(RB3LYP) =  -796.544270796     A.U. after   16 cycles
 SCF Done:  E(RB3LYP) =  -796.559867257     A.U. after   12 cycles
 SCF Done:  E(RB3LYP) =  -796.560414299     A.U. after   14 cycles
 SCF Done:  E(RB3LYP) =  -796.561956949     A.U. after   13 cycles
 SCF Done:  E(RB3LYP) =  -796.562086569     A.U. after   13 cycles
 SCF Done:  E(RB3LYP) =  -796.592319029     A.U. after   12 cycles
 SCF Done:  E(RB3LYP) =  -796.592405657     A.U. after   12 cycles
 SCF Done:  E(RB3LYP) =  -796.592545340     A.U. after   12 cycles
 SCF Done:  E(RB3LYP) =  -796.592605849     A.U. after   11 cycles
 SCF Done:  E(RB3LYP) =  -796.592643315     A.U. after   12 cycles
 SCF Done:  E(RB3LYP) =  -796.592646278     A.U. after   10 cycles
 SCF Done:  E(RB3LYP) =  -796.592647313     A.U. after    9 cycles
 SCF Done:  E(RB3LYP) =  -796.592647656     A.U. after    9 cycles
 SCF Done:  E(RB3LYP) =  -796.592647725     A.U. after    9 cycles
 Optimization completed.
    -- Stationary point found.
 Normal termination of Gaussian 09 at Sat Jul 24 06:24:38 2021.

 ----------------------------------------------------------------------
 #N Geom=AllCheck Guess=TCheck SCRF=Check GenChk RB3LYP/6-31+G(d,p) Fre
 q
 ----------------------------------------------------------------------

 Structure from the checkpoint file:  "conf-318.chk"
 ------------------------------------------------------------
 Candidate Structure: Conf:318 OPT and FREQ calc in gas phase
 ------------------------------------------------------------
 Charge =  1 Multiplicity = 1

                          Input orientation:
 ---------------------------------------------------------------------
 Center     Atomic      Atomic             Coordinates (Angstroms)
 Number     Number       Type             X           Y           Z
 ---------------------------------------------------------------------
      1          8           0        0.648506    0.622624    1.364662
      2          6           0        0.865158   -0.411132    0.735165
      3          7           0       -0.049196   -1.402953    0.591003
      4          6           0       -1.412286   -1.272904    1.058049
      5          6           0       -1.940209   -2.688328    1.316630
      6          8           0       -3.005194   -2.805837    2.127815
      7          8           0       -1.465406   -3.649154    0.760727
      8          6           0       -2.344162   -0.583102   -0.018407
      9          6           0       -1.684025    0.622236   -0.585929
     10          6           0       -0.697842    0.694003   -1.539152
     11          7           0       -0.077974    1.929896   -1.498869
     12          6           0       -0.708053    2.620090   -0.555035
     13          7           0       -1.688806    1.874044    0.005143
     14          6           0        2.227118   -0.657247    0.074799
     15          6           0        2.995882    0.641050   -0.153940
     16          7           0        2.570648    1.369786   -1.410683
     17          1           0        0.179438   -2.283864    0.142221
     18          1           0       -1.403676   -0.667338    1.969588
     19          1           0       -3.228055   -1.975078    2.573901
     20          1           0       -2.528021   -1.301780   -0.821928
     21          1           0       -3.312548   -0.350612    0.436306
     22          1           0       -0.385074   -0.080949   -2.223938
     23          1           0       -0.490532    3.634752   -0.256939
     24          1           0       -2.277654    2.169125    0.771630
     25          1           0        2.126467   -1.241569   -0.847450
     26          1           0        2.821545   -1.271307    0.761854
     27          1           0        4.065800    0.449186   -0.248857
     28          1           0        2.816280    1.322540    0.678940
     29          1           0        2.739190    0.797269   -2.241971
     30          1           0        3.125581    2.221824   -1.525330
     31          1           0        1.517053    1.674973   -1.439806
 ---------------------------------------------------------------------

 SCF Done:  E(RB3LYP) =  -796.592647725     A.U. after    1 cycles

 Alpha  occ. eigenvalues --  -19.33119 -19.27186 -19.26367 -14.59407 -14.53948
 Alpha  occ. eigenvalues --  -14.50477 -14.48052 -10.45406 -10.43709 -10.40289
 Alpha  occ. eigenvalues --  -10.39473 -10.38752 -10.36801 -10.35972 -10.35066
 Alpha  occ. eigenvalues --  -10.34763  -1.23590  -1.18457  -1.16582  -1.15530
 Alpha  occ. eigenvalues --   -1.14072  -1.07243  -1.02489  -0.95011  -0.93284
 Alpha  occ. eigenvalues --   -0.88678  -0.82914  -0.80331  -0.76708  -0.75492
 Alpha  occ. eigenvalues --   -0.74065  -0.73106  -0.72856  -0.71442  -0.69559
 Alpha  occ. eigenvalues --   -0.67310  -0.64946  -0.63743  -0.62474  -0.61281
 Alpha  occ. eigenvalues --   -0.59501  -0.58751  -0.57906  -0.57420  -0.56231
 Alpha  occ. eigenvalues --   -0.56021  -0.55548  -0.54687  -0.53685  -0.53160
 Alpha  occ. eigenvalues --   -0.52109  -0.50773  -0.49911  -0.44874  -0.44808
 Alpha  occ. eigenvalues --   -0.43428  -0.41573  -0.40083  -0.39891  -0.37260
 Alpha virt. eigenvalues --   -0.15422  -0.14177  -0.13404  -0.12461  -0.12251
 Alpha virt. eigenvalues --   -0.11591  -0.10180  -0.10082  -0.09916  -0.08936
 Alpha virt. eigenvalues --   -0.08070  -0.07725  -0.06698  -0.06447  -0.05799

 Mulliken charges:
               1
     1  O   -0.402302
     2  C   -0.037850
     3  N   -0.221251
     4  C   -0.275312
     5  C    0.452118
     6  O   -0.337362
     7  O   -0.379857
     8  C   -0.452201
     9  C    0.465223
    10  C   -0.194465
    11  N   -0.373093
    12  C    0.155351
    13  N   -0.319605
    14  C   -0.102815
    15  C   -0.189482
    16  N   -0.691810
    17  H    0.345948
    18  H    0.185401
    19  H    0.357675
    20  H    0.193176
    21  H    0.168328
    22  H    0.146125
    23  H    0.171641
    24  H    0.322466
    25  H    0.162423
    26  H    0.215114
    27  H    0.187124
    28  H    0.225031
    29  H    0.382401
    30  H    0.384122
    31  H    0.457739
 Sum of Mulliken charges =   1.00000

 Dipole moment (field-independent basis, Debye):
    X=              4.5663    Y=              5.6167    Z=             -1.9852  Tot=              7.5059
 Quadrupole moment (field-independent basis, Debye-Ang):
   XX=            -47.1988   YY=            -90.5336   ZZ=            -82.1772
   XY=             -0.0677   XZ=            -21.0635   YZ=             -0.9017

  Exact polarizability: 145.819  12.616 146.654 -18.212  -5.107 113.363
 Approx polarizability: 201.400   9.443 224.112 -30.923  19.324 182.359

                      1                      2                      3
                      A                      A                      A
 Frequencies --     47.7236                52.2873                86.0355
 Red. masses --      5.5033                 4.5885                 3.0972
 Frc consts  --      0.0074                 0.0074                 0.0135
 IR Inten    --      4.5696                 1.7615                 7.9197

                      4                      5                      6
                      A                      A                      A
 Frequencies --    101.3346               120.6477               125.6005
 Red. masses --      4.4020                 4.6251                 5.2122
 Frc consts  --      0.0266                 0.0397                 0.0484
 IR Inten    --     10.2553                 3.6624                 5.5771

                      7                      8                      9
                      A                      A                      A
 Frequencies --    140.6637               159.8640               162.9421
 Red. masses --      5.2587                 6.0578                 7.0710
 Frc consts  --      0.0613                 0.0912                 0.1106
 IR Inten    --     34.8348                 5.0060                 0.6438

                     10                     11                     12
                      A                      A                      A
 Frequencies --    263.5689               272.2919               300.2482
 Red. masses --      2.4612                 4.5852                 4.6127
 Frc consts  --      0.1007                 0.2003                 0.2450
 IR Inten    --     37.7031                77.7534                16.8912

                     13                     14                     15
                      A                      A                      A
 Frequencies --    319.3559               334.1898               351.3675
 Red. masses --      3.0148                 3.7800                 3.4045
 Frc consts  --      0.1812                 0.2487                 0.2476
 IR Inten    --      5.0844                16.6653                 0.5718

                     16                     17                     18
                      A                      A                      A
 Frequencies --    390.6310               434.4779               474.3431
 Red. masses --      2.1432                 2.2711                 1.2430
 Frc consts  --      0.1927                 0.2526                 0.1648
 IR Inten    --      1.9768                13.4010                68.1279

                     19                     20                     21
                      A                      A                      A
 Frequencies --    486.0294               522.9318               561.4140
 Red. masses --      1.4956                 1.8794                 2.6663
 Frc consts  --      0.2082                 0.3028                 0.4951
 IR Inten    --     15.4788                77.5983                14.9465

                     22                     23                     24
                      A                      A                      A
 Frequencies --    597.0882               612.0981               645.4294
 Red. masses --      1.4175                 2.0840                 3.6662
 Frc consts  --      0.2977                 0.4600                 0.8998
 IR Inten    --     94.7417                20.3945                13.3326

                     25                     26                     27
                      A                      A                      A
 Frequencies --    671.3054               680.9129               685.0546
 Red. masses --      4.2755                 2.7097                 3.2141
 Frc consts  --      1.1352                 0.7402                 0.8887
 IR Inten    --      9.1192                 4.1423                 5.0206

                     28                     29                     30
                      A                      A                      A
 Frequencies --    711.6836               768.8196               825.1941
 Red. masses --      3.5960                 5.1166                 1.6195
 Frc consts  --      1.0731                 1.7819                 0.6497
 IR Inten    --     22.0119                 6.0578                 6.2422

                     31                     32                     33
                      A                      A                      A
 Frequencies --    832.2604               840.5544               867.6831
 Red. masses --      1.4167                 2.6810                 2.3532
 Frc consts  --      0.5782                 1.1160                 1.0438
 IR Inten    --     19.6469                13.9991                 1.0261

                     34                     35                     36
                      A                      A                      A
 Frequencies --    872.9327               928.8238               951.9091
 Red. masses --      2.3915                 1.9985                 1.9771
 Frc consts  --      1.0737                 1.0159                 1.0555
 IR Inten    --     17.3727                 0.2699                10.1564

                     37                     38                     39
                      A                      A                      A
 Frequencies --    962.6039               969.5910               999.7879
 Red. masses --      4.1915                 3.2054                 2.9228
 Frc consts  --      2.2883                 1.7754                 1.7214
 IR Inten    --     13.5512                 1.4245                 3.5209

                     40                     41                     42
                      A                      A                      A
 Frequencies --   1030.9693              1039.2268              1096.6145
 Red. masses --      3.1153                 2.9051                 1.8473
 Frc consts  --      1.9509                 1.8485                 1.3089
 IR Inten    --      2.2136                17.0459                 7.2551

                     43                     44                     45
                      A                      A                      A
 Frequencies --   1121.0425              1139.4333              1145.3745
 Red. masses --      1.5631                 1.9436                 1.6505
 Frc consts  --      1.1574                 1.4867                 1.2758
 IR Inten    --      3.9975                16.1694                28.4753

                     46                     47                     48
                      A                      A                      A
 Frequencies --   1154.2806              1159.0814              1203.5595
 Red. masses --      1.4361                 1.5977                 1.6422
 Frc consts  --      1.1274                 1.2646                 1.4016
 IR Inten    --     12.2273                 3.3870                24.1807

                     49                     50                     51
                      A                      A                      A
 Frequencies --   1235.5397              1255.7657              1276.3261
 Red. masses --      1.5151                 1.5951                 1.3422
 Frc consts  --      1.3627                 1.4820                 1.2882
 IR Inten    --     84.7957                27.0685                 5.4007

                     52                     53                     54
                      A                      A                      A
 Frequencies --   1287.4780              1295.3608              1324.5857
 Red. masses --      1.9317                 1.6130                 2.0154
 Frc consts  --      1.8865                 1.5947                 2.0834
 IR Inten    --     63.5510                 0.6137               201.9730

                     55                     56                     57
                      A                      A                      A
 Frequencies --   1340.7901              1350.8053              1367.7810
 Red. masses --      1.2843                 1.2994                 1.4686
 Frc consts  --      1.3603                 1.3970                 1.6188
 IR Inten    --     43.7947                51.9407               106.0787

                     58                     59                     60
                      A                      A                      A
 Frequencies --   1397.0750              1406.8821              1425.0462
 Red. masses --      3.1800                 1.7648                 1.4261
 Frc consts  --      3.6570                 2.0581                 1.7063
 IR Inten    --     40.7723                87.0018                 8.3729

                     61                     62                     63
                      A                      A                      A
 Frequencies --   1451.2080              1463.9343              1486.9341
 Red. masses --      2.5635                 1.0906                 1.1724
 Frc consts  --      3.1808                 1.3770                 1.5272
 IR Inten    --     34.7799                17.2119                10.5259

                     64                     65                     66
                      A                      A                      A
 Frequencies --   1494.2476              1517.4072              1542.3750
 Red. masses --      1.0897                 3.2265                 2.2429
 Frc consts  --      1.4335                 4.3771                 3.1437
 IR Inten    --     22.1348                54.4294               211.3602

                     67                     68                     69
                      A                      A                      A
 Frequencies --   1581.0291              1627.4436              1663.4159
 Red. masses --      1.1717                 4.3205                 1.0390
 Frc consts  --      1.7257                 6.7421                 1.6939
 IR Inten    --    108.6276                14.3345                60.0659

                     70                     71                     72
                      A                      A                      A
 Frequencies --   1729.4841              1745.0355              1846.5186
 Red. masses --      1.0589                 8.6259                10.0835
 Frc consts  --      1.8661                15.4761                20.2567
 IR Inten    --     11.0129               221.6311               217.4709

                     73                     74                     75
                      A                      A                      A
 Frequencies --   2270.2807              3053.8685              3069.3432
 Red. masses --      1.1146                 1.0620                 1.0612
 Frc consts  --      3.3847                 5.8357                 5.8905
 IR Inten    --   2223.5628                 5.0227                11.4293

                     76                     77                     78
                      A                      A                      A
 Frequencies --   3086.4894              3094.6127              3107.9169
 Red. masses --      1.0865                 1.0977                 1.0647
 Frc consts  --      6.0982                 6.1936                 6.0593
 IR Inten    --      5.9450                 4.2483                 6.8250

                     79                     80                     81
                      A                      A                      A
 Frequencies --   3123.3833              3167.7599              3262.3749
 Red. masses --      1.1041                 1.1098                 1.0977
 Frc consts  --      6.3464                 6.5617                 6.8832
 IR Inten    --      5.2456                 0.3136                 0.9329

                     82                     83                     84
                      A                      A                      A
 Frequencies --   3285.0305              3455.5000              3521.5202
 Red. masses --      1.1001                 1.0527                 1.0925
 Frc consts  --      6.9947                 7.4061                 7.9822
 IR Inten    --      4.5118                62.3122                56.2631

                     85                     86                     87
                      A                      A                      A
 Frequencies --   3579.9593              3653.4632              3797.5502
 Red. masses --      1.0784                 1.0824                 1.0667
 Frc consts  --      8.1432                 8.5126                 9.0638
 IR Inten    --    101.2217                91.0358                62.5104

 - Thermochemistry -
 -------------------
 Temperature   298.150 Kelvin.  Pressure   1.00000 Atm.
 Atom     1 has atomic number  8 and mass  15.99491

 Molecular mass:   227.11442 amu.
 Principal axes and moments of inertia in atomic units:
                           1         2         3
     Eigenvalues --  2122.041944613.516605868.11044
           X            0.62286   0.77910   0.07108
           Y            0.69270  -0.59144   0.41276
           Z           -0.36362   0.20785   0.90806
 This molecule is an asymmetric top.
 Rotational symmetry number  1.
 Warning -- assumption of classical behavior for rotation
           may cause significant error
 Rotational temperatures (Kelvin)      0.04082     0.01877     0.01476
 Rotational constants (GHZ):           0.85047     0.39119     0.30755
 Zero-point vibrational energy     681050.7 (Joules/Mol)
                                  162.77502 (Kcal/Mol)
 Warning -- explicit consideration of  23 degrees of freedom as
           vibrations may cause significant error
 Vibrational temperatures:     68.66    75.23   123.79   145.80   173.58
          (Kelvin)            180.71   202.38   230.01   234.44   379.22
                              391.77   431.99   459.48   480.82   505.54
                              562.03   625.12   682.47   699.29   752.38
                              807.75   859.08   880.67   928.63   965.86
                              979.68   985.64  1023.95  1106.16  1187.27
                             1197.44  1209.37  1248.40  1255.95  1336.37
                             1369.58  1384.97  1395.02  1438.47  1483.33
                             1495.21  1577.78  1612.93  1639.39  1647.94
                             1660.75  1667.66  1731.65  1777.66  1806.76
                             1836.35  1852.39  1863.73  1905.78  1929.10
                             1943.51  1967.93  2010.08  2024.19  2050.32
                             2087.96  2106.27  2139.36  2149.89  2183.21
                             2219.13  2274.75  2341.53  2393.28  2488.34
                             2510.71  2656.73  3266.42  4393.83  4416.09
                             4440.76  4452.45  4471.59  4493.85  4557.69
                             4693.82  4726.42  4971.69  5066.68  5150.76
                             5256.51  5463.82

 Zero-point correction=                           0.259399 (Hartree/Particle)
 Thermal correction to Energy=                    0.274560
 Thermal correction to Enthalpy=                  0.275504
 Thermal correction to Gibbs Free Energy=         0.216960
 Sum of electronic and zero-point Energies=           -796.333249
 Sum of electronic and thermal Energies=              -796.318088
 Sum of electronic and thermal Enthalpies=            -796.317144
 Sum of electronic and thermal Free Energies=         -796.375688

                     E (Thermal)             CV                S
                      KCal/Mol        Cal/Mol-Kelvin    Cal/Mol-Kelvin
 Total                  172.289             57.925            123.217
 Electronic               0.000              0.000              0.000
 Translational            0.889              2.981             42.163
 Rotational               0.889              2.981             32.419
 Vibrational            170.511             51.963             48.636
 Vibration     1          0.595              1.978              4.910
 Vibration     2          0.596              1.977              4.729
 Vibration     3          0.601              1.959              3.748
 Vibration     4          0.604              1.948              3.428
 Vibration     5          0.609              1.932              3.090
 Vibration     6          0.611              1.927              3.012
 Vibration     7          0.615              1.913              2.795
 Vibration     8          0.622              1.892              2.551
 Vibration     9          0.623              1.888              2.515
 Vibration    10          0.670              1.740              1.638
 Vibration    11          0.675              1.724              1.582
 Vibration    12          0.693              1.673              1.416
 Vibration    13          0.705              1.637              1.313
 Vibration    14          0.716              1.607              1.240
 Vibration    15          0.728              1.572              1.160
 Vibration    16          0.758              1.490              0.998
 Vibration    17          0.795              1.395              0.844
 Vibration    18          0.831              1.307              0.725
 Vibration    19          0.842              1.281              0.694
 Vibration    20          0.878              1.199              0.603
 Vibration    21          0.917              1.115              0.521
 Vibration    22          0.955              1.038              0.455
 Vibration    23          0.971              1.006              0.429

 Optimization completed.
    -- Stationary point found.
 Normal termination of Gaussian 09 at Sat Jul 24 07:11:26 2021.
