 Gaussian 09, Revision D.01,
 Gaussian 09:  ES64L-G09RevD.01 24-Apr-2013

 ----------------------------------------------------------------------
 # B3LYP/6-31+G(d,p) EmpiricalDispersion=GD3BJ opt=calcfc freq=noraman
 nosymm integral(ultrafinegrid)
 ----------------------------------------------------------------------

 ------------------------------------------------------------
 Candidate Structure: Conf:862 OPT and FREQ calc in gas phase
 ------------------------------------------------------------
 Symbolic Z-matrix:
 Charge =  1 Multiplicity = 1

 SCF Done:  E(RB3LYP) =  -796.592376955     A.U. after   15 cycles
 SCF Done:  E(RB3LYP) =  -796.518616302     A.U. after   16 cycles
 SCF Done:  E(RB3LYP) =  -796.599604321     A.U. after   13 cycles
 SCF Done:  E(RB3LYP) =  -796.601913773     A.U. after   13 cycles
 SCF Done:  E(RB3LYP) =  -796.598767153     A.U. after   14 cycles
 SCF Done:  E(RB3LYP) =  -796.602146175     A.U. after   11 cycles
 SCF Done:  E(RB3LYP) =  -796.604050897     A.U. after   14 cycles
 SCF Done:  E(RB3LYP) =  -796.604620684     A.U. after   13 cycles
 SCF Done:  E(RB3LYP) =  -796.604827527     A.U. after   12 cycles
 SCF Done:  E(RB3LYP) =  -796.604897755     A.U. after   11 cycles
 SCF Done:  E(RB3LYP) =  -796.604917820     A.U. after   11 cycles
 SCF Done:  E(RB3LYP) =  -796.604929047     A.U. after   12 cycles
 SCF Done:  E(RB3LYP) =  -796.604932433     A.U. after   10 cycles
 SCF Done:  E(RB3LYP) =  -796.604933862     A.U. after   10 cycles
 SCF Done:  E(RB3LYP) =  -796.604934103     A.U. after   10 cycles
 SCF Done:  E(RB3LYP) =  -796.604934134     A.U. after    8 cycles
 Optimization completed.
    -- Stationary point found.
 Normal termination of Gaussian 09 at Sat Jul 24 02:37:12 2021.

 ----------------------------------------------------------------------
 #N Geom=AllCheck Guess=TCheck SCRF=Check GenChk RB3LYP/6-31+G(d,p) Fre
 q
 ----------------------------------------------------------------------

 Structure from the checkpoint file:  "conf-862.chk"
 ------------------------------------------------------------
 Candidate Structure: Conf:862 OPT and FREQ calc in gas phase
 ------------------------------------------------------------
 Charge =  1 Multiplicity = 1

                          Input orientation:
 ---------------------------------------------------------------------
 Center     Atomic      Atomic             Coordinates (Angstroms)
 Number     Number       Type             X           Y           Z
 ---------------------------------------------------------------------
      1          8           0       -0.725131    1.796619   -0.145532
      2          6           0        0.335622    1.241560    0.177028
      3          7           0        0.493253    0.571467    1.337119
      4          6           0       -0.629465    0.172371    2.165870
      5          6           0       -0.181074    0.189966    3.617471
      6          8           0       -1.225728    0.218356    4.455158
      7          8           0        0.980666    0.118548    3.956863
      8          6           0       -1.141653   -1.285000    1.809106
      9          6           0       -0.884694   -1.608683    0.374038
     10          6           0       -1.389910   -1.071531   -0.784602
     11          7           0       -0.613617   -1.433911   -1.872170
     12          6           0        0.330701   -2.230917   -1.390493
     13          7           0        0.210925   -2.354205   -0.040458
     14          6           0        1.527295    1.197310   -0.780476
     15          6           0        1.199558    1.766482   -2.162966
     16          7           0       -0.118529    1.237247   -2.670991
     17          1           0        1.407412    0.234822    1.616335
     18          1           0       -1.437407    0.886422    2.004884
     19          1           0       -0.896767    0.175686    5.371149
     20          1           0       -2.206070   -1.341222    2.047400
     21          1           0       -0.634547   -2.016342    2.447018
     22          1           0       -2.235653   -0.407923   -0.884684
     23          1           0        1.091495   -2.737068   -1.966974
     24          1           0        0.781019   -2.944280    0.551032
     25          1           0        1.862236    0.158688   -0.867735
     26          1           0        2.366136    1.767903   -0.366265
     27          1           0        1.976344    1.502539   -2.881814
     28          1           0        1.100912    2.852680   -2.129839
     29          1           0       -0.192403    0.183530   -2.650135
     30          1           0       -0.330465    1.578230   -3.610124
     31          1           0       -0.820360    1.580868   -1.987015
 ---------------------------------------------------------------------

 SCF Done:  E(RB3LYP) =  -796.604934134     A.U. after    1 cycles

 Alpha  occ. eigenvalues --  -19.33287 -19.27902 -19.27893 -14.58658 -14.54050
 Alpha  occ. eigenvalues --  -14.51350 -14.47508 -10.45722 -10.45024 -10.40666
 Alpha  occ. eigenvalues --  -10.39116 -10.38368 -10.36670 -10.36374 -10.34739
 Alpha  occ. eigenvalues --  -10.34249  -1.24234  -1.19715  -1.16353  -1.15499
 Alpha  occ. eigenvalues --   -1.13673  -1.08110  -1.02083  -0.95301  -0.93127
 Alpha  occ. eigenvalues --   -0.88931  -0.82971  -0.81173  -0.76459  -0.75685
 Alpha  occ. eigenvalues --   -0.74157  -0.73293  -0.72369  -0.71563  -0.68495
 Alpha  occ. eigenvalues --   -0.66524  -0.64283  -0.63188  -0.62415  -0.61587
 Alpha  occ. eigenvalues --   -0.60363  -0.59284  -0.59054  -0.57987  -0.56314
 Alpha  occ. eigenvalues --   -0.55752  -0.55474  -0.54591  -0.54351  -0.53862
 Alpha  occ. eigenvalues --   -0.52901  -0.50932  -0.50607  -0.45388  -0.44095
 Alpha  occ. eigenvalues --   -0.42947  -0.42287  -0.41219  -0.40968  -0.36999
 Alpha virt. eigenvalues --   -0.14789  -0.14254  -0.13899  -0.12660  -0.11961
 Alpha virt. eigenvalues --   -0.10637  -0.10053  -0.09766  -0.08963  -0.08733
 Alpha virt. eigenvalues --   -0.08056  -0.07158  -0.06278  -0.05920  -0.05728

 Mulliken charges:
               1
     1  O   -0.466097
     2  C    0.016243
     3  N   -0.212693
     4  C   -0.414220
     5  C    0.619956
     6  O   -0.390522
     7  O   -0.403943
     8  C   -0.485342
     9  C    0.533808
    10  C   -0.325253
    11  N   -0.312474
    12  C    0.110019
    13  N   -0.318791
    14  C   -0.054696
    15  C   -0.277763
    16  N   -0.641759
    17  H    0.340477
    18  H    0.217644
    19  H    0.392978
    20  H    0.208144
    21  H    0.165071
    22  H    0.161036
    23  H    0.172187
    24  H    0.325320
    25  H    0.194516
    26  H    0.211114
    27  H    0.193598
    28  H    0.205375
    29  H    0.426608
    30  H    0.389860
    31  H    0.419602
 Sum of Mulliken charges =   1.00000

 Dipole moment (field-independent basis, Debye):
    X=              2.3588    Y=              0.1795    Z=             -3.4084  Tot=              4.1489
 Quadrupole moment (field-independent basis, Debye-Ang):
   XX=            -85.4075   YY=            -76.0567   ZZ=            -52.5157
   XY=             -0.3142   XZ=            -11.6930   YZ=            -16.5234

  Exact polarizability: 121.916  -3.275 117.580  -7.170  -7.341 162.814
 Approx polarizability: 207.503 -24.343 172.086   0.669 -14.781 222.124

                      1                      2                      3
                      A                      A                      A
 Frequencies --     31.0066                52.7279                90.1080
 Red. masses --      4.7160                 8.8080                 4.3280
 Frc consts  --      0.0027                 0.0144                 0.0207
 IR Inten    --      3.1475                 1.3234                 0.2493

                      4                      5                      6
                      A                      A                      A
 Frequencies --    109.2029               113.5707               128.1805
 Red. masses --      4.5319                 5.1123                 3.8895
 Frc consts  --      0.0318                 0.0389                 0.0377
 IR Inten    --     10.9118                 2.6456                 9.2691

                      7                      8                      9
                      A                      A                      A
 Frequencies --    142.5007               155.2403               183.3109
 Red. masses --      4.0526                 5.0760                 4.2333
 Frc consts  --      0.0485                 0.0721                 0.0838
 IR Inten    --     16.7945                 9.5504                15.5458

                     10                     11                     12
                      A                      A                      A
 Frequencies --    202.2021               260.2976               306.5506
 Red. masses --      2.3852                 4.4492                 5.7519
 Frc consts  --      0.0575                 0.1776                 0.3185
 IR Inten    --     29.3635                36.0937                 1.7527

                     13                     14                     15
                      A                      A                      A
 Frequencies --    313.7319               336.2321               351.4096
 Red. masses --      2.4343                 4.1488                 4.1229
 Frc consts  --      0.1412                 0.2763                 0.3000
 IR Inten    --      5.2982                10.8668                37.0258

                     16                     17                     18
                      A                      A                      A
 Frequencies --    410.5952               437.0885               462.1904
 Red. masses --      3.3147                 2.0742                 1.3684
 Frc consts  --      0.3292                 0.2335                 0.1722
 IR Inten    --      9.6126                14.1950                 1.3502

                     19                     20                     21
                      A                      A                      A
 Frequencies --    526.8050               551.1104               594.2912
 Red. masses --      1.9118                 3.7127                 1.7624
 Frc consts  --      0.3126                 0.6644                 0.3667
 IR Inten    --     86.8908                21.1203               109.2734

                     22                     23                     24
                      A                      A                      A
 Frequencies --    619.2334               624.7010               633.4183
 Red. masses --      1.8798                 1.3256                 2.9104
 Frc consts  --      0.4247                 0.3048                 0.6880
 IR Inten    --     10.5768                54.3748                78.9403

                     25                     26                     27
                      A                      A                      A
 Frequencies --    681.0472               687.5205               688.5435
 Red. masses --      2.7196                 2.5974                 3.0826
 Frc consts  --      0.7432                 0.7234                 0.8610
 IR Inten    --     59.2826                 9.1971                 0.7019

                     28                     29                     30
                      A                      A                      A
 Frequencies --    719.6898               770.4778               817.1083
 Red. masses --      3.2277                 4.2950                 1.4116
 Frc consts  --      0.9850                 1.5022                 0.5553
 IR Inten    --      8.2224                19.6221                14.0372

                     31                     32                     33
                      A                      A                      A
 Frequencies --    842.3992               854.4436               867.4529
 Red. masses --      2.3096                 1.9370                 1.6929
 Frc consts  --      0.9657                 0.8332                 0.7506
 IR Inten    --     14.1243                19.3531                16.8319

                     34                     35                     36
                      A                      A                      A
 Frequencies --    879.4930               933.0666               950.1018
 Red. masses --      2.3066                 2.6616                 5.0861
 Frc consts  --      1.0512                 1.3653                 2.7051
 IR Inten    --      3.3389                11.4355                 9.6252

                     37                     38                     39
                      A                      A                      A
 Frequencies --    959.5869               985.1700              1000.3375
 Red. masses --      3.6689                 1.5000                 3.0577
 Frc consts  --      1.9905                 0.8578                 1.8028
 IR Inten    --      1.9461                 2.6383                14.7516

                     40                     41                     42
                      A                      A                      A
 Frequencies --   1033.8968              1047.1981              1104.9941
 Red. masses --      3.2976                 3.0709                 2.0469
 Frc consts  --      2.0769                 1.9841                 1.4725
 IR Inten    --      5.4699                12.3825                12.1779

                     43                     44                     45
                      A                      A                      A
 Frequencies --   1127.7667              1138.1529              1141.3116
 Red. masses --      1.6005                 1.4991                 2.2420
 Frc consts  --      1.1994                 1.1442                 1.7207
 IR Inten    --    100.7561                11.9435                13.6227

                     46                     47                     48
                      A                      A                      A
 Frequencies --   1149.2515              1166.9219              1206.3088
 Red. masses --      1.4359                 1.8322                 1.7988
 Frc consts  --      1.1174                 1.4700                 1.5423
 IR Inten    --     40.3757               158.7380                42.9779

                     49                     50                     51
                      A                      A                      A
 Frequencies --   1251.9346              1258.8067              1278.0244
 Red. masses --      1.5478                 1.8931                 1.4666
 Frc consts  --      1.4293                 1.7674                 1.4114
 IR Inten    --      4.4715                10.5207                 3.2816

                     52                     53                     54
                      A                      A                      A
 Frequencies --   1286.5639              1301.4277              1340.6370
 Red. masses --      1.3236                 1.6025                 1.6953
 Frc consts  --      1.2908                 1.5992                 1.7953
 IR Inten    --     13.2680                 5.1345                 2.8326

                     55                     56                     57
                      A                      A                      A
 Frequencies --   1342.2837              1353.3177              1391.2219
 Red. masses --      1.2644                 1.2254                 1.6379
 Frc consts  --      1.3422                 1.3223                 1.8678
 IR Inten    --      9.7616                12.0886                63.0251

                     58                     59                     60
                      A                      A                      A
 Frequencies --   1399.4517              1424.5940              1426.4024
 Red. masses --      2.5342                 1.3559                 2.4589
 Frc consts  --      2.9242                 1.6213                 2.9476
 IR Inten    --      2.8237                 9.2751               173.4571

                     61                     62                     63
                      A                      A                      A
 Frequencies --   1444.1715              1468.9449              1490.5783
 Red. masses --      2.6825                 1.1020                 1.1762
 Frc consts  --      3.2963                 1.4010                 1.5398
 IR Inten    --     24.7945                19.6790                14.6125

                     64                     65                     66
                      A                      A                      A
 Frequencies --   1500.7635              1506.1010              1514.1301
 Red. masses --      1.9468                 1.2486                 1.2782
 Frc consts  --      2.5834                 1.6687                 1.7266
 IR Inten    --     25.5024                51.0745               170.7382

                     67                     68                     69
                      A                      A                      A
 Frequencies --   1566.6094              1622.8586              1646.2350
 Red. masses --      2.2562                 4.1716                 1.1136
 Frc consts  --      3.2625                 6.4731                 1.7782
 IR Inten    --    190.7823                14.4755                42.7731

                     70                     71                     72
                      A                      A                      A
 Frequencies --   1705.9880              1722.4829              1819.7599
 Red. masses --      1.3284                 2.5679                10.2733
 Frc consts  --      2.2778                 4.4889                20.0441
 IR Inten    --    285.9595                53.4308               278.1568

                     73                     74                     75
                      A                      A                      A
 Frequencies --   2908.9333              3066.9560              3069.0586
 Red. masses --      1.0819                 1.0613                 1.0658
 Frc consts  --      5.3937                 5.8816                 5.9150
 IR Inten    --    868.3372                 3.5265                 9.4199

                     76                     77                     78
                      A                      A                      A
 Frequencies --   3105.7949              3113.3354              3129.3663
 Red. masses --      1.0793                 1.0834                 1.0981
 Frc consts  --      6.1337                 6.1872                 6.3359
 IR Inten    --      2.6929                 3.3150                 1.7114

                     79                     80                     81
                      A                      A                      A
 Frequencies --   3147.2706              3167.0550              3230.5156
 Red. masses --      1.0883                 1.1106                 1.0690
 Frc consts  --      6.3515                 6.5630                 6.5729
 IR Inten    --      3.3340                 3.1436               208.4087

                     82                     83                     84
                      A                      A                      A
 Frequencies --   3272.3944              3276.5563              3519.8849
 Red. masses --      1.0962                 1.1012                 1.0798
 Frc consts  --      6.9162                 6.9655                 7.8819
 IR Inten    --      0.8479                 5.0679               118.0116

                     85                     86                     87
                      A                      A                      A
 Frequencies --   3599.9341              3640.6706              3734.6280
 Red. masses --      1.0781                 1.0823                 1.0647
 Frc consts  --      8.2321                 8.4518                 8.7495
 IR Inten    --     70.2927                86.3144               134.5472

 - Thermochemistry -
 -------------------
 Temperature   298.150 Kelvin.  Pressure   1.00000 Atm.
 Atom     1 has atomic number  8 and mass  15.99491

 Molecular mass:   227.11442 amu.
 Principal axes and moments of inertia in atomic units:
                           1         2         3
     Eigenvalues --  2153.253154575.863215625.51510
           X           -0.09921   0.28659   0.95290
           Y           -0.04350   0.95546  -0.29189
           Z            0.99412   0.07041   0.08233
 This molecule is an asymmetric top.
 Rotational symmetry number  1.
 Warning -- assumption of classical behavior for rotation
           may cause significant error
 Rotational temperatures (Kelvin)      0.04022     0.01893     0.01540
 Rotational constants (GHZ):           0.83815     0.39440     0.32081
 Zero-point vibrational energy     684464.9 (Joules/Mol)
                                  163.59103 (Kcal/Mol)
 Warning -- explicit consideration of  22 degrees of freedom as
           vibrations may cause significant error
 Vibrational temperatures:     44.61    75.86   129.65   157.12   163.40
          (Kelvin)            184.42   205.03   223.36   263.74   290.92
                              374.51   441.06   451.39   483.76   505.60
                              590.75   628.87   664.99   757.95   792.92
                              855.05   890.94   898.80   911.35   979.87
                              989.19   990.66  1035.47  1108.54  1175.64
                             1212.02  1229.35  1248.07  1265.39  1342.47
                             1366.98  1380.63  1417.44  1439.26  1487.55
                             1506.68  1589.84  1622.60  1637.55  1642.09
                             1653.51  1678.94  1735.61  1801.25  1811.14
                             1838.79  1851.08  1872.46  1928.88  1931.24
                             1947.12  2001.66  2013.50  2049.67  2052.27
                             2077.84  2113.48  2144.61  2159.26  2166.94
                             2178.49  2254.00  2334.93  2368.56  2454.53
                             2478.27  2618.23  4185.30  4412.66  4415.69
                             4468.54  4479.39  4502.45  4528.21  4556.68
                             4647.99  4708.24  4714.23  5064.32  5179.50
                             5238.11  5373.29

 Zero-point correction=                           0.260699 (Hartree/Particle)
 Thermal correction to Energy=                    0.275837
 Thermal correction to Enthalpy=                  0.276781
 Thermal correction to Gibbs Free Energy=         0.217945
 Sum of electronic and zero-point Energies=           -796.344235
 Sum of electronic and thermal Energies=              -796.329097
 Sum of electronic and thermal Enthalpies=            -796.328153
 Sum of electronic and thermal Free Energies=         -796.386989

                     E (Thermal)             CV                S
                      KCal/Mol        Cal/Mol-Kelvin    Cal/Mol-Kelvin
 Total                  173.090             57.569            123.831
 Electronic               0.000              0.000              0.000
 Translational            0.889              2.981             42.163
 Rotational               0.889              2.981             32.383
 Vibrational            171.313             51.608             49.284
 Vibration     1          0.594              1.984              5.764
 Vibration     2          0.596              1.977              4.712
 Vibration     3          0.602              1.956              3.658
 Vibration     4          0.606              1.942              3.283
 Vibration     5          0.607              1.938              3.207
 Vibration     6          0.611              1.925              2.973
 Vibration     7          0.616              1.911              2.770
 Vibration     8          0.620              1.897              2.607
 Vibration     9          0.631              1.863              2.294
 Vibration    10          0.639              1.837              2.113
 Vibration    11          0.668              1.745              1.660
 Vibration    12          0.697              1.661              1.381
 Vibration    13          0.702              1.647              1.343
 Vibration    14          0.717              1.603              1.230
 Vibration    15          0.728              1.572              1.160
 Vibration    16          0.775              1.447              0.925
 Vibration    17          0.797              1.389              0.836
 Vibration    18          0.820              1.334              0.760
 Vibration    19          0.882              1.191              0.594
 Vibration    20          0.906              1.137              0.542
 Vibration    21          0.952              1.044              0.460
 Vibration    22          0.979              0.991              0.418

 Optimization completed.
    -- Stationary point found.
 Normal termination of Gaussian 09 at Sat Jul 24 03:25:04 2021.
