 Gaussian 09, Revision D.01,
 Gaussian 09:  ES64L-G09RevD.01 24-Apr-2013

 ----------------------------------------------------------------------
 # B3LYP/6-31+G(d,p) EmpiricalDispersion=GD3BJ opt=calcfc freq=noraman
 nosymm integral(ultrafinegrid)
 ----------------------------------------------------------------------

 ------------------------------------------------------------
 Candidate Structure: Conf:580 OPT and FREQ calc in gas phase
 ------------------------------------------------------------
 Symbolic Z-matrix:
 Charge =  1 Multiplicity = 1

 SCF Done:  E(RB3LYP) =  -796.556194525     A.U. after   17 cycles
 SCF Done:  E(RB3LYP) =  -796.562042132     A.U. after   15 cycles
 SCF Done:  E(RB3LYP) =  -796.562362491     A.U. after   16 cycles
 SCF Done:  E(RB3LYP) =  -796.563037766     A.U. after   16 cycles
 SCF Done:  E(RB3LYP) =  -796.563271530     A.U. after   13 cycles
 SCF Done:  E(RB3LYP) =  -796.563365309     A.U. after   12 cycles
 SCF Done:  E(RB3LYP) =  -796.563380618     A.U. after   12 cycles
 SCF Done:  E(RB3LYP) =  -796.563386880     A.U. after   11 cycles
 SCF Done:  E(RB3LYP) =  -796.563390173     A.U. after   11 cycles
 SCF Done:  E(RB3LYP) =  -796.563390529     A.U. after   10 cycles
 SCF Done:  E(RB3LYP) =  -796.563390579     A.U. after    9 cycles
 SCF Done:  E(RB3LYP) =  -796.563390584     A.U. after    8 cycles
 Optimization completed.
    -- Stationary point found.
 Normal termination of Gaussian 09 at Sat Jul 24 02:03:09 2021.

 ----------------------------------------------------------------------
 #N Geom=AllCheck Guess=TCheck SCRF=Check GenChk RB3LYP/6-31+G(d,p) Fre
 q
 ----------------------------------------------------------------------

 Structure from the checkpoint file:  "conf-580.chk"
 ------------------------------------------------------------
 Candidate Structure: Conf:580 OPT and FREQ calc in gas phase
 ------------------------------------------------------------
 Charge =  1 Multiplicity = 1

                          Input orientation:
 ---------------------------------------------------------------------
 Center     Atomic      Atomic             Coordinates (Angstroms)
 Number     Number       Type             X           Y           Z
 ---------------------------------------------------------------------
      1          8           0        1.337757    0.301493   -1.261560
      2          6           0        1.483332    0.308207   -0.039585
      3          7           0        0.476773    0.361122    0.848354
      4          6           0       -0.925038    0.372350    0.444465
      5          6           0       -1.704560    0.933815    1.623175
      6          8           0       -2.865434    1.474173    1.250776
      7          8           0       -1.304375    0.866524    2.769651
      8          6           0       -1.404836   -1.068764    0.083357
      9          6           0       -2.834361   -1.165713   -0.317973
     10          6           0       -3.940014   -1.642445    0.350029
     11          7           0       -5.080476   -1.474368   -0.403270
     12          6           0       -4.683984   -0.900936   -1.519561
     13          7           0       -3.330455   -0.687588   -1.520733
     14          6           0        2.900452    0.232234    0.563750
     15          6           0        3.860241    0.869608   -0.430149
     16          7           0        5.308346    0.537572   -0.084495
     17          1           0        0.639397    0.372221    1.850404
     18          1           0       -1.040257    1.026625   -0.422599
     19          1           0       -3.362131    1.738069    2.045971
     20          1           0       -1.242371   -1.706925    0.957459
     21          1           0       -0.739235   -1.423582   -0.711447
     22          1           0       -3.971643   -2.099360    1.329750
     23          1           0       -5.315489   -0.626366   -2.352439
     24          1           0       -2.792913   -0.292693   -2.278715
     25          1           0        3.135087   -0.832273    0.699677
     26          1           0        2.947695    0.716243    1.544923
     27          1           0        3.672114    0.491750   -1.436024
     28          1           0        3.788219    1.958536   -0.440681
     29          1           0        5.957614    0.960877   -0.756688
     30          1           0        5.564010    0.875863    0.849499
     31          1           0        5.466727   -0.476120   -0.098128
 ---------------------------------------------------------------------

 SCF Done:  E(RB3LYP) =  -796.563390585     A.U. after    1 cycles

 Alpha  occ. eigenvalues --  -19.31637 -19.26445 -19.26436 -14.66965 -14.50423
 Alpha  occ. eigenvalues --  -14.47348 -14.39144 -10.44173 -10.44094 -10.43742
 Alpha  occ. eigenvalues --  -10.37983 -10.36415 -10.31716 -10.31241 -10.30490
 Alpha  occ. eigenvalues --  -10.27707  -1.22759  -1.20920  -1.18310  -1.13977
 Alpha  occ. eigenvalues --   -1.09274  -1.06856  -0.97095  -0.95021  -0.91220
 Alpha  occ. eigenvalues --   -0.85736  -0.83259  -0.79294  -0.78772  -0.77880
 Alpha  occ. eigenvalues --   -0.74392  -0.71696  -0.69571  -0.69185  -0.67040
 Alpha  occ. eigenvalues --   -0.65541  -0.64510  -0.62385  -0.61136  -0.60071
 Alpha  occ. eigenvalues --   -0.58972  -0.58303  -0.57580  -0.55839  -0.54373
 Alpha  occ. eigenvalues --   -0.53847  -0.52902  -0.51462  -0.51057  -0.49953
 Alpha  occ. eigenvalues --   -0.48753  -0.48424  -0.47557  -0.43745  -0.40913
 Alpha  occ. eigenvalues --   -0.40069  -0.39639  -0.35948  -0.34292  -0.30609
 Alpha virt. eigenvalues --   -0.20267  -0.14354  -0.13732  -0.13254  -0.11852
 Alpha virt. eigenvalues --   -0.11414  -0.10085  -0.08907  -0.08238  -0.07613
 Alpha virt. eigenvalues --   -0.07226  -0.06890  -0.06143  -0.05715  -0.05393

 Mulliken charges:
               1
     1  O   -0.483906
     2  C    0.315844
     3  N   -0.189678
     4  C   -0.497371
     5  C    0.434300
     6  O   -0.377111
     7  O   -0.435770
     8  C   -0.740498
     9  C    0.750030
    10  C   -0.155979
    11  N   -0.257685
    12  C    0.239358
    13  N   -0.351503
    14  C   -0.308766
    15  C   -0.232147
    16  N   -0.600397
    17  H    0.335459
    18  H    0.192697
    19  H    0.386645
    20  H    0.173074
    21  H    0.180324
    22  H    0.132283
    23  H    0.148832
    24  H    0.301139
    25  H    0.191774
    26  H    0.177705
    27  H    0.246224
    28  H    0.214266
    29  H    0.405749
    30  H    0.403107
    31  H    0.402004
 Sum of Mulliken charges =   1.00000

 Dipole moment (field-independent basis, Debye):
    X=             22.2285    Y=              3.8231    Z=              0.1004  Tot=             22.5551
 Quadrupole moment (field-independent basis, Debye-Ang):
   XX=             19.3181   YY=            -89.5061   ZZ=            -87.8086
   XY=              1.3364   XZ=              5.2517   YZ=              0.1817

  Exact polarizability: 186.841   8.322 103.709   4.048  -1.959 134.511
 Approx polarizability: 228.610   3.426 153.735   3.409 -14.120 222.326

                      1                      2                      3
                      A                      A                      A
 Frequencies --     13.9910                23.7269                39.5915
 Red. masses --      5.2722                 3.4889                 1.9847
 Frc consts  --      0.0006                 0.0012                 0.0018
 IR Inten    --      0.7237                 2.7041                10.7287

                      4                      5                      6
                      A                      A                      A
 Frequencies --     49.7463                65.8834                70.8454
 Red. masses --      5.3711                 5.1995                 6.1250
 Frc consts  --      0.0078                 0.0133                 0.0181
 IR Inten    --      8.3545                 6.6210                 5.7288

                      7                      8                      9
                      A                      A                      A
 Frequencies --     76.0396               104.5000               116.7347
 Red. masses --      6.4443                 4.0642                 4.4172
 Frc consts  --      0.0220                 0.0261                 0.0355
 IR Inten    --      7.5621                 3.3484                10.1967

                     10                     11                     12
                      A                      A                      A
 Frequencies --    179.2760               217.0442               238.0123
 Red. masses --      5.2075                 2.3572                 1.3983
 Frc consts  --      0.0986                 0.0654                 0.0467
 IR Inten    --      5.5098                11.1925                 2.1685

                     13                     14                     15
                      A                      A                      A
 Frequencies --    263.3399               316.8900               332.4221
 Red. masses --      5.5158                 6.4869                 2.1299
 Frc consts  --      0.2254                 0.3838                 0.1387
 IR Inten    --      9.9429                 9.2007                 4.3587

                     16                     17                     18
                      A                      A                      A
 Frequencies --    343.9019               366.8961               389.3974
 Red. masses --      6.5886                 3.7279                 3.8419
 Frc consts  --      0.4591                 0.2957                 0.3432
 IR Inten    --     11.1852                 8.0104                 5.8767

                     19                     20                     21
                      A                      A                      A
 Frequencies --    515.1759               531.4490               559.3252
 Red. masses --      1.4116                 3.4194                 1.9013
 Frc consts  --      0.2207                 0.5690                 0.3504
 IR Inten    --     70.0648                62.9956                19.6764

                     22                     23                     24
                      A                      A                      A
 Frequencies --    610.2732               627.9929               649.6544
 Red. masses --      1.2477                 4.2177                 1.6677
 Frc consts  --      0.2738                 0.9800                 0.4147
 IR Inten    --    119.1830                 8.9080                29.2929

                     25                     26                     27
                      A                      A                      A
 Frequencies --    660.7444               673.0310               717.5620
 Red. masses --      2.6684                 3.1455                 3.7617
 Frc consts  --      0.6864                 0.8395                 1.1412
 IR Inten    --     37.0644                 9.6657                 0.7520

                     28                     29                     30
                      A                      A                      A
 Frequencies --    749.1275               769.3002               794.9457
 Red. masses --      3.6025                 3.6674                 1.3687
 Frc consts  --      1.1912                 1.2788                 0.5096
 IR Inten    --     17.2991                 9.4263                15.1495

                     31                     32                     33
                      A                      A                      A
 Frequencies --    818.6300               821.5980               855.1875
 Red. masses --      1.7983                 1.6820                 1.4253
 Frc consts  --      0.7101                 0.6690                 0.6141
 IR Inten    --     14.5618                10.5019                20.0130

                     34                     35                     36
                      A                      A                      A
 Frequencies --    887.5291               918.3419               933.7704
 Red. masses --      2.7118                 1.2704                 5.2499
 Frc consts  --      1.2586                 0.6312                 2.6970
 IR Inten    --     35.9670                 4.9200                 2.1384

                     37                     38                     39
                      A                      A                      A
 Frequencies --    937.5303               985.8928               998.2275
 Red. masses --      3.9507                 2.1026                 3.4546
 Frc consts  --      2.0459                 1.2041                 2.0282
 IR Inten    --     23.5314                10.5819                29.6083

                     40                     41                     42
                      A                      A                      A
 Frequencies --   1025.1075              1034.1599              1085.6009
 Red. masses --      3.0847                 3.1899                 2.1202
 Frc consts  --      1.9099                 2.0100                 1.4722
 IR Inten    --     24.9499                 5.5098                22.7447

                     43                     44                     45
                      A                      A                      A
 Frequencies --   1111.5911              1113.3376              1147.6614
 Red. masses --      1.6745                 1.9433                 2.3067
 Frc consts  --      1.2190                 1.4192                 1.7901
 IR Inten    --     15.4876                31.3236                 9.9333

                     46                     47                     48
                      A                      A                      A
 Frequencies --   1154.6593              1168.3935              1197.6901
 Red. masses --      2.0393                 1.5316                 1.8497
 Frc consts  --      1.6019                 1.2319                 1.5633
 IR Inten    --     25.6971                38.8633               110.3176

                     49                     50                     51
                      A                      A                      A
 Frequencies --   1240.3771              1269.0768              1278.5372
 Red. masses --      1.4570                 2.2104                 1.4206
 Frc consts  --      1.3207                 2.0975                 1.3682
 IR Inten    --     10.7860                 8.4686                 3.1373

                     52                     53                     54
                      A                      A                      A
 Frequencies --   1290.0211              1298.9018              1324.7639
 Red. masses --      1.3004                 1.3752                 1.2721
 Frc consts  --      1.2750                 1.3670                 1.3154
 IR Inten    --      1.8091                 2.4499                13.9693

                     55                     56                     57
                      A                      A                      A
 Frequencies --   1328.7281              1354.7185              1363.7008
 Red. masses --      1.3941                 1.3183                 1.4401
 Frc consts  --      1.4502                 1.4255                 1.5779
 IR Inten    --      2.8427                 3.6596                20.3502

                     58                     59                     60
                      A                      A                      A
 Frequencies --   1395.5797              1408.2749              1435.7118
 Red. masses --      3.3206                 1.3603                 2.8861
 Frc consts  --      3.8105                 1.5895                 3.5050
 IR Inten    --      6.5286                17.9279                52.3503

                     61                     62                     63
                      A                      A                      A
 Frequencies --   1441.7200              1483.8376              1486.6124
 Red. masses --      3.0014                 1.1175                 1.1368
 Frc consts  --      3.6757                 1.4497                 1.4802
 IR Inten    --    168.7446                 1.3549                10.5031

                     64                     65                     66
                      A                      A                      A
 Frequencies --   1505.2565              1509.1070              1520.5378
 Red. masses --      3.5501                 1.0761                 1.1733
 Frc consts  --      4.7392                 1.4440                 1.5983
 IR Inten    --     32.5576                13.3435               191.4037

                     67                     68                     69
                      A                      A                      A
 Frequencies --   1555.5071              1617.7402              1668.4655
 Red. masses --      2.4359                 4.5849                 1.0422
 Frc consts  --      3.4725                 7.0696                 1.7094
 IR Inten    --    291.6974                 5.9979                51.7008

                     70                     71                     72
                      A                      A                      A
 Frequencies --   1671.6849              1747.8788              1804.9682
 Red. masses --      1.0438                10.1234                 9.8227
 Frc consts  --      1.7187                18.2222                18.8547
 IR Inten    --     42.7638               348.1159               279.1542

                     73                     74                     75
                      A                      A                      A
 Frequencies --   3038.7538              3054.1410              3099.0027
 Red. masses --      1.0631                 1.0612                 1.1014
 Frc consts  --      5.7837                 5.8319                 6.2324
 IR Inten    --      4.1410                15.2365                 5.7973

                     76                     77                     78
                      A                      A                      A
 Frequencies --   3103.7538              3113.9873              3120.1094
 Red. masses --      1.0984                 1.0600                 1.0907
 Frc consts  --      6.2341                 6.0562                 6.2560
 IR Inten    --      3.5603                 4.0530                 3.9840

                     79                     80                     81
                      A                      A                      A
 Frequencies --   3179.6106              3251.1926              3269.6724
 Red. masses --      1.1120                 1.0969                 1.0983
 Frc consts  --      6.6236                 6.8311                 6.9181
 IR Inten    --      2.8897                 4.0179                 0.9808

                     82                     83                     84
                      A                      A                      A
 Frequencies --   3400.6698              3492.4925              3494.5917
 Red. masses --      1.0304                 1.0935                 1.0938
 Frc consts  --      7.0208                 7.8584                 7.8699
 IR Inten    --     55.1918                94.9523                94.1493

                     85                     86                     87
                      A                      A                      A
 Frequencies --   3570.9134              3655.7208              3736.7106
 Red. masses --      1.0787                 1.0816                 1.0647
 Frc consts  --      8.1044                 8.5161                 8.7588
 IR Inten    --    107.1496                48.2842               109.9572

 - Thermochemistry -
 -------------------
 Temperature   298.150 Kelvin.  Pressure   1.00000 Atm.
 Atom     1 has atomic number  8 and mass  15.99491

 Molecular mass:   227.11442 amu.
 Principal axes and moments of inertia in atomic units:
                           1         2         3
     Eigenvalues --  1633.841988130.767549122.67578
           X            0.98470  -0.10201  -0.14125
           Y            0.17223   0.44737   0.87761
           Z            0.02633   0.88851  -0.45809
 This molecule is an asymmetric top.
 Rotational symmetry number  1.
 Warning -- assumption of classical behavior for rotation
           may cause significant error
 Rotational temperatures (Kelvin)      0.05301     0.01065     0.00949
 Rotational constants (GHZ):           1.10460     0.22196     0.19783
 Zero-point vibrational energy     680942.9 (Joules/Mol)
                                  162.74925 (Kcal/Mol)
 Warning -- explicit consideration of  22 degrees of freedom as
           vibrations may cause significant error
 Vibrational temperatures:     20.13    34.14    56.96    71.57    94.79
          (Kelvin)            101.93   109.40   150.35   167.95   257.94
                              312.28   342.45   378.89   455.93   478.28
                              494.80   527.88   560.26   741.22   764.64
                              804.74   878.05   903.54   934.71   950.66
                              968.34  1032.41  1077.83  1106.85  1143.75
                             1177.82  1182.09  1230.42  1276.95  1321.29
                             1343.49  1348.90  1418.48  1436.22  1474.90
                             1487.92  1561.94  1599.33  1601.84  1651.23
                             1661.30  1681.06  1723.21  1784.62  1825.92
                             1839.53  1856.05  1868.83  1906.04  1911.74
                             1949.14  1962.06  2007.93  2026.19  2065.67
                             2074.31  2134.91  2138.90  2165.73  2171.27
                             2187.71  2238.03  2327.56  2400.55  2405.18
                             2514.80  2596.94  4372.08  4394.22  4458.77
                             4465.60  4480.33  4489.14  4574.74  4677.74
                             4704.32  4892.80  5024.91  5027.93  5137.74
                             5259.76  5376.29

 Zero-point correction=                           0.259357 (Hartree/Particle)
 Thermal correction to Energy=                    0.275926
 Thermal correction to Enthalpy=                  0.276870
 Thermal correction to Gibbs Free Energy=         0.211088
 Sum of electronic and zero-point Energies=           -796.304033
 Sum of electronic and thermal Energies=              -796.287465
 Sum of electronic and thermal Enthalpies=            -796.286520
 Sum of electronic and thermal Free Energies=         -796.352302

                     E (Thermal)             CV                S
                      KCal/Mol        Cal/Mol-Kelvin    Cal/Mol-Kelvin
 Total                  173.146             59.109            138.449
 Electronic               0.000              0.000              0.000
 Translational            0.889              2.981             42.163
 Rotational               0.889              2.981             33.160
 Vibrational            171.369             53.148             63.126
 Vibration     1          0.593              1.986              7.344
 Vibration     2          0.593              1.985              6.295
 Vibration     3          0.594              1.981              5.279
 Vibration     4          0.595              1.978              4.827
 Vibration     5          0.597              1.971              4.273
 Vibration     6          0.598              1.968              4.130
 Vibration     7          0.599              1.965              3.991
 Vibration     8          0.605              1.946              3.369
 Vibration     9          0.608              1.935              3.154
 Vibration    10          0.629              1.868              2.336
 Vibration    11          0.646              1.815              1.984
 Vibration    12          0.656              1.782              1.818
 Vibration    13          0.670              1.740              1.640
 Vibration    14          0.704              1.641              1.326
 Vibration    15          0.714              1.611              1.248
 Vibration    16          0.723              1.588              1.194
 Vibration    17          0.740              1.540              1.093
 Vibration    18          0.757              1.493              1.002
 Vibration    19          0.870              1.216              0.621
 Vibration    20          0.886              1.180              0.584
 Vibration    21          0.915              1.119              0.525
 Vibration    22          0.969              1.010              0.432

 Optimization completed.
    -- Stationary point found.
 Normal termination of Gaussian 09 at Sat Jul 24 02:43:04 2021.
