 Gaussian 09, Revision D.01,
 Gaussian 09:  ES64L-G09RevD.01 24-Apr-2013

 ----------------------------------------------------------------------
 # B3LYP/6-31+G(d,p) EmpiricalDispersion=GD3BJ opt=calcfc freq=noraman
 nosymm integral(ultrafinegrid)
 ----------------------------------------------------------------------

 ------------------------------------------------------------
 Candidate Structure: Conf:342 OPT and FREQ calc in gas phase
 ------------------------------------------------------------
 Symbolic Z-matrix:
 Charge =  1 Multiplicity = 1

 SCF Done:  E(RB3LYP) =  -796.551901015     A.U. after   17 cycles
 SCF Done:  E(RB3LYP) =  -796.557605227     A.U. after   13 cycles
 SCF Done:  E(RB3LYP) =  -796.558497762     A.U. after   13 cycles
 SCF Done:  E(RB3LYP) =  -796.558974881     A.U. after   13 cycles
 SCF Done:  E(RB3LYP) =  -796.559575258     A.U. after   12 cycles
 SCF Done:  E(RB3LYP) =  -796.560421087     A.U. after   13 cycles
 SCF Done:  E(RB3LYP) =  -796.560614588     A.U. after   12 cycles
 SCF Done:  E(RB3LYP) =  -796.560819420     A.U. after   12 cycles
 SCF Done:  E(RB3LYP) =  -796.560870059     A.U. after   11 cycles
 SCF Done:  E(RB3LYP) =  -796.560875979     A.U. after   10 cycles
 SCF Done:  E(RB3LYP) =  -796.560877430     A.U. after   10 cycles
 SCF Done:  E(RB3LYP) =  -796.560877667     A.U. after    9 cycles
 SCF Done:  E(RB3LYP) =  -796.560877697     A.U. after    8 cycles
 SCF Done:  E(RB3LYP) =  -796.560877700     A.U. after    8 cycles
 Optimization completed.
    -- Stationary point found.
 Normal termination of Gaussian 09 at Sat Jul 24 02:09:19 2021.

 ----------------------------------------------------------------------
 #N Geom=AllCheck Guess=TCheck SCRF=Check GenChk RB3LYP/6-31+G(d,p) Fre
 q
 ----------------------------------------------------------------------

 Structure from the checkpoint file:  "conf-342.chk"
 ------------------------------------------------------------
 Candidate Structure: Conf:342 OPT and FREQ calc in gas phase
 ------------------------------------------------------------
 Charge =  1 Multiplicity = 1

                          Input orientation:
 ---------------------------------------------------------------------
 Center     Atomic      Atomic             Coordinates (Angstroms)
 Number     Number       Type             X           Y           Z
 ---------------------------------------------------------------------
      1          8           0        1.041959   -1.227615    0.105991
      2          6           0        1.408741   -0.097021   -0.219454
      3          7           0        0.578289    0.916130   -0.514706
      4          6           0       -0.859140    0.723645   -0.632626
      5          6           0       -1.380339    1.914102   -1.454172
      6          8           0       -2.692228    1.967985   -1.673420
      7          8           0       -0.623657    2.759693   -1.883893
      8          6           0       -1.552026    0.592345    0.755117
      9          6           0       -2.915566   -0.007981    0.661278
     10          6           0       -4.187484    0.526468    0.744519
     11          7           0       -5.142706   -0.449834    0.558058
     12          6           0       -4.474544   -1.565749    0.364121
     13          7           0       -3.120927   -1.356080    0.407809
     14          6           0        2.910791    0.226090   -0.327639
     15          6           0        3.665532   -0.716928    0.597304
     16          7           0        5.164842   -0.665676    0.320741
     17          1           0        0.912252    1.795517   -0.904426
     18          1           0       -1.043584   -0.196819   -1.200268
     19          1           0       -3.184946    1.287971   -1.167628
     20          1           0       -1.614545    1.575749    1.230053
     21          1           0       -0.907444   -0.033459    1.379281
     22          1           0       -4.461511    1.551534    0.955977
     23          1           0       -4.905906   -2.540884    0.187637
     24          1           0       -2.401804   -2.061605    0.325896
     25          1           0        3.107144    1.276452   -0.088080
     26          1           0        3.202330    0.058561   -1.373521
     27          1           0        3.342727   -1.747268    0.443660
     28          1           0        3.537766   -0.459652    1.650127
     29          1           0        5.371005   -0.938419   -0.646770
     30          1           0        5.544885    0.276810    0.460985
     31          1           0        5.679820   -1.303119    0.938040
 ---------------------------------------------------------------------

 SCF Done:  E(RB3LYP) =  -796.560877700     A.U. after    1 cycles

 Alpha  occ. eigenvalues --  -19.30525 -19.27006 -19.25591 -14.67191 -14.50468
 Alpha  occ. eigenvalues --  -14.49384 -14.41194 -10.44465 -10.44050 -10.43739
 Alpha  occ. eigenvalues --  -10.38219 -10.37043 -10.33827 -10.32962 -10.32372
 Alpha  occ. eigenvalues --  -10.30156  -1.21649  -1.21149  -1.18735  -1.13638
 Alpha  occ. eigenvalues --   -1.11443  -1.07060  -0.97443  -0.97054  -0.91916
 Alpha  occ. eigenvalues --   -0.86629  -0.83798  -0.79517  -0.79319  -0.78119
 Alpha  occ. eigenvalues --   -0.73827  -0.71827  -0.71137  -0.69872  -0.69130
 Alpha  occ. eigenvalues --   -0.67923  -0.65340  -0.64172  -0.61356  -0.60793
 Alpha  occ. eigenvalues --   -0.58856  -0.57912  -0.57297  -0.55603  -0.55286
 Alpha  occ. eigenvalues --   -0.54553  -0.53603  -0.52385  -0.51313  -0.51191
 Alpha  occ. eigenvalues --   -0.50526  -0.49353  -0.48108  -0.42945  -0.41101
 Alpha  occ. eigenvalues --   -0.40431  -0.39389  -0.38052  -0.36219  -0.33177
 Alpha virt. eigenvalues --   -0.20453  -0.14521  -0.13942  -0.13403  -0.12353
 Alpha virt. eigenvalues --   -0.11024  -0.10070  -0.09293  -0.08865  -0.08118
 Alpha virt. eigenvalues --   -0.07492  -0.07173  -0.06323  -0.05989  -0.05610

 Mulliken charges:
               1
     1  O   -0.506329
     2  C    0.530394
     3  N   -0.217794
     4  C   -0.571981
     5  C    0.462270
     6  O   -0.365244
     7  O   -0.443094
     8  C   -0.680839
     9  C    0.482469
    10  C   -0.144900
    11  N   -0.243528
    12  C    0.267778
    13  N   -0.311724
    14  C   -0.396895
    15  C   -0.189846
    16  N   -0.601200
    17  H    0.340002
    18  H    0.193038
    19  H    0.355583
    20  H    0.181448
    21  H    0.183608
    22  H    0.158212
    23  H    0.157136
    24  H    0.312969
    25  H    0.183569
    26  H    0.195015
    27  H    0.244055
    28  H    0.213865
    29  H    0.402441
    30  H    0.403655
    31  H    0.405868
 Sum of Mulliken charges =   1.00000

 Dipole moment (field-independent basis, Debye):
    X=             22.0271    Y=             -4.4603    Z=              2.4702  Tot=             22.6095
 Quadrupole moment (field-independent basis, Debye-Ang):
   XX=             12.7656   YY=            -91.6391   ZZ=            -94.8523
   XY=             -4.2584   XZ=              5.9123   YZ=              7.7178

  Exact polarizability: 184.606   3.930 135.875  -2.738 -10.843 101.927
 Approx polarizability: 232.114   6.484 220.054  -3.837 -10.949 151.924

                      1                      2                      3
                      A                      A                      A
 Frequencies --     20.1707                27.5225                40.6692
 Red. masses --      2.4375                 4.3179                 2.6630
 Frc consts  --      0.0006                 0.0019                 0.0026
 IR Inten    --      1.3142                 2.3732                 8.5917

                      4                      5                      6
                      A                      A                      A
 Frequencies --     58.9007                71.5762                84.3390
 Red. masses --      5.1544                 4.4736                 6.2792
 Frc consts  --      0.0105                 0.0135                 0.0263
 IR Inten    --      1.8282                 5.2509                15.2096

                      7                      8                      9
                      A                      A                      A
 Frequencies --     99.7548               106.5805               149.2495
 Red. masses --      7.8777                 5.7799                 4.1189
 Frc consts  --      0.0462                 0.0387                 0.0541
 IR Inten    --      3.1842                12.3260                 8.9060

                     10                     11                     12
                      A                      A                      A
 Frequencies --    190.6082               213.2952               235.5186
 Red. masses --      5.0919                 3.1599                 1.2363
 Frc consts  --      0.1090                 0.0847                 0.0404
 IR Inten    --      1.0705                26.8984                 2.8465

                     13                     14                     15
                      A                      A                      A
 Frequencies --    273.1691               332.8359               335.6184
 Red. masses --      5.6826                 2.1502                 7.4076
 Frc consts  --      0.2498                 0.1403                 0.4916
 IR Inten    --     13.0473                 3.3531                 4.9769

                     16                     17                     18
                      A                      A                      A
 Frequencies --    347.9051               379.1260               386.5109
 Red. masses --      5.0093                 3.6682                 4.4360
 Frc consts  --      0.3572                 0.3107                 0.3905
 IR Inten    --      4.0443                20.6600                11.6170

                     19                     20                     21
                      A                      A                      A
 Frequencies --    543.0304               550.9394               589.6008
 Red. masses --      2.3394                 2.0054                 2.3043
 Frc consts  --      0.4064                 0.3586                 0.4720
 IR Inten    --     56.4219                23.0824                 7.9277

                     22                     23                     24
                      A                      A                      A
 Frequencies --    616.5022               653.8916               659.1204
 Red. masses --      3.2415                 1.6181                 1.7740
 Frc consts  --      0.7259                 0.4076                 0.4541
 IR Inten    --     56.5222                29.9305                62.7807

                     25                     26                     27
                      A                      A                      A
 Frequencies --    669.0588               680.5834               718.4703
 Red. masses --      2.6568                 2.4170                 2.4251
 Frc consts  --      0.7007                 0.6596                 0.7376
 IR Inten    --     21.6274                 6.6710                36.1788

                     28                     29                     30
                      A                      A                      A
 Frequencies --    740.7289               770.5780               796.3938
 Red. masses --      2.9883                 4.0768                 1.3459
 Frc consts  --      0.9660                 1.4263                 0.5029
 IR Inten    --      2.9094                 0.5217                 7.8837

                     31                     32                     33
                      A                      A                      A
 Frequencies --    825.8283               837.8912               866.9397
 Red. masses --      2.8217                 1.4380                 1.2903
 Frc consts  --      1.1338                 0.5948                 0.5714
 IR Inten    --      6.5134                15.9931                12.6476

                     34                     35                     36
                      A                      A                      A
 Frequencies --    887.6106               918.4305               934.1038
 Red. masses --      2.7519                 1.2698                 4.8989
 Frc consts  --      1.2774                 0.6311                 2.5185
 IR Inten    --     37.2551                 5.6134                 0.7086

                     37                     38                     39
                      A                      A                      A
 Frequencies --    937.7007               985.5855              1003.7908
 Red. masses --      3.8353                 2.0874                 3.5135
 Frc consts  --      1.9869                 1.1947                 2.0858
 IR Inten    --     30.3182                12.2616                40.0777

                     40                     41                     42
                      A                      A                      A
 Frequencies --   1029.5217              1031.6521              1097.8842
 Red. masses --      3.5712                 3.3415                 1.6573
 Frc consts  --      2.2301                 2.0953                 1.1770
 IR Inten    --      8.0992                 3.0924                13.2399

                     43                     44                     45
                      A                      A                      A
 Frequencies --   1109.5929              1121.2962              1153.7577
 Red. masses --      1.6430                 2.2822                 1.9826
 Frc consts  --      1.1918                 1.6906                 1.5550
 IR Inten    --     18.3860                30.5403                15.8865

                     46                     47                     48
                      A                      A                      A
 Frequencies --   1155.9916              1174.9461              1229.1131
 Red. masses --      2.5220                 1.4442                 1.7707
 Frc consts  --      1.9856                 1.1747                 1.5761
 IR Inten    --      4.3093                 3.7211                 2.9182

                     49                     50                     51
                      A                      A                      A
 Frequencies --   1241.0389              1263.3063              1283.2508
 Red. masses --      1.4655                 2.2233                 1.3740
 Frc consts  --      1.3298                 2.0905                 1.3330
 IR Inten    --     15.5847                25.4156                 0.9355

                     52                     53                     54
                      A                      A                      A
 Frequencies --   1291.1557              1306.6330              1325.9322
 Red. masses --      1.3013                 1.3744                 1.2960
 Frc consts  --      1.2782                 1.3825                 1.3424
 IR Inten    --      3.0802                41.1149                14.9165

                     55                     56                     57
                      A                      A                      A
 Frequencies --   1329.4130              1351.7206              1363.8041
 Red. masses --      1.3576                 1.5223                 1.5101
 Frc consts  --      1.4136                 1.6388                 1.6549
 IR Inten    --      5.2647               131.6676                37.0332

                     58                     59                     60
                      A                      A                      A
 Frequencies --   1390.3419              1408.7167              1417.6504
 Red. masses --      2.5763                 1.3683                 2.3872
 Frc consts  --      2.9342                 1.5998                 2.8267
 IR Inten    --      2.0262                 5.2976               214.7604

                     61                     62                     63
                      A                      A                      A
 Frequencies --   1432.6227              1484.3045              1488.7270
 Red. masses --      2.7719                 1.1207                 1.1071
 Frc consts  --      3.3519                 1.4547                 1.4457
 IR Inten    --     24.2789                 0.7629                11.4826

                     64                     65                     66
                      A                      A                      A
 Frequencies --   1506.5134              1508.2861              1521.1568
 Red. masses --      3.9484                 1.0766                 1.1837
 Frc consts  --      5.2797                 1.4430                 1.6138
 IR Inten    --     39.7870                12.4480               227.8597

                     67                     68                     69
                      A                      A                      A
 Frequencies --   1543.7895              1607.5127              1668.4314
 Red. masses --      2.5902                 4.3436                 1.0420
 Frc consts  --      3.6372                 6.6132                 1.7090
 IR Inten    --    296.4796                 7.3569                52.4524

                     70                     71                     72
                      A                      A                      A
 Frequencies --   1671.7583              1742.8418              1821.6859
 Red. masses --      1.0440                 9.8445                 9.5878
 Frc consts  --      1.7192                17.6181                18.7463
 IR Inten    --     42.1981               292.0857               345.6542

                     73                     74                     75
                      A                      A                      A
 Frequencies --   3038.3472              3054.9765              3071.2818
 Red. masses --      1.0635                 1.0824                 1.0615
 Frc consts  --      5.7847                 5.9516                 5.8993
 IR Inten    --      3.4545                 4.8948                13.3889

                     76                     77                     78
                      A                      A                      A
 Frequencies --   3099.5746              3115.7984              3120.8025
 Red. masses --      1.1010                 1.0602                 1.1056
 Frc consts  --      6.2324                 6.0642                 6.3442
 IR Inten    --      4.4031                 2.8809                 2.6624

                     79                     80                     81
                      A                      A                      A
 Frequencies --   3181.4479              3251.1989              3271.0505
 Red. masses --      1.1118                 1.0969                 1.0988
 Frc consts  --      6.6300                 6.8313                 6.9268
 IR Inten    --      2.3035                 2.4298                 1.4683

                     82                     83                     84
                      A                      A                      A
 Frequencies --   3400.3028              3491.8649              3493.9040
 Red. masses --      1.0304                 1.0935                 1.0938
 Frc consts  --      7.0196                 7.8557                 7.8667
 IR Inten    --     57.1745                93.8443                94.8699

                     85                     86                     87
                      A                      A                      A
 Frequencies --   3523.9687              3557.5014              3644.7779
 Red. masses --      1.0783                 1.0682                 1.0819
 Frc consts  --      7.8893                 7.9654                 8.4678
 IR Inten    --    125.2310               564.4437                59.9004

 - Thermochemistry -
 -------------------
 Temperature   298.150 Kelvin.  Pressure   1.00000 Atm.
 Atom     1 has atomic number  8 and mass  15.99491

 Molecular mass:   227.11442 amu.
 Principal axes and moments of inertia in atomic units:
                           1         2         3
     Eigenvalues --  1930.304947456.689288998.54276
           X            0.99903   0.03336   0.02885
           Y           -0.04364   0.84295   0.53622
           Z           -0.00643  -0.53695   0.84359
 This molecule is an asymmetric top.
 Rotational symmetry number  1.
 Warning -- assumption of classical behavior for rotation
           may cause significant error
 Rotational temperatures (Kelvin)      0.04487     0.01162     0.00963
 Rotational constants (GHZ):           0.93495     0.24203     0.20056
 Zero-point vibrational energy     681460.4 (Joules/Mol)
                                  162.87294 (Kcal/Mol)
 Warning -- explicit consideration of  22 degrees of freedom as
           vibrations may cause significant error
 Vibrational temperatures:     29.02    39.60    58.51    84.74   102.98
          (Kelvin)            121.34   143.52   153.35   214.74   274.24
                              306.88   338.86   393.03   478.88   482.88
                              500.56   545.48   556.10   781.30   792.68
                              848.30   887.01   940.80   948.33   962.63
                              979.21  1033.72  1065.74  1108.69  1145.83
                             1188.18  1205.54  1247.33  1277.07  1321.42
                             1343.97  1349.14  1418.04  1444.23  1481.25
                             1484.32  1579.61  1596.45  1613.29  1660.00
                             1663.21  1690.48  1768.42  1785.58  1817.61
                             1846.31  1857.68  1879.95  1907.72  1912.73
                             1944.82  1962.21  2000.39  2026.83  2039.68
                             2061.22  2135.58  2141.94  2167.53  2170.08
                             2188.60  2221.17  2312.85  2400.50  2405.28
                             2507.56  2621.00  4371.50  4395.42  4418.88
                             4459.59  4482.93  4490.13  4577.39  4677.74
                             4706.31  4892.27  5024.01  5026.94  5070.20
                             5118.44  5244.02

 Zero-point correction=                           0.259555 (Hartree/Particle)
 Thermal correction to Energy=                    0.275784
 Thermal correction to Enthalpy=                  0.276728
 Thermal correction to Gibbs Free Energy=         0.212584
 Sum of electronic and zero-point Energies=           -796.301323
 Sum of electronic and thermal Energies=              -796.285094
 Sum of electronic and thermal Enthalpies=            -796.284150
 Sum of electronic and thermal Free Energies=         -796.348294

                     E (Thermal)             CV                S
                      KCal/Mol        Cal/Mol-Kelvin    Cal/Mol-Kelvin
 Total                  173.057             58.579            135.003
 Electronic               0.000              0.000              0.000
 Translational            0.889              2.981             42.163
 Rotational               0.889              2.981             33.226
 Vibrational            171.280             52.617             59.613
 Vibration     1          0.593              1.986              6.617
 Vibration     2          0.593              1.984              6.000
 Vibration     3          0.594              1.981              5.226
 Vibration     4          0.596              1.974              4.494
 Vibration     5          0.598              1.968              4.110
 Vibration     6          0.601              1.960              3.787
 Vibration     7          0.604              1.949              3.459
 Vibration     8          0.605              1.944              3.330
 Vibration     9          0.618              1.903              2.682
 Vibration    10          0.634              1.853              2.222
 Vibration    11          0.644              1.821              2.015
 Vibration    12          0.655              1.786              1.836
 Vibration    13          0.676              1.723              1.576
 Vibration    14          0.715              1.610              1.246
 Vibration    15          0.717              1.604              1.233
 Vibration    16          0.726              1.580              1.176
 Vibration    17          0.749              1.515              1.043
 Vibration    18          0.755              1.499              1.014
 Vibration    19          0.898              1.155              0.559
 Vibration    20          0.906              1.138              0.542
 Vibration    21          0.947              1.054              0.468
 Vibration    22          0.976              0.997              0.422

 Optimization completed on the basis of negligible forces.
    -- Stationary point found.
 Normal termination of Gaussian 09 at Sat Jul 24 02:50:16 2021.
