 Gaussian 09, Revision D.01,
 Gaussian 09:  ES64L-G09RevD.01 24-Apr-2013

 ----------------------------------------------------------------------
 # B3LYP/6-31+G(d,p) EmpiricalDispersion=GD3BJ opt=calcfc freq=noraman
 nosymm integral(ultrafinegrid)
 ----------------------------------------------------------------------

 ------------------------------------------------------------
 Candidate Structure: Conf:628 OPT and FREQ calc in gas phase
 ------------------------------------------------------------
 Symbolic Z-matrix:
 Charge =  1 Multiplicity = 1

 SCF Done:  E(RB3LYP) =  -796.578408319     A.U. after   14 cycles
 SCF Done:  E(RB3LYP) =  -796.585108361     A.U. after   13 cycles
 SCF Done:  E(RB3LYP) =  -796.586508019     A.U. after   13 cycles
 SCF Done:  E(RB3LYP) =  -796.587105626     A.U. after   12 cycles
 SCF Done:  E(RB3LYP) =  -796.587452794     A.U. after   12 cycles
 SCF Done:  E(RB3LYP) =  -796.587484307     A.U. after   11 cycles
 SCF Done:  E(RB3LYP) =  -796.587492260     A.U. after   10 cycles
 SCF Done:  E(RB3LYP) =  -796.587493707     A.U. after   10 cycles
 SCF Done:  E(RB3LYP) =  -796.587494037     A.U. after    9 cycles
 SCF Done:  E(RB3LYP) =  -796.587494069     A.U. after    8 cycles
 Optimization completed.
    -- Stationary point found.
 Normal termination of Gaussian 09 at Sat Jul 24 01:54:21 2021.

 ----------------------------------------------------------------------
 #N Geom=AllCheck Guess=TCheck SCRF=Check GenChk RB3LYP/6-31+G(d,p) Fre
 q
 ----------------------------------------------------------------------

 Structure from the checkpoint file:  "conf-628.chk"
 ------------------------------------------------------------
 Candidate Structure: Conf:628 OPT and FREQ calc in gas phase
 ------------------------------------------------------------
 Charge =  1 Multiplicity = 1

                          Input orientation:
 ---------------------------------------------------------------------
 Center     Atomic      Atomic             Coordinates (Angstroms)
 Number     Number       Type             X           Y           Z
 ---------------------------------------------------------------------
      1          8           0       -1.395727   -0.057016   -0.855160
      2          6           0       -1.526189   -0.193081    0.386534
      3          7           0       -0.482924   -0.355759    1.194135
      4          6           0        0.895616   -0.414989    0.708020
      5          6           0        1.701291   -1.008684    1.854612
      6          8           0        2.995498   -1.181085    1.541739
      7          8           0        1.229770   -1.273057    2.940601
      8          6           0        1.434750    0.984352    0.257904
      9          6           0        2.346774    0.937773   -0.919998
     10          6           0        2.142576    1.334573   -2.223899
     11          7           0        3.261746    1.102505   -2.989376
     12          6           0        4.142896    0.567074   -2.169494
     13          7           0        3.641782    0.447162   -0.901641
     14          6           0       -2.916919   -0.137133    1.014601
     15          6           0       -3.976682   -0.737717    0.083599
     16          7           0       -3.893851   -0.063391   -1.266713
     17          1           0       -0.606362   -0.540938    2.186601
     18          1           0        0.937616   -1.090675   -0.152281
     19          1           0        3.447746   -1.556210    2.319080
     20          1           0        0.567807    1.579844   -0.034506
     21          1           0        1.892941    1.490342    1.116101
     22          1           0        1.252043    1.781532   -2.643657
     23          1           0        5.143604    0.253269   -2.430232
     24          1           0        4.102135    0.029400   -0.106557
     25          1           0       -2.948164   -0.670648    1.968355
     26          1           0       -3.149431    0.913270    1.233304
     27          1           0       -3.785198   -1.798583   -0.090699
     28          1           0       -4.983448   -0.623170    0.486997
     29          1           0       -4.302431    0.874071   -1.257420
     30          1           0       -2.817481    0.010877   -1.425745
     31          1           0       -4.351765   -0.603625   -2.003410
 ---------------------------------------------------------------------

 SCF Done:  E(RB3LYP) =  -796.587494069     A.U. after    1 cycles

 Alpha  occ. eigenvalues --  -19.34736 -19.30425 -19.29279 -14.60894 -14.53262
 Alpha  occ. eigenvalues --  -14.48030 -14.40045 -10.47015 -10.46930 -10.42781
 Alpha  occ. eigenvalues --  -10.38747 -10.38408 -10.32914 -10.32561 -10.31519
 Alpha  occ. eigenvalues --  -10.28783  -1.25698  -1.22018  -1.16923  -1.15639
 Alpha  occ. eigenvalues --   -1.10204  -1.09632  -0.96834  -0.95844  -0.92753
 Alpha  occ. eigenvalues --   -0.86381  -0.83609  -0.79249  -0.77894  -0.75511
 Alpha  occ. eigenvalues --   -0.74471  -0.73214  -0.70243  -0.68674  -0.67913
 Alpha  occ. eigenvalues --   -0.66465  -0.64987  -0.63496  -0.62829  -0.61878
 Alpha  occ. eigenvalues --   -0.60975  -0.59697  -0.58714  -0.57003  -0.56595
 Alpha  occ. eigenvalues --   -0.55775  -0.55036  -0.53356  -0.52338  -0.51068
 Alpha  occ. eigenvalues --   -0.50241  -0.50105  -0.49241  -0.46789  -0.44402
 Alpha  occ. eigenvalues --   -0.43103  -0.42701  -0.36851  -0.35211  -0.31701
 Alpha virt. eigenvalues --   -0.16987  -0.15528  -0.14072  -0.12489  -0.11942
 Alpha virt. eigenvalues --   -0.11150  -0.10160  -0.09167  -0.08365  -0.07536
 Alpha virt. eigenvalues --   -0.06862  -0.06528  -0.06246  -0.05769  -0.05346

 Mulliken charges:
               1
     1  O   -0.524976
     2  C    0.236225
     3  N   -0.193604
     4  C   -0.629105
     5  C    0.772594
     6  O   -0.475850
     7  O   -0.434275
     8  C   -0.365587
     9  C    0.176316
    10  C   -0.094932
    11  N   -0.279943
    12  C    0.256213
    13  N   -0.274337
    14  C   -0.277946
    15  C   -0.186218
    16  N   -0.664959
    17  H    0.345133
    18  H    0.211029
    19  H    0.412629
    20  H    0.170745
    21  H    0.176601
    22  H    0.126061
    23  H    0.150734
    24  H    0.312784
    25  H    0.197381
    26  H    0.212112
    27  H    0.211473
    28  H    0.208217
    29  H    0.385869
    30  H    0.453089
    31  H    0.386526
 Sum of Mulliken charges =   1.00000

 Dipole moment (field-independent basis, Debye):
    X=            -12.0211    Y=             -2.2867    Z=              2.7675  Tot=             12.5458
 Quadrupole moment (field-independent basis, Debye-Ang):
   XX=             -6.4088   YY=            -89.7293   ZZ=            -97.1128
   XY=             -6.2473   XZ=             25.1763   YZ=              3.2544

  Exact polarizability: 170.404  -4.225 100.412  -6.776 -15.760 149.230
 Approx polarizability: 215.534 -14.256 150.941  -5.085 -19.625 232.649

                      1                      2                      3
                      A                      A                      A
 Frequencies --     23.5774                30.3006                48.7774
 Red. masses --      4.8666                 3.9468                 5.0169
 Frc consts  --      0.0016                 0.0021                 0.0070
 IR Inten    --      3.9601                 9.5809                 2.2863

                      4                      5                      6
                      A                      A                      A
 Frequencies --     59.5170                72.8330                98.6161
 Red. masses --      4.9056                 5.7038                 5.3195
 Frc consts  --      0.0102                 0.0178                 0.0305
 IR Inten    --      5.8290                 3.4659                 6.9526

                      7                      8                      9
                      A                      A                      A
 Frequencies --    117.0536               130.7138               189.2477
 Red. masses --      5.0324                 5.4835                 5.0406
 Frc consts  --      0.0406                 0.0552                 0.1064
 IR Inten    --      2.1895                 0.5982                 8.6082

                     10                     11                     12
                      A                      A                      A
 Frequencies --    207.5868               261.4317               289.5881
 Red. masses --      2.1992                 5.1097                 4.1230
 Frc consts  --      0.0558                 0.2058                 0.2037
 IR Inten    --     28.0722                57.5250                 2.3124

                     13                     14                     15
                      A                      A                      A
 Frequencies --    323.1409               347.3422               387.9502
 Red. masses --      2.0875                 6.2680                 3.9625
 Frc consts  --      0.1284                 0.4455                 0.3514
 IR Inten    --     11.1242                 1.0124                10.2752

                     16                     17                     18
                      A                      A                      A
 Frequencies --    392.4847               409.4375               455.0285
 Red. masses --      3.2113                 1.5648                 2.0357
 Frc consts  --      0.2915                 0.1546                 0.2483
 IR Inten    --    161.8335                 9.9198                 4.4558

                     19                     20                     21
                      A                      A                      A
 Frequencies --    542.4856               547.3939               589.0900
 Red. masses --      2.5357                 1.6803                 2.2094
 Frc consts  --      0.4397                 0.2966                 0.4517
 IR Inten    --     66.3767                57.7623                12.3694

                     22                     23                     24
                      A                      A                      A
 Frequencies --    604.7949               640.5311               662.5060
 Red. masses --      2.2894                 2.9973                 2.2124
 Frc consts  --      0.4934                 0.7245                 0.5721
 IR Inten    --     27.1714                78.7167                96.1114

                     25                     26                     27
                      A                      A                      A
 Frequencies --    668.4650               675.4533               730.8423
 Red. masses --      1.2387                 2.5792                 3.0262
 Frc consts  --      0.3261                 0.6933                 0.9524
 IR Inten    --     40.3912                 0.7661                16.4564

                     28                     29                     30
                      A                      A                      A
 Frequencies --    734.8738               772.4903               824.4839
 Red. masses --      3.2484                 4.0520                 2.5889
 Frc consts  --      1.0336                 1.4246                 1.0369
 IR Inten    --     30.9384                 7.7130                 4.6432

                     31                     32                     33
                      A                      A                      A
 Frequencies --    824.7689               849.9479               854.1325
 Red. masses --      1.3815                 1.4882                 2.3520
 Frc consts  --      0.5537                 0.6334                 1.0110
 IR Inten    --     25.4491                22.6321                33.8403

                     34                     35                     36
                      A                      A                      A
 Frequencies --    888.5425               935.7026               950.9012
 Red. masses --      2.0782                 5.8179                 2.3298
 Frc consts  --      0.9667                 3.0012                 1.2412
 IR Inten    --     88.7352                 9.8049                 3.9457

                     37                     38                     39
                      A                      A                      A
 Frequencies --    955.1839              1002.0650              1004.6459
 Red. masses --      1.3917                 4.6736                 2.9802
 Frc consts  --      0.7481                 2.7650                 1.7722
 IR Inten    --      5.0778                 1.7255                 4.3343

                     40                     41                     42
                      A                      A                      A
 Frequencies --   1026.1838              1033.7874              1102.8166
 Red. masses --      3.6237                 3.2197                 2.8005
 Frc consts  --      2.2483                 2.0273                 2.0067
 IR Inten    --     28.8172                12.0056                 7.7103

                     43                     44                     45
                      A                      A                      A
 Frequencies --   1118.1884              1131.6891              1139.0594
 Red. masses --      1.6037                 1.4530                 1.5350
 Frc consts  --      1.1815                 1.0964                 1.1734
 IR Inten    --     32.1164               145.1423                41.7904

                     46                     47                     48
                      A                      A                      A
 Frequencies --   1156.7187              1190.7506              1195.2890
 Red. masses --      1.9949                 1.2836                 2.3866
 Frc consts  --      1.5726                 1.0723                 2.0089
 IR Inten    --     22.7624                 7.5574               177.5126

                     49                     50                     51
                      A                      A                      A
 Frequencies --   1254.4760              1272.6480              1278.7479
 Red. masses --      1.4440                 1.7638                 1.6478
 Frc consts  --      1.3388                 1.6831                 1.5875
 IR Inten    --     13.5906                 6.8392                 2.5971

                     52                     53                     54
                      A                      A                      A
 Frequencies --   1291.9442              1307.2501              1320.2871
 Red. masses --      1.3243                 1.3165                 1.2339
 Frc consts  --      1.3023                 1.3255                 1.2672
 IR Inten    --     15.6934                 6.0837               104.9198

                     55                     56                     57
                      A                      A                      A
 Frequencies --   1326.3180              1361.9019              1381.7331
 Red. masses --      1.3420                 1.5322                 1.5992
 Frc consts  --      1.3909                 1.6743                 1.7989
 IR Inten    --      8.3195                44.5490                 8.3662

                     58                     59                     60
                      A                      A                      A
 Frequencies --   1397.5209              1399.5146              1433.8057
 Red. masses --      1.5009                 2.4239                 2.3433
 Frc consts  --      1.7271                 2.7972                 2.8383
 IR Inten    --    127.2273                46.1373                69.8387

                     61                     62                     63
                      A                      A                      A
 Frequencies --   1437.9469              1463.4401              1470.6247
 Red. masses --      2.8426                 1.3072                 1.0908
 Frc consts  --      3.4630                 1.6494                 1.3899
 IR Inten    --     31.2294               530.0736                28.1730

                     64                     65                     66
                      A                      A                      A
 Frequencies --   1480.0020              1504.5859              1514.1724
 Red. masses --      1.1438                 3.5050                 1.0770
 Frc consts  --      1.4761                 4.6749                 1.4549
 IR Inten    --     11.6200                28.0737                40.4906

                     67                     68                     69
                      A                      A                      A
 Frequencies --   1577.5079              1612.8777              1633.5850
 Red. masses --      2.8244                 4.4477                 1.1457
 Frc consts  --      4.1411                 6.8170                 1.8014
 IR Inten    --    223.5435                 3.1343                27.8730

                     70                     71                     72
                      A                      A                      A
 Frequencies --   1684.3603              1706.9256              1814.7954
 Red. masses --      1.1384                 2.8378                 9.8358
 Frc consts  --      1.9028                 4.8715                19.0860
 IR Inten    --     99.3184               130.2766               331.9326

                     73                     74                     75
                      A                      A                      A
 Frequencies --   2459.9665              3050.0922              3054.3931
 Red. masses --      1.0967                 1.0692                 1.0682
 Frc consts  --      3.9102                 5.8608                 5.8714
 IR Inten    --   1284.7902                19.5452                 0.7909

                     76                     77                     78
                      A                      A                      A
 Frequencies --   3088.5738              3105.5113              3124.0065
 Red. masses --      1.0841                 1.0622                 1.0958
 Frc consts  --      6.0931                 6.0356                 6.3007
 IR Inten    --      3.2426                 2.2085                 0.4800

                     79                     80                     81
                      A                      A                      A
 Frequencies --   3129.3403              3166.3625              3253.4611
 Red. masses --      1.0956                 1.1112                 1.0965
 Frc consts  --      6.3210                 6.5641                 6.8385
 IR Inten    --      4.5631                 0.4756                 5.5580

                     82                     83                     84
                      A                      A                      A
 Frequencies --   3270.1527              3467.0820              3540.6791
 Red. masses --      1.0985                 1.0527                 1.0950
 Frc consts  --      6.9211                 7.4555                 8.0878
 IR Inten    --      0.8991                86.3998                79.2240

                     85                     86                     87
                      A                      A                      A
 Frequencies --   3545.5302              3666.2889              3731.5737
 Red. masses --      1.0790                 1.0814                 1.0647
 Frc consts  --      7.9916                 8.5641                 8.7350
 IR Inten    --    139.6258                85.6105               136.5292

 - Thermochemistry -
 -------------------
 Temperature   298.150 Kelvin.  Pressure   1.00000 Atm.
 Atom     1 has atomic number  8 and mass  15.99491

 Molecular mass:   227.11442 amu.
 Principal axes and moments of inertia in atomic units:
                           1         2         3
     Eigenvalues --  2515.892215920.431738100.25015
           X            0.97685   0.20960  -0.04278
           Y            0.12104  -0.37665   0.91841
           Z           -0.17639   0.90233   0.39330
 This molecule is an asymmetric top.
 Rotational symmetry number  1.
 Warning -- assumption of classical behavior for rotation
           may cause significant error
 Rotational temperatures (Kelvin)      0.03443     0.01463     0.01069
 Rotational constants (GHZ):           0.71734     0.30483     0.22280
 Zero-point vibrational energy     680545.9 (Joules/Mol)
                                  162.65438 (Kcal/Mol)
 Warning -- explicit consideration of  22 degrees of freedom as
           vibrations may cause significant error
 Vibrational temperatures:     33.92    43.60    70.18    85.63   104.79
          (Kelvin)            141.89   168.41   188.07   272.28   298.67
                              376.14   416.65   464.93   499.75   558.17
                              564.70   589.09   654.68   780.51   787.58
                              847.57   870.16   921.58   953.20   961.77
                              971.83  1051.52  1057.32  1111.44  1186.25
                             1186.66  1222.88  1228.90  1278.41  1346.27
                             1368.13  1374.29  1441.75  1445.46  1476.45
                             1487.39  1586.71  1608.82  1628.25  1638.85
                             1664.26  1713.22  1719.75  1804.91  1831.05
                             1839.83  1858.82  1880.84  1899.60  1908.27
                             1959.47  1988.00  2010.72  2013.59  2062.92
                             2068.88  2105.56  2115.90  2129.39  2164.76
                             2178.55  2269.68  2320.57  2350.36  2423.42
                             2455.88  2611.08  3539.34  4388.40  4394.58
                             4443.76  4468.13  4494.74  4502.42  4555.68
                             4681.00  4705.01  4988.35  5094.24  5101.22
                             5274.97  5368.90

 Zero-point correction=                           0.259206 (Hartree/Particle)
 Thermal correction to Energy=                    0.274777
 Thermal correction to Enthalpy=                  0.275722
 Thermal correction to Gibbs Free Energy=         0.213689
 Sum of electronic and zero-point Energies=           -796.328288
 Sum of electronic and thermal Energies=              -796.312717
 Sum of electronic and thermal Enthalpies=            -796.311772
 Sum of electronic and thermal Free Energies=         -796.373805

                     E (Thermal)             CV                S
                      KCal/Mol        Cal/Mol-Kelvin    Cal/Mol-Kelvin
 Total                  172.425             57.670            130.559
 Electronic               0.000              0.000              0.000
 Translational            0.889              2.981             42.163
 Rotational               0.889              2.981             33.156
 Vibrational            170.648             51.708             55.240
 Vibration     1          0.593              1.985              6.308
 Vibration     2          0.594              1.984              5.810
 Vibration     3          0.595              1.978              4.866
 Vibration     4          0.597              1.974              4.473
 Vibration     5          0.599              1.967              4.075
 Vibration     6          0.604              1.950              3.481
 Vibration     7          0.608              1.935              3.148
 Vibration     8          0.612              1.923              2.936
 Vibration     9          0.633              1.855              2.235
 Vibration    10          0.641              1.829              2.065
 Vibration    11          0.669              1.743              1.652
 Vibration    12          0.686              1.693              1.476
 Vibration    13          0.708              1.629              1.294
 Vibration    14          0.725              1.581              1.178
 Vibration    15          0.756              1.496              1.008
 Vibration    16          0.760              1.486              0.991
 Vibration    17          0.774              1.450              0.929
 Vibration    18          0.813              1.350              0.781
 Vibration    19          0.898              1.156              0.560
 Vibration    20          0.903              1.145              0.550
 Vibration    21          0.946              1.055              0.469
 Vibration    22          0.963              1.022              0.441

 Optimization completed.
    -- Stationary point found.
 Normal termination of Gaussian 09 at Sat Jul 24 02:35:54 2021.
