 Gaussian 09, Revision D.01,
 Gaussian 09:  ES64L-G09RevD.01 24-Apr-2013

 ----------------------------------------------------------------------
 # B3LYP/6-31+G(d,p) EmpiricalDispersion=GD3BJ opt=calcfc freq=noraman
 nosymm integral(ultrafinegrid)
 ----------------------------------------------------------------------

 ------------------------------------------------------------
 Candidate Structure: Conf:715 OPT and FREQ calc in gas phase
 ------------------------------------------------------------
 Symbolic Z-matrix:
 Charge =  1 Multiplicity = 1

 SCF Done:  E(RB3LYP) =  -796.570412210     A.U. after   15 cycles
 SCF Done:  E(RB3LYP) =  -796.579244690     A.U. after   15 cycles
 SCF Done:  E(RB3LYP) =  -796.574885416     A.U. after   16 cycles
 SCF Done:  E(RB3LYP) =  -796.580596041     A.U. after   12 cycles
 SCF Done:  E(RB3LYP) =  -796.582640300     A.U. after   13 cycles
 SCF Done:  E(RB3LYP) =  -796.583325618     A.U. after   13 cycles
 SCF Done:  E(RB3LYP) =  -796.583548809     A.U. after   12 cycles
 SCF Done:  E(RB3LYP) =  -796.583668886     A.U. after   13 cycles
 SCF Done:  E(RB3LYP) =  -796.583784546     A.U. after   12 cycles
 SCF Done:  E(RB3LYP) =  -796.584048330     A.U. after   13 cycles
 SCF Done:  E(RB3LYP) =  -796.584312697     A.U. after   11 cycles
 SCF Done:  E(RB3LYP) =  -796.584327027     A.U. after   11 cycles
 SCF Done:  E(RB3LYP) =  -796.584348278     A.U. after   12 cycles
 SCF Done:  E(RB3LYP) =  -796.584364357     A.U. after   11 cycles
 SCF Done:  E(RB3LYP) =  -796.584365772     A.U. after   12 cycles
 SCF Done:  E(RB3LYP) =  -796.584369498     A.U. after   11 cycles
 SCF Done:  E(RB3LYP) =  -796.584372403     A.U. after   11 cycles
 SCF Done:  E(RB3LYP) =  -796.584373107     A.U. after   11 cycles
 SCF Done:  E(RB3LYP) =  -796.584373132     A.U. after    8 cycles
 Optimization completed.
    -- Stationary point found.
 Normal termination of Gaussian 09 at Sat Jul 24 03:17:53 2021.

 ----------------------------------------------------------------------
 #N Geom=AllCheck Guess=TCheck SCRF=Check GenChk RB3LYP/6-31+G(d,p) Fre
 q
 ----------------------------------------------------------------------

 Structure from the checkpoint file:  "conf-715.chk"
 ------------------------------------------------------------
 Candidate Structure: Conf:715 OPT and FREQ calc in gas phase
 ------------------------------------------------------------
 Charge =  1 Multiplicity = 1

                          Input orientation:
 ---------------------------------------------------------------------
 Center     Atomic      Atomic             Coordinates (Angstroms)
 Number     Number       Type             X           Y           Z
 ---------------------------------------------------------------------
      1          8           0       -2.204409    1.277977   -0.120074
      2          6           0       -1.528850    0.510417    0.600135
      3          7           0       -0.222003    0.702837    0.814143
      4          6           0        0.545798    1.563600   -0.065970
      5          6           0        0.429609    1.018981   -1.506271
      6          8           0        0.905004    1.819209   -2.478758
      7          8           0       -0.010455   -0.074681   -1.771279
      8          6           0        2.028110    1.593797    0.413806
      9          6           0        2.596181    0.229403    0.620362
     10          6           0        2.686101   -0.545844    1.760504
     11          7           0        3.177284   -1.798020    1.465050
     12          6           0        3.388184   -1.795175    0.165559
     13          7           0        3.047568   -0.594319   -0.397488
     14          6           0       -2.185730   -0.729893    1.183437
     15          6           0       -2.795138   -1.534483    0.023515
     16          7           0       -3.783820   -0.660277   -0.720494
     17          1           0        0.313765   -0.031460    1.272479
     18          1           0        0.129400    2.575723   -0.036620
     19          1           0        1.149232    2.699928   -2.153783
     20          1           0        2.624063    2.177690   -0.295632
     21          1           0        2.056946    2.133236    1.364371
     22          1           0        2.462069   -0.251423    2.777704
     23          1           0        3.787220   -2.614738   -0.414969
     24          1           0        3.126435   -0.358783   -1.377167
     25          1           0       -1.474334   -1.369386    1.711394
     26          1           0       -2.959295   -0.428954    1.898857
     27          1           0       -3.305710   -2.432968    0.371474
     28          1           0       -2.021083   -1.808384   -0.696151
     29          1           0       -3.342495    0.321044   -0.693983
     30          1           0       -3.925074   -0.969943   -1.684270
     31          1           0       -4.694412   -0.625096   -0.256268
 ---------------------------------------------------------------------

 SCF Done:  E(RB3LYP) =  -796.584373132     A.U. after    1 cycles

 Alpha  occ. eigenvalues --  -19.34275 -19.29621 -19.28440 -14.60793 -14.52463
 Alpha  occ. eigenvalues --  -14.50782 -14.42651 -10.46462 -10.46137 -10.42008
 Alpha  occ. eigenvalues --  -10.39458 -10.37386 -10.35143 -10.34950 -10.34380
 Alpha  occ. eigenvalues --  -10.31596  -1.24774  -1.21393  -1.16572  -1.15366
 Alpha  occ. eigenvalues --   -1.12866  -1.09434  -0.98551  -0.96278  -0.93356
 Alpha  occ. eigenvalues --   -0.87093  -0.83145  -0.79884  -0.77117  -0.75782
 Alpha  occ. eigenvalues --   -0.74747  -0.73348  -0.72629  -0.70713  -0.68959
 Alpha  occ. eigenvalues --   -0.67369  -0.66434  -0.64723  -0.62575  -0.60583
 Alpha  occ. eigenvalues --   -0.59653  -0.59021  -0.57367  -0.57183  -0.57043
 Alpha  occ. eigenvalues --   -0.56342  -0.55392  -0.53913  -0.53054  -0.52377
 Alpha  occ. eigenvalues --   -0.52000  -0.51743  -0.51081  -0.46222  -0.43963
 Alpha  occ. eigenvalues --   -0.43100  -0.41629  -0.39551  -0.37733  -0.34607
 Alpha virt. eigenvalues --   -0.16474  -0.15299  -0.14314  -0.12602  -0.11545
 Alpha virt. eigenvalues --   -0.11044  -0.10073  -0.09431  -0.08408  -0.07778
 Alpha virt. eigenvalues --   -0.07747  -0.06549  -0.06326  -0.05980  -0.05146

 Mulliken charges:
               1
     1  O   -0.500179
     2  C    0.159074
     3  N   -0.176839
     4  C   -0.321203
     5  C    0.327310
     6  O   -0.340296
     7  O   -0.373715
     8  C   -0.588972
     9  C    0.344622
    10  C   -0.091278
    11  N   -0.241988
    12  C    0.225402
    13  N   -0.299756
    14  C   -0.197290
    15  C   -0.183966
    16  N   -0.653337
    17  H    0.311909
    18  H    0.199385
    19  H    0.361018
    20  H    0.169142
    21  H    0.198094
    22  H    0.148146
    23  H    0.159791
    24  H    0.313321
    25  H    0.189796
    26  H    0.206853
    27  H    0.207647
    28  H    0.230416
    29  H    0.438358
    30  H    0.392138
    31  H    0.386396
 Sum of Mulliken charges =   1.00000

 Dipole moment (field-independent basis, Debye):
    X=             -8.9840    Y=              0.5160    Z=             -1.4301  Tot=              9.1117
 Quadrupole moment (field-independent basis, Debye-Ang):
   XX=            -35.0738   YY=            -78.9686   ZZ=            -90.2961
   XY=             24.5017   XZ=             -5.3190   YZ=              3.1878

  Exact polarizability: 145.742  -2.481 136.422   3.288  -8.270 126.634
 Approx polarizability: 186.579  -5.717 215.107   2.992 -12.242 200.734

                      1                      2                      3
                      A                      A                      A
 Frequencies --     10.5327                22.8281                49.0824
 Red. masses --      4.0540                 5.8879                 5.6731
 Frc consts  --      0.0003                 0.0018                 0.0081
 IR Inten    --     16.5213                 4.1477                 4.8650

                      4                      5                      6
                      A                      A                      A
 Frequencies --     62.9035                69.6397                85.5584
 Red. masses --      4.7350                 4.3028                 5.4965
 Frc consts  --      0.0110                 0.0123                 0.0237
 IR Inten    --      9.7913                12.1930                10.7830

                      7                      8                      9
                      A                      A                      A
 Frequencies --    123.7217               139.1074               200.4582
 Red. masses --      4.2806                 6.5327                 4.5472
 Frc consts  --      0.0386                 0.0745                 0.1077
 IR Inten    --      0.3389                 7.1834                 3.7303

                     10                     11                     12
                      A                      A                      A
 Frequencies --    217.0737               247.9530               321.4016
 Red. masses --      2.7316                 5.3539                 3.5056
 Frc consts  --      0.0758                 0.1939                 0.2134
 IR Inten    --     22.3391                21.6382                47.7061

                     13                     14                     15
                      A                      A                      A
 Frequencies --    336.3765               343.2482               374.8939
 Red. masses --      2.5007                 2.6110                 1.6673
 Frc consts  --      0.1667                 0.1812                 0.1381
 IR Inten    --     35.3561                 8.6418                 2.3253

                     16                     17                     18
                      A                      A                      A
 Frequencies --    382.5379               448.2953               463.9392
 Red. masses --      2.5392                 3.4705                 2.1680
 Frc consts  --      0.2189                 0.4109                 0.2749
 IR Inten    --     30.7016                39.0358               108.6060

                     19                     20                     21
                      A                      A                      A
 Frequencies --    502.9528               525.9334               553.4953
 Red. masses --      1.4516                 2.6743                 1.5056
 Frc consts  --      0.2164                 0.4358                 0.2718
 IR Inten    --     24.4042                 3.7158                63.9416

                     22                     23                     24
                      A                      A                      A
 Frequencies --    600.6366               640.8232               670.4584
 Red. masses --      3.6552                 3.9655                 2.6470
 Frc consts  --      0.7769                 0.9595                 0.7011
 IR Inten    --      9.4496                 3.0628                18.2588

                     25                     26                     27
                      A                      A                      A
 Frequencies --    677.2795               690.3697               699.3204
 Red. masses --      3.6285                 4.1988                 1.3672
 Frc consts  --      0.9807                 1.1791                 0.3940
 IR Inten    --     41.6604                 3.0886                40.6753

                     28                     29                     30
                      A                      A                      A
 Frequencies --    743.6010               774.8929               834.8821
 Red. masses --      3.6068                 4.8157                 2.2441
 Frc consts  --      1.1750                 1.7037                 0.9216
 IR Inten    --     14.5687                 2.3289                14.7690

                     31                     32                     33
                      A                      A                      A
 Frequencies --    838.9383               853.4433               863.2686
 Red. masses --      1.4450                 2.1263                 1.9081
 Frc consts  --      0.5992                 0.9125                 0.8378
 IR Inten    --     43.8866                 1.9264                 9.7661

                     34                     35                     36
                      A                      A                      A
 Frequencies --    891.5643               933.5684               943.9476
 Red. masses --      1.9766                 4.9552                 2.6846
 Frc consts  --      0.9257                 2.5445                 1.4094
 IR Inten    --     56.3814                12.1967                 6.0381

                     37                     38                     39
                      A                      A                      A
 Frequencies --    959.1891               961.5652              1000.0151
 Red. masses --      1.4779                 2.3178                 2.8722
 Frc consts  --      0.8011                 1.2627                 1.6923
 IR Inten    --     10.2115                 1.8660                 2.7986

                     40                     41                     42
                      A                      A                      A
 Frequencies --   1008.8633              1042.7115              1109.9052
 Red. masses --      3.6223                 2.7950                 1.7797
 Frc consts  --      2.1722                 1.7904                 1.2917
 IR Inten    --     17.6033                 8.5321                14.8522

                     43                     44                     45
                      A                      A                      A
 Frequencies --   1118.3500              1132.1836              1135.3701
 Red. masses --      1.6619                 1.5272                 1.5305
 Frc consts  --      1.2246                 1.1534                 1.1624
 IR Inten    --     17.0349                65.1574                 3.1632

                     46                     47                     48
                      A                      A                      A
 Frequencies --   1155.5698              1166.3186              1211.1915
 Red. masses --      2.0254                 1.6805                 1.6936
 Frc consts  --      1.5935                 1.3469                 1.4639
 IR Inten    --     20.0134                 8.8944                35.7607

                     49                     50                     51
                      A                      A                      A
 Frequencies --   1236.2682              1260.3044              1272.0389
 Red. masses --      1.4549                 1.4578                 2.1627
 Frc consts  --      1.3101                 1.3643                 2.0618
 IR Inten    --     26.8229                42.6087                29.0765

                     52                     53                     54
                      A                      A                      A
 Frequencies --   1283.4481              1290.3140              1321.9776
 Red. masses --      1.7774                 1.3492                 1.5755
 Frc consts  --      1.7250                 1.3235                 1.6222
 IR Inten    --    250.5968                49.1775                44.8228

                     55                     56                     57
                      A                      A                      A
 Frequencies --   1331.2779              1364.9112              1380.2830
 Red. masses --      1.3146                 1.5230                 1.7118
 Frc consts  --      1.3727                 1.6717                 1.9215
 IR Inten    --     20.6409                15.0646                44.7152

                     58                     59                     60
                      A                      A                      A
 Frequencies --   1395.7035              1405.0523              1414.2128
 Red. masses --      2.2103                 1.7279                 1.4086
 Frc consts  --      2.5368                 2.0098                 1.6598
 IR Inten    --      2.2752                49.1283                28.8622

                     61                     62                     63
                      A                      A                      A
 Frequencies --   1436.7195              1480.2959              1483.1424
 Red. masses --      2.6922                 1.1518                 1.1088
 Frc consts  --      3.2741                 1.4871                 1.4370
 IR Inten    --     27.6711                38.5038                16.9852

                     64                     65                     66
                      A                      A                      A
 Frequencies --   1490.9779              1505.0976              1513.9372
 Red. masses --      1.2627                 3.4320                 1.0942
 Frc consts  --      1.6539                 4.5807                 1.4776
 IR Inten    --    537.3870                25.8298               180.4303

                     67                     68                     69
                      A                      A                      A
 Frequencies --   1579.0754              1607.3439              1633.4861
 Red. masses --      2.3655                 4.1514                 1.1478
 Frc consts  --      3.4751                 6.3192                 1.8044
 IR Inten    --    221.0871                 8.6206                 2.7176

                     70                     71                     72
                      A                      A                      A
 Frequencies --   1680.4340              1704.1487              1836.3237
 Red. masses --      1.0458                 3.3880                10.4523
 Frc consts  --      1.7399                 5.7971                20.7663
 IR Inten    --     29.6024               193.7479               206.2062

                     73                     74                     75
                      A                      A                      A
 Frequencies --   2631.5639              3066.5142              3071.1869
 Red. masses --      1.0902                 1.0648                 1.0649
 Frc consts  --      4.4481                 5.8996                 5.9178
 IR Inten    --    927.3972                12.6629                 1.4314

                     76                     77                     78
                      A                      A                      A
 Frequencies --   3085.9357              3107.7626              3119.9541
 Red. masses --      1.0848                 1.0608                 1.1016
 Frc consts  --      6.0864                 6.0363                 6.3177
 IR Inten    --      8.1193                 1.6872                 2.5739

                     79                     80                     81
                      A                      A                      A
 Frequencies --   3134.9782              3172.2801              3243.0083
 Red. masses --      1.1013                 1.1125                 1.0968
 Frc consts  --      6.3773                 6.5961                 6.7961
 IR Inten    --      0.9361                 0.1322                 3.1274

                     82                     83                     84
                      A                      A                      A
 Frequencies --   3272.6582              3466.8826              3507.4545
 Red. masses --      1.0988                 1.0530                 1.0790
 Frc consts  --      6.9340                 7.4571                 7.8212
 IR Inten    --      1.5538                98.0584               239.9041

                     85                     86                     87
                      A                      A                      A
 Frequencies --   3539.8700              3646.1777              3780.3854
 Red. masses --      1.0950                 1.0821                 1.0666
 Frc consts  --      8.0840                 8.4760                 8.9813
 IR Inten    --     79.0612                64.2890                73.9062

 - Thermochemistry -
 -------------------
 Temperature   298.150 Kelvin.  Pressure   1.00000 Atm.
 Atom     1 has atomic number  8 and mass  15.99491

 Molecular mass:   227.11442 amu.
 Principal axes and moments of inertia in atomic units:
                           1         2         3
     Eigenvalues --  2285.946265054.801785923.41963
           X            0.99059   0.12833  -0.04755
           Y           -0.06437   0.74351   0.66562
           Z            0.12078  -0.65629   0.74478
 This molecule is an asymmetric top.
 Rotational symmetry number  1.
 Warning -- assumption of classical behavior for rotation
           may cause significant error
 Rotational temperatures (Kelvin)      0.03789     0.01713     0.01462
 Rotational constants (GHZ):           0.78949     0.35704     0.30468
 Zero-point vibrational energy     681234.7 (Joules/Mol)
                                  162.81900 (Kcal/Mol)
 Warning -- explicit consideration of  22 degrees of freedom as
           vibrations may cause significant error
 Vibrational temperatures:     15.15    32.84    70.62    90.50   100.20
          (Kelvin)            123.10   178.01   200.14   288.41   312.32
                              356.75   462.42   483.97   493.86   539.39
                              550.39   645.00   667.50   723.64   756.70
                              796.36   864.18   922.00   964.64   974.45
                              993.29  1006.16  1069.87  1114.90  1201.21
                             1207.04  1227.91  1242.05  1282.76  1343.20
                             1358.13  1380.06  1383.48  1438.80  1451.53
                             1500.23  1596.90  1609.05  1628.96  1633.54
                             1662.61  1678.07  1742.63  1778.71  1813.29
                             1830.18  1846.59  1856.47  1902.03  1915.41
                             1963.80  1985.92  2008.10  2021.55  2034.73
                             2067.12  2129.81  2133.91  2145.18  2165.50
                             2178.22  2271.93  2312.61  2350.22  2417.77
                             2451.89  2642.06  3786.23  4412.02  4418.75
                             4439.97  4471.37  4488.91  4510.53  4564.20
                             4665.96  4708.62  4988.06  5046.44  5093.08
                             5246.03  5439.12

 Zero-point correction=                           0.259469 (Hartree/Particle)
 Thermal correction to Energy=                    0.275061
 Thermal correction to Enthalpy=                  0.276005
 Thermal correction to Gibbs Free Energy=         0.213289
 Sum of electronic and zero-point Energies=           -796.324905
 Sum of electronic and thermal Energies=              -796.309313
 Sum of electronic and thermal Enthalpies=            -796.308368
 Sum of electronic and thermal Free Energies=         -796.371085

                     E (Thermal)             CV                S
                      KCal/Mol        Cal/Mol-Kelvin    Cal/Mol-Kelvin
 Total                  172.603             57.755            131.997
 Electronic               0.000              0.000              0.000
 Translational            0.889              2.981             42.163
 Rotational               0.889              2.981             32.593
 Vibrational            170.826             51.794             57.241
 Vibration     1          0.593              1.987              7.908
 Vibration     2          0.593              1.985              6.372
 Vibration     3          0.595              1.978              4.854
 Vibration     4          0.597              1.972              4.364
 Vibration     5          0.598              1.969              4.164
 Vibration     6          0.601              1.959              3.759
 Vibration     7          0.610              1.929              3.041
 Vibration     8          0.615              1.914              2.816
 Vibration     9          0.638              1.839              2.129
 Vibration    10          0.646              1.815              1.983
 Vibration    11          0.662              1.766              1.745
 Vibration    12          0.707              1.633              1.303
 Vibration    13          0.717              1.603              1.229
 Vibration    14          0.722              1.589              1.197
 Vibration    15          0.746              1.524              1.060
 Vibration    16          0.752              1.507              1.029
 Vibration    17          0.807              1.365              0.801
 Vibration    18          0.821              1.330              0.755
 Vibration    19          0.858              1.243              0.651
 Vibration    20          0.881              1.193              0.596
 Vibration    21          0.909              1.132              0.537
 Vibration    22          0.959              1.030              0.449

 Normal termination of Gaussian 09 at Sat Jul 24 04:02:06 2021.
