 Gaussian 09, Revision D.01,
 Gaussian 09:  ES64L-G09RevD.01 24-Apr-2013

 ----------------------------------------------------------------------
 # B3LYP/6-31+G(d,p) EmpiricalDispersion=GD3BJ opt=calcfc freq=noraman
 nosymm integral(ultrafinegrid)
 ----------------------------------------------------------------------

 ------------------------------------------------------------
 Candidate Structure: Conf:301 OPT and FREQ calc in gas phase
 ------------------------------------------------------------
 Symbolic Z-matrix:
 Charge =  1 Multiplicity = 1

 SCF Done:  E(RB3LYP) =  -796.594558790     A.U. after   15 cycles
 SCF Done:  E(RB3LYP) =  -791.512332457     A.U. after   19 cycles
 SCF Done:  E(RB3LYP) =  -796.552411634     A.U. after   15 cycles
 SCF Done:  E(RB3LYP) =  -796.600827427     A.U. after   13 cycles
 SCF Done:  E(RB3LYP) =  -796.601553112     A.U. after   14 cycles
 SCF Done:  E(RB3LYP) =  -796.607168911     A.U. after   14 cycles
 SCF Done:  E(RB3LYP) =  -796.608028221     A.U. after   13 cycles
 SCF Done:  E(RB3LYP) =  -796.608284409     A.U. after   13 cycles
 SCF Done:  E(RB3LYP) =  -796.608584459     A.U. after   12 cycles
 SCF Done:  E(RB3LYP) =  -796.608643438     A.U. after   12 cycles
 SCF Done:  E(RB3LYP) =  -796.608692831     A.U. after   12 cycles
 SCF Done:  E(RB3LYP) =  -796.608707345     A.U. after   12 cycles
 SCF Done:  E(RB3LYP) =  -796.608712138     A.U. after   11 cycles
 SCF Done:  E(RB3LYP) =  -796.608713726     A.U. after   10 cycles
 SCF Done:  E(RB3LYP) =  -796.608713917     A.U. after    9 cycles
 Optimization completed.
    -- Stationary point found.
 Normal termination of Gaussian 09 at Sat Jul 24 02:36:58 2021.

 ----------------------------------------------------------------------
 #N Geom=AllCheck Guess=TCheck SCRF=Check GenChk RB3LYP/6-31+G(d,p) Fre
 q
 ----------------------------------------------------------------------

 Structure from the checkpoint file:  "conf-301.chk"
 ------------------------------------------------------------
 Candidate Structure: Conf:301 OPT and FREQ calc in gas phase
 ------------------------------------------------------------
 Charge =  1 Multiplicity = 1

                          Input orientation:
 ---------------------------------------------------------------------
 Center     Atomic      Atomic             Coordinates (Angstroms)
 Number     Number       Type             X           Y           Z
 ---------------------------------------------------------------------
      1          8           0       -0.042477   -0.249899   -1.661375
      2          6           0        0.409224    0.697350   -0.995521
      3          7           0       -0.368806    1.488714   -0.233685
      4          6           0       -1.733535    1.140557    0.112631
      5          6           0       -2.485750    2.430887    0.400512
      6          8           0       -3.811308    2.233814    0.414627
      7          8           0       -1.937745    3.484985    0.638294
      8          6           0       -1.781958    0.223660    1.391824
      9          6           0       -0.859896   -0.938956    1.264323
     10          6           0        0.499587   -1.026700    1.470297
     11          7           0        0.997099   -2.208468    0.955523
     12          6           0       -0.055951   -2.854469    0.472333
     13          7           0       -1.192413   -2.125266    0.637899
     14          6           0        1.909164    0.994180   -0.945451
     15          6           0        2.754832   -0.016381   -1.724353
     16          7           0        2.287237   -1.427340   -1.473450
     17          1           0        0.011018    2.313885    0.217879
     18          1           0       -2.188666    0.618401   -0.730925
     19          1           0       -4.251007    3.071885    0.645336
     20          1           0       -1.482045    0.822493    2.257199
     21          1           0       -2.818203   -0.086822    1.553749
     22          1           0        1.140229   -0.307546    1.960156
     23          1           0       -0.048036   -3.836822    0.022334
     24          1           0       -2.119030   -2.403186    0.344440
     25          1           0        2.221083    1.021129    0.103417
     26          1           0        2.106486    1.990636   -1.356435
     27          1           0        2.665615    0.141888   -2.800600
     28          1           0        3.805658    0.059083   -1.442232
     29          1           0        2.845194   -2.111534   -1.986804
     30          1           0        1.292557   -1.428548   -1.788943
     31          1           0        2.232037   -1.712028   -0.467322
 ---------------------------------------------------------------------

 SCF Done:  E(RB3LYP) =  -796.608713917     A.U. after    1 cycles

 Alpha  occ. eigenvalues --  -19.33427 -19.28173 -19.28050 -14.58812 -14.53275
 Alpha  occ. eigenvalues --  -14.51367 -14.46699 -10.45869 -10.45204 -10.40775
 Alpha  occ. eigenvalues --  -10.38517 -10.38407 -10.36464 -10.36229 -10.34556
 Alpha  occ. eigenvalues --  -10.33863  -1.24382  -1.19909  -1.15689  -1.15676
 Alpha  occ. eigenvalues --   -1.13830  -1.08209  -1.01448  -0.95340  -0.93174
 Alpha  occ. eigenvalues --   -0.88726  -0.83002  -0.81061  -0.76139  -0.75442
 Alpha  occ. eigenvalues --   -0.73868  -0.73197  -0.72594  -0.71568  -0.68289
 Alpha  occ. eigenvalues --   -0.66421  -0.64360  -0.63478  -0.62140  -0.61459
 Alpha  occ. eigenvalues --   -0.60603  -0.59373  -0.58865  -0.57464  -0.56251
 Alpha  occ. eigenvalues --   -0.55597  -0.55242  -0.54674  -0.54345  -0.53737
 Alpha  occ. eigenvalues --   -0.53073  -0.51171  -0.50508  -0.45506  -0.43557
 Alpha  occ. eigenvalues --   -0.42419  -0.42074  -0.41404  -0.40953  -0.36681
 Alpha virt. eigenvalues --   -0.14669  -0.14105  -0.14087  -0.12071  -0.11450
 Alpha virt. eigenvalues --   -0.10887  -0.09919  -0.09661  -0.09229  -0.08496
 Alpha virt. eigenvalues --   -0.07715  -0.07092  -0.06783  -0.06085  -0.05259

 Mulliken charges:
               1
     1  O   -0.458390
     2  C   -0.193759
     3  N   -0.208920
     4  C   -0.350406
     5  C    0.616986
     6  O   -0.396140
     7  O   -0.392521
     8  C   -0.585775
     9  C    0.551682
    10  C   -0.231150
    11  N   -0.331744
    12  C    0.172867
    13  N   -0.315100
    14  C    0.045192
    15  C   -0.306646
    16  N   -0.619373
    17  H    0.344846
    18  H    0.209300
    19  H    0.396234
    20  H    0.184248
    21  H    0.189120
    22  H    0.146497
    23  H    0.165807
    24  H    0.322261
    25  H    0.199729
    26  H    0.211246
    27  H    0.203771
    28  H    0.198842
    29  H    0.386199
    30  H    0.423158
    31  H    0.421938
 Sum of Mulliken charges =   1.00000

 Dipole moment (field-independent basis, Debye):
    X=              2.8528    Y=             -2.3903    Z=             -3.2274  Tot=              4.9263
 Quadrupole moment (field-independent basis, Debye-Ang):
   XX=            -49.9896   YY=            -75.0729   ZZ=            -84.9274
   XY=             -5.9064   XZ=            -20.1855   YZ=              8.3594

  Exact polarizability: 149.766 -13.985 147.474 -13.740   9.918 108.449
 Approx polarizability: 218.857  -2.171 218.661  -1.339  29.567 167.182

                      1                      2                      3
                      A                      A                      A
 Frequencies --     54.7866                66.2732                98.4299
 Red. masses --     10.7270                 4.6915                 4.9043
 Frc consts  --      0.0190                 0.0121                 0.0280
 IR Inten    --      1.6338                 0.3991                 5.8726

                      4                      5                      6
                      A                      A                      A
 Frequencies --    108.9409               112.7480               125.4597
 Red. masses --      3.6570                 5.3373                 3.5384
 Frc consts  --      0.0256                 0.0400                 0.0328
 IR Inten    --      5.5967                 1.6884                15.2064

                      7                      8                      9
                      A                      A                      A
 Frequencies --    150.3687               155.5797               174.2068
 Red. masses --      4.4967                 4.2917                 4.2553
 Frc consts  --      0.0599                 0.0612                 0.0761
 IR Inten    --     10.1966                11.1378                 6.2195

                     10                     11                     12
                      A                      A                      A
 Frequencies --    203.2075               261.1021               308.3749
 Red. masses --      2.5205                 4.4993                 5.6491
 Frc consts  --      0.0613                 0.1807                 0.3165
 IR Inten    --     34.8223                44.0402                 0.8152

                     13                     14                     15
                      A                      A                      A
 Frequencies --    314.7996               342.9444               354.2807
 Red. masses --      3.5558                 2.9253                 2.6180
 Frc consts  --      0.2076                 0.2027                 0.1936
 IR Inten    --      2.1856                11.1352                33.0818

                     16                     17                     18
                      A                      A                      A
 Frequencies --    396.3183               419.5686               444.0817
 Red. masses --      1.9731                 2.5593                 2.0668
 Frc consts  --      0.1826                 0.2654                 0.2401
 IR Inten    --     18.3119                 6.0767                 3.4167

                     19                     20                     21
                      A                      A                      A
 Frequencies --    533.4241               550.9330               592.3183
 Red. masses --      2.0068                 3.6300                 1.5841
 Frc consts  --      0.3364                 0.6492                 0.3274
 IR Inten    --     62.0506                19.8243               134.3094

                     22                     23                     24
                      A                      A                      A
 Frequencies --    609.5782               615.6100               632.7159
 Red. masses --      1.3894                 1.4954                 3.8136
 Frc consts  --      0.3042                 0.3339                 0.8995
 IR Inten    --     38.2584                 5.1114                78.4615

                     25                     26                     27
                      A                      A                      A
 Frequencies --    677.1410               686.1071               693.1735
 Red. masses --      2.4895                 3.0881                 3.1539
 Frc consts  --      0.6725                 0.8565                 0.8929
 IR Inten    --     70.2344                21.5038                 0.9655

                     28                     29                     30
                      A                      A                      A
 Frequencies --    718.3018               771.3104               823.0299
 Red. masses --      3.5180                 4.2874                 1.3969
 Frc consts  --      1.0694                 1.5028                 0.5575
 IR Inten    --      1.8585                12.9530                12.4478

                     31                     32                     33
                      A                      A                      A
 Frequencies --    841.5727               850.8883               864.4035
 Red. masses --      1.5136                 2.0349                 2.3714
 Frc consts  --      0.6316                 0.8681                 1.0440
 IR Inten    --     34.7040                11.2273                23.9333

                     34                     35                     36
                      A                      A                      A
 Frequencies --    881.0015               925.5440               947.7761
 Red. masses --      2.2672                 2.5940                 5.6211
 Frc consts  --      1.0368                 1.3092                 2.9750
 IR Inten    --      0.3191                14.7667                11.2901

                     37                     38                     39
                      A                      A                      A
 Frequencies --    967.7093               978.5014              1003.4879
 Red. masses --      1.5403                 3.0136                 3.0725
 Frc consts  --      0.8498                 1.7000                 1.8229
 IR Inten    --     10.8046                 5.0854                 9.3977

                     40                     41                     42
                      A                      A                      A
 Frequencies --   1033.7976              1048.9174              1100.2745
 Red. masses --      3.4880                 2.8915                 2.0165
 Frc consts  --      2.1964                 1.8744                 1.4383
 IR Inten    --      4.6622                18.2237                 7.1453

                     43                     44                     45
                      A                      A                      A
 Frequencies --   1126.2491              1135.1131              1139.4211
 Red. masses --      1.4722                 1.5940                 1.6892
 Frc consts  --      1.1003                 1.2101                 1.2921
 IR Inten    --     71.9076                33.8653                41.7973

                     46                     47                     48
                      A                      A                      A
 Frequencies --   1149.8538              1171.9236              1208.2030
 Red. masses --      1.8454                 1.9688                 1.7361
 Frc consts  --      1.4375                 1.5931                 1.4931
 IR Inten    --      1.8360               212.5980                 6.6367

                     49                     50                     51
                      A                      A                      A
 Frequencies --   1252.6277              1260.9298              1281.9935
 Red. masses --      1.3889                 1.7443                 1.5382
 Frc consts  --      1.2840                 1.6340                 1.4895
 IR Inten    --     12.9759                14.3230                 1.7016

                     52                     53                     54
                      A                      A                      A
 Frequencies --   1287.0329              1289.4403              1332.5027
 Red. masses --      1.4336                 1.7016                 1.3436
 Frc consts  --      1.3991                 1.6669                 1.4056
 IR Inten    --      1.5437                 6.9719                27.1929

                     55                     56                     57
                      A                      A                      A
 Frequencies --   1341.9144              1353.9186              1388.1732
 Red. masses --      1.4157                 1.2423                 1.6860
 Frc consts  --      1.5020                 1.3417                 1.9142
 IR Inten    --     20.7944                 4.3683                66.8228

                     58                     59                     60
                      A                      A                      A
 Frequencies --   1398.7159              1423.7486              1425.5285
 Red. masses --      3.3197                 2.4291                 1.3536
 Frc consts  --      3.8266                 2.9011                 1.6206
 IR Inten    --      5.3245               148.0309                15.2053

                     61                     62                     63
                      A                      A                      A
 Frequencies --   1442.2690              1470.6811              1486.4260
 Red. masses --      2.7570                 1.0978                 1.2337
 Frc consts  --      3.3789                 1.3990                 1.6060
 IR Inten    --     27.9407                21.9365               123.0265

                     64                     65                     66
                      A                      A                      A
 Frequencies --   1492.4939              1506.9531              1512.1151
 Red. masses --      1.1657                 2.3922                 1.1700
 Frc consts  --      1.5299                 3.2007                 1.5762
 IR Inten    --     75.1407                28.3962                32.5779

                     67                     68                     69
                      A                      A                      A
 Frequencies --   1568.8310              1616.7230              1642.6876
 Red. masses --      2.3635                 4.2258                 1.1320
 Frc consts  --      3.4274                 6.5078                 1.7998
 IR Inten    --    202.5404                 6.9424               133.5711

                     70                     71                     72
                      A                      A                      A
 Frequencies --   1691.3677              1715.3246              1823.3164
 Red. masses --      1.1225                 3.6979                10.2981
 Frc consts  --      1.8920                 6.4106                20.1713
 IR Inten    --    199.5104                99.7869               285.7213

                     73                     74                     75
                      A                      A                      A
 Frequencies --   3068.9884              3072.2506              3084.8204
 Red. masses --      1.0618                 1.0608                 1.0768
 Frc consts  --      5.8926                 5.8993                 6.0375
 IR Inten    --      1.7373                 8.9972               492.2690

                     76                     77                     78
                      A                      A                      A
 Frequencies --   3106.1127              3113.4184              3119.6876
 Red. masses --      1.0738                 1.0904                 1.0988
 Frc consts  --      6.1040                 6.2274                 6.3008
 IR Inten    --     23.1731                 7.7257                 1.2999

                     79                     80                     81
                      A                      A                      A
 Frequencies --   3133.7618              3148.0561              3167.6285
 Red. masses --      1.0922                 1.0698                 1.1078
 Frc consts  --      6.3197                 6.2467                 6.5493
 IR Inten    --      5.7829               281.3488                13.5224

                     82                     83                     84
                      A                      A                      A
 Frequencies --   3260.1445              3273.0601              3519.9522
 Red. masses --      1.0968                 1.0995                 1.0797
 Frc consts  --      6.8686                 6.9402                 7.8817
 IR Inten    --      1.8182                 3.2662               113.6680

                     85                     86                     87
                      A                      A                      A
 Frequencies --   3586.9422              3647.8127              3736.2503
 Red. masses --      1.0784                 1.0824                 1.0648
 Frc consts  --      8.1746                 8.4857                 8.7574
 IR Inten    --     94.4828                87.9489               139.1285

 - Thermochemistry -
 -------------------
 Temperature   298.150 Kelvin.  Pressure   1.00000 Atm.
 Atom     1 has atomic number  8 and mass  15.99491

 Molecular mass:   227.11442 amu.
 Principal axes and moments of inertia in atomic units:
                           1         2         3
     Eigenvalues --  2186.186514501.469615887.32619
           X            0.73365   0.47104   0.48977
           Y           -0.64939   0.69826   0.30119
           Z           -0.20011  -0.53902   0.81817
 This molecule is an asymmetric top.
 Rotational symmetry number  1.
 Warning -- assumption of classical behavior for rotation
           may cause significant error
 Rotational temperatures (Kelvin)      0.03962     0.01924     0.01471
 Rotational constants (GHZ):           0.82552     0.40092     0.30655
 Zero-point vibrational energy     684349.8 (Joules/Mol)
                                  163.56353 (Kcal/Mol)
 Warning -- explicit consideration of  23 degrees of freedom as
           vibrations may cause significant error
 Vibrational temperatures:     78.83    95.35   141.62   156.74   162.22
          (Kelvin)            180.51   216.35   223.84   250.64   292.37
                              375.67   443.68   452.93   493.42   509.73
                              570.21   603.66   638.93   767.48   792.67
                              852.21   877.05   885.72   910.34   974.25
                              987.15   997.32  1033.47  1109.74  1184.15
                             1210.83  1224.24  1243.68  1267.56  1331.65
                             1363.64  1392.32  1407.84  1443.79  1487.40
                             1509.16  1583.05  1620.42  1633.17  1639.37
                             1654.38  1686.13  1738.33  1802.25  1814.19
                             1844.50  1851.75  1855.21  1917.17  1930.71
                             1947.98  1997.27  2012.44  2048.45  2051.01
                             2075.10  2115.98  2138.63  2147.36  2168.17
                             2175.59  2257.20  2326.10  2363.46  2433.50
                             2467.97  2623.34  4415.58  4420.28  4438.36
                             4469.00  4479.51  4488.53  4508.78  4529.34
                             4557.51  4690.61  4709.20  5064.42  5160.80
                             5248.38  5375.62

 Zero-point correction=                           0.260655 (Hartree/Particle)
 Thermal correction to Energy=                    0.275744
 Thermal correction to Enthalpy=                  0.276688
 Thermal correction to Gibbs Free Energy=         0.218584
 Sum of electronic and zero-point Energies=           -796.348059
 Sum of electronic and thermal Energies=              -796.332970
 Sum of electronic and thermal Enthalpies=            -796.332026
 Sum of electronic and thermal Free Energies=         -796.390130

                     E (Thermal)             CV                S
                      KCal/Mol        Cal/Mol-Kelvin    Cal/Mol-Kelvin
 Total                  173.032             57.694            122.290
 Electronic               0.000              0.000              0.000
 Translational            0.889              2.981             42.163
 Rotational               0.889              2.981             32.427
 Vibrational            171.254             51.733             47.700
 Vibration     1          0.596              1.976              4.637
 Vibration     2          0.598              1.970              4.261
 Vibration     3          0.604              1.950              3.485
 Vibration     4          0.606              1.942              3.288
 Vibration     5          0.607              1.939              3.221
 Vibration     6          0.610              1.928              3.015
 Vibration     7          0.618              1.902              2.668
 Vibration     8          0.620              1.896              2.603
 Vibration     9          0.627              1.874              2.390
 Vibration    10          0.639              1.835              2.104
 Vibration    11          0.669              1.744              1.654
 Vibration    12          0.698              1.658              1.371
 Vibration    13          0.702              1.645              1.337
 Vibration    14          0.722              1.590              1.198
 Vibration    15          0.730              1.566              1.147
 Vibration    16          0.763              1.478              0.976
 Vibration    17          0.782              1.428              0.893
 Vibration    18          0.804              1.374              0.814
 Vibration    19          0.888              1.176              0.580
 Vibration    20          0.906              1.138              0.542
 Vibration    21          0.950              1.048              0.463
 Vibration    22          0.969              1.012              0.433
 Vibration    23          0.975              0.999              0.424

 Optimization completed.
    -- Stationary point found.
 Normal termination of Gaussian 09 at Sat Jul 24 03:25:03 2021.
