 Gaussian 09, Revision D.01,
 Gaussian 09:  ES64L-G09RevD.01 24-Apr-2013

 ----------------------------------------------------------------------
 # B3LYP/6-31+G(d,p) EmpiricalDispersion=GD3BJ opt=calcfc freq=noraman
 nosymm integral(ultrafinegrid)
 ----------------------------------------------------------------------

 ------------------------------------------------------------
 Candidate Structure: Conf:661 OPT and FREQ calc in gas phase
 ------------------------------------------------------------
 Symbolic Z-matrix:
 Charge =  1 Multiplicity = 1

 SCF Done:  E(RB3LYP) =  -796.561718229     A.U. after   15 cycles
 SCF Done:  E(RB3LYP) =  -796.549325264     A.U. after   16 cycles
 SCF Done:  E(RB3LYP) =  -796.569825658     A.U. after   13 cycles
 SCF Done:  E(RB3LYP) =  -796.572827645     A.U. after   13 cycles
 SCF Done:  E(RB3LYP) =  -796.576420672     A.U. after   14 cycles
 SCF Done:  E(RB3LYP) =  -796.579033211     A.U. after   12 cycles
 SCF Done:  E(RB3LYP) =  -796.580561674     A.U. after   13 cycles
 SCF Done:  E(RB3LYP) =  -796.574948144     A.U. after   17 cycles
 SCF Done:  E(RB3LYP) =  -796.580848257     A.U. after   12 cycles
 SCF Done:  E(RB3LYP) =  -796.581062084     A.U. after   12 cycles
 SCF Done:  E(RB3LYP) =  -796.581131426     A.U. after   13 cycles
 SCF Done:  E(RB3LYP) =  -796.581177579     A.U. after   12 cycles
 SCF Done:  E(RB3LYP) =  -796.581189577     A.U. after   12 cycles
 SCF Done:  E(RB3LYP) =  -796.581194819     A.U. after   11 cycles
 SCF Done:  E(RB3LYP) =  -796.581195591     A.U. after   10 cycles
 SCF Done:  E(RB3LYP) =  -796.581196085     A.U. after   10 cycles
 SCF Done:  E(RB3LYP) =  -796.581196375     A.U. after    9 cycles
 SCF Done:  E(RB3LYP) =  -796.581196476     A.U. after    9 cycles
 Optimization completed.
    -- Stationary point found.
 Normal termination of Gaussian 09 at Sat Jul 24 02:38:57 2021.

 ----------------------------------------------------------------------
 #N Geom=AllCheck Guess=TCheck SCRF=Check GenChk RB3LYP/6-31+G(d,p) Fre
 q
 ----------------------------------------------------------------------

 Structure from the checkpoint file:  "conf-661.chk"
 ------------------------------------------------------------
 Candidate Structure: Conf:661 OPT and FREQ calc in gas phase
 ------------------------------------------------------------
 Charge =  1 Multiplicity = 1

                          Input orientation:
 ---------------------------------------------------------------------
 Center     Atomic      Atomic             Coordinates (Angstroms)
 Number     Number       Type             X           Y           Z
 ---------------------------------------------------------------------
      1          8           0        2.106007    1.142802    0.929810
      2          6           0        1.394032    0.962987   -0.052852
      3          7           0        0.163388    0.389253    0.045440
      4          6           0       -0.267510   -0.146725    1.313945
      5          6           0        0.759392   -1.195109    1.772175
      6          8           0        0.802407   -1.483428    3.067438
      7          8           0        1.463075   -1.824048    0.995848
      8          6           0       -1.661887   -0.835808    1.161634
      9          6           0       -2.617361   -0.020570    0.360294
     10          6           0       -2.981146   -0.118211   -0.967910
     11          7           0       -3.810002    0.920185   -1.328400
     12          6           0       -3.955425    1.647728   -0.241890
     13          7           0       -3.244328    1.129799    0.810123
     14          6           0        1.943535    1.141846   -1.462055
     15          6           0        3.128534    0.182368   -1.599342
     16          7           0        2.695443   -1.253865   -1.361452
     17          1           0       -0.506293    0.406202   -0.717289
     18          1           0       -0.319207    0.652393    2.064329
     19          1           0        0.267879   -0.877588    3.604533
     20          1           0       -2.050311   -1.061951    2.160292
     21          1           0       -1.525827   -1.793652    0.650269
     22          1           0       -2.720703   -0.902505   -1.666808
     23          1           0       -4.556818    2.541124   -0.151179
     24          1           0       -3.242999    1.490243    1.753926
     25          1           0        2.324592    2.159585   -1.581871
     26          1           0        1.189995    0.965867   -2.237168
     27          1           0        3.876456    0.406138   -0.837639
     28          1           0        3.583091    0.227299   -2.590093
     29          1           0        3.506188   -1.879076   -1.351060
     30          1           0        2.185464   -1.392351   -0.440372
     31          1           0        2.069936   -1.580824   -2.102669
 ---------------------------------------------------------------------

 SCF Done:  E(RB3LYP) =  -796.581196476     A.U. after    1 cycles

 Alpha  occ. eigenvalues --  -19.35928 -19.30705 -19.27553 -14.61441 -14.52015
 Alpha  occ. eigenvalues --  -14.51588 -14.43334 -10.48749 -10.44550 -10.41709
 Alpha  occ. eigenvalues --  -10.40226 -10.36559 -10.35886 -10.35726 -10.35151
 Alpha  occ. eigenvalues --  -10.32348  -1.26892  -1.19968  -1.18291  -1.15907
 Alpha  occ. eigenvalues --   -1.13598  -1.08725  -0.99264  -0.96011  -0.93685
 Alpha  occ. eigenvalues --   -0.87954  -0.83199  -0.80663  -0.78468  -0.75675
 Alpha  occ. eigenvalues --   -0.74463  -0.73832  -0.73403  -0.71574  -0.69019
 Alpha  occ. eigenvalues --   -0.66823  -0.66402  -0.65442  -0.64989  -0.61441
 Alpha  occ. eigenvalues --   -0.60368  -0.59272  -0.58305  -0.57662  -0.56735
 Alpha  occ. eigenvalues --   -0.56194  -0.54756  -0.53936  -0.53438  -0.52873
 Alpha  occ. eigenvalues --   -0.52763  -0.52373  -0.50811  -0.47900  -0.44860
 Alpha  occ. eigenvalues --   -0.41983  -0.41308  -0.40290  -0.38395  -0.35277
 Alpha virt. eigenvalues --   -0.16588  -0.15982  -0.14870  -0.13071  -0.11934
 Alpha virt. eigenvalues --   -0.10816  -0.10084  -0.09876  -0.08975  -0.08744
 Alpha virt. eigenvalues --   -0.07800  -0.07139  -0.06052  -0.05835  -0.05468

 Mulliken charges:
               1
     1  O   -0.400557
     2  C    0.103486
     3  N   -0.242466
     4  C   -0.327758
     5  C    0.309143
     6  O   -0.316022
     7  O   -0.448448
     8  C   -0.581084
     9  C    0.346031
    10  C   -0.072176
    11  N   -0.243604
    12  C    0.251099
    13  N   -0.316967
    14  C   -0.121181
    15  C   -0.189585
    16  N   -0.702274
    17  H    0.334244
    18  H    0.179084
    19  H    0.371469
    20  H    0.177661
    21  H    0.187747
    22  H    0.139908
    23  H    0.163213
    24  H    0.308894
    25  H    0.219808
    26  H    0.166825
    27  H    0.235295
    28  H    0.198512
    29  H    0.395906
    30  H    0.481906
    31  H    0.391887
 Sum of Mulliken charges =   1.00000

 Dipole moment (field-independent basis, Debye):
    X=              4.7839    Y=             -1.4951    Z=             -1.4193  Tot=              5.2092
 Quadrupole moment (field-independent basis, Debye-Ang):
   XX=            -64.9281   YY=            -84.4281   ZZ=            -68.7876
   XY=            -12.8180   XZ=            -38.2457   YZ=              9.4257

  Exact polarizability: 153.750 -15.353 120.828   0.658  -4.376 141.719
 Approx polarizability: 199.723 -18.607 183.279  10.946   6.867 225.366

                      1                      2                      3
                      A                      A                      A
 Frequencies --     27.7565                35.9145                59.3527
 Red. masses --      4.0010                 4.0451                 7.0667
 Frc consts  --      0.0018                 0.0031                 0.0147
 IR Inten    --     13.4607                 1.0474                12.2385

                      4                      5                      6
                      A                      A                      A
 Frequencies --     67.6586                77.8340               112.3461
 Red. masses --      4.3435                 5.4950                 4.7370
 Frc consts  --      0.0117                 0.0196                 0.0352
 IR Inten    --      4.4846                 7.5428                 3.9546

                      7                      8                      9
                      A                      A                      A
 Frequencies --    149.0676               158.6343               176.9538
 Red. masses --      5.4862                 5.8546                 7.0646
 Frc consts  --      0.0718                 0.0868                 0.1303
 IR Inten    --     22.3779                 3.1526                13.2300

                     10                     11                     12
                      A                      A                      A
 Frequencies --    225.6532               248.3034               280.2691
 Red. masses --      3.9574                 2.6138                 6.0288
 Frc consts  --      0.1187                 0.0949                 0.2790
 IR Inten    --     75.3652                11.7000                 7.0293

                     13                     14                     15
                      A                      A                      A
 Frequencies --    319.3446               342.0461               345.0236
 Red. masses --      3.1996                 1.1923                 3.1578
 Frc consts  --      0.1922                 0.0822                 0.2215
 IR Inten    --     10.2831                 0.4591                 4.7197

                     16                     17                     18
                      A                      A                      A
 Frequencies --    380.8292               422.3674               442.3685
 Red. masses --      3.5672                 3.8237                 2.4045
 Frc consts  --      0.3048                 0.4019                 0.2772
 IR Inten    --     15.6075                36.2302                 2.0155

                     19                     20                     21
                      A                      A                      A
 Frequencies --    512.1493               517.7782               533.1817
 Red. masses --      1.1967                 1.2183                 1.7065
 Frc consts  --      0.1849                 0.1924                 0.2858
 IR Inten    --     43.1733                42.4047                67.3433

                     22                     23                     24
                      A                      A                      A
 Frequencies --    548.9271               630.7765               653.2711
 Red. masses --      2.0556                 4.4415                 3.1658
 Frc consts  --      0.3649                 1.0412                 0.7960
 IR Inten    --     61.9546                 6.3878                 8.0560

                     25                     26                     27
                      A                      A                      A
 Frequencies --    673.2423               693.8699               711.7851
 Red. masses --      3.1513                 3.7274                 4.6887
 Frc consts  --      0.8415                 1.0573                 1.3996
 IR Inten    --      5.7158                 8.9090                12.7579

                     28                     29                     30
                      A                      A                      A
 Frequencies --    740.5913               777.7788               838.8568
 Red. masses --      2.5491                 5.6353                 1.3718
 Frc consts  --      0.8237                 2.0085                 0.5687
 IR Inten    --      1.5358                 2.9271                30.9923

                     31                     32                     33
                      A                      A                      A
 Frequencies --    841.4930               845.8027               865.1565
 Red. masses --      2.7736                 1.7085                 2.0056
 Frc consts  --      1.1572                 0.7201                 0.8845
 IR Inten    --      2.9982                11.1845                 8.9711

                     34                     35                     36
                      A                      A                      A
 Frequencies --    875.9227               933.2020               937.5989
 Red. masses --      2.0982                 5.9808                 2.5051
 Frc consts  --      0.9485                 3.0688                 1.2975
 IR Inten    --     13.5763                 7.3564                 5.2433

                     37                     38                     39
                      A                      A                      A
 Frequencies --    952.2023               960.1836              1006.7664
 Red. masses --      1.3502                 3.1659                 2.8288
 Frc consts  --      0.7213                 1.7197                 1.6893
 IR Inten    --      9.6602                 5.2167                10.9801

                     40                     41                     42
                      A                      A                      A
 Frequencies --   1015.7274              1044.2324              1095.5682
 Red. masses --      3.4919                 2.9543                 1.5307
 Frc consts  --      2.1226                 1.8980                 1.0825
 IR Inten    --     13.1900                 5.1631                 4.5166

                     43                     44                     45
                      A                      A                      A
 Frequencies --   1110.9484              1118.0120              1146.1323
 Red. masses --      1.6694                 1.3650                 1.9241
 Frc consts  --      1.2139                 1.0053                 1.4892
 IR Inten    --     21.5657                 5.2670                29.4817

                     46                     47                     48
                      A                      A                      A
 Frequencies --   1156.6418              1187.2826              1208.2696
 Red. masses --      2.0956                 1.4428                 1.7314
 Frc consts  --      1.6518                 1.1983                 1.4893
 IR Inten    --     12.6874                37.0486                20.7909

                     49                     50                     51
                      A                      A                      A
 Frequencies --   1242.7453              1266.4667              1278.5124
 Red. masses --      1.6076                 1.8435                 1.5403
 Frc consts  --      1.4628                 1.7421                 1.4835
 IR Inten    --     72.4809                 4.3500                 7.1564

                     52                     53                     54
                      A                      A                      A
 Frequencies --   1284.6765              1306.2908              1331.4002
 Red. masses --      1.5609                 1.4398                 1.5060
 Frc consts  --      1.5178                 1.4475                 1.5728
 IR Inten    --     59.7024                69.4354               152.5628

                     55                     56                     57
                      A                      A                      A
 Frequencies --   1342.3106              1358.6455              1386.0032
 Red. masses --      1.4908                 1.5005                 1.4206
 Frc consts  --      1.5826                 1.6319                 1.6078
 IR Inten    --     73.9420                14.4290                 3.4401

                     58                     59                     60
                      A                      A                      A
 Frequencies --   1399.5494              1406.6948              1411.3988
 Red. masses --      3.2241                 2.0147                 1.3053
 Frc consts  --      3.7208                 2.3489                 1.5320
 IR Inten    --      7.9970               144.9492                 2.5183

                     61                     62                     63
                      A                      A                      A
 Frequencies --   1433.0139              1481.6224              1483.4864
 Red. masses --      2.8570                 1.1013                 1.1934
 Frc consts  --      3.4567                 1.4244                 1.5475
 IR Inten    --     27.0609                16.0207                17.3862

                     64                     65                     66
                      A                      A                      A
 Frequencies --   1502.5840              1506.6162              1526.0775
 Red. masses --      1.0780                 3.1612                 2.3269
 Frc consts  --      1.4340                 4.2277                 3.1928
 IR Inten    --     16.4189                38.4129               339.9381

                     67                     68                     69
                      A                      A                      A
 Frequencies --   1586.6868              1608.0449              1676.3223
 Red. masses --      1.1562                 4.3191                 1.0500
 Frc consts  --      1.7151                 6.5802                 1.7384
 IR Inten    --    109.7455                 5.8190                69.1724

                     70                     71                     72
                      A                      A                      A
 Frequencies --   1689.5834              1753.1277              1779.5194
 Red. masses --      1.0543                 7.8414                 8.9045
 Frc consts  --      1.7732                14.1994                16.6137
 IR Inten    --     24.7823               251.3147               415.7158

                     73                     74                     75
                      A                      A                      A
 Frequencies --   2833.7087              3044.8440              3062.1651
 Red. masses --      1.0872                 1.0851                 1.0617
 Frc consts  --      5.1435                 5.9270                 5.8654
 IR Inten    --   1231.5625                10.5502                11.6994

                     76                     77                     78
                      A                      A                      A
 Frequencies --   3070.4000              3111.4499              3112.1162
 Red. masses --      1.0639                 1.0607                 1.1037
 Frc consts  --      5.9094                 6.0501                 6.2983
 IR Inten    --      7.1993                 2.3668                 5.6442

                     79                     80                     81
                      A                      A                      A
 Frequencies --   3132.7881              3176.8184              3242.7314
 Red. masses --      1.1018                 1.1118                 1.0966
 Frc consts  --      6.3711                 6.6111                 6.7940
 IR Inten    --      2.3781                 0.2192                 3.9286

                     82                     83                     84
                      A                      A                      A
 Frequencies --   3273.0129              3456.8207              3520.8897
 Red. masses --      1.0990                 1.0542                 1.0929
 Frc consts  --      6.9363                 7.4219                 7.9821
 IR Inten    --      2.0738                81.4361                70.3590

                     85                     86                     87
                      A                      A                      A
 Frequencies --   3551.6423              3650.2423              3783.6145
 Red. masses --      1.0797                 1.0818                 1.0667
 Frc consts  --      8.0246                 8.4924                 8.9968
 IR Inten    --    197.1735                61.9244                85.0885

 - Thermochemistry -
 -------------------
 Temperature   298.150 Kelvin.  Pressure   1.00000 Atm.
 Atom     1 has atomic number  8 and mass  15.99491

 Molecular mass:   227.11442 amu.
 Principal axes and moments of inertia in atomic units:
                           1         2         3
     Eigenvalues --  2359.514885267.023046435.85722
           X            0.98120  -0.09597   0.16743
           Y           -0.19287  -0.45883   0.86734
           Z            0.00642   0.88332   0.46872
 This molecule is an asymmetric top.
 Rotational symmetry number  1.
 Warning -- assumption of classical behavior for rotation
           may cause significant error
 Rotational temperatures (Kelvin)      0.03671     0.01644     0.01346
 Rotational constants (GHZ):           0.76488     0.34265     0.28042
 Zero-point vibrational energy     682288.3 (Joules/Mol)
                                  163.07082 (Kcal/Mol)
 Warning -- explicit consideration of  22 degrees of freedom as
           vibrations may cause significant error
 Vibrational temperatures:     39.94    51.67    85.40    97.35   111.99
          (Kelvin)            161.64   214.47   228.24   254.60   324.66
                              357.25   403.24   459.47   492.13   496.41
                              547.93   607.69   636.47   736.87   744.97
                              767.13   789.78   907.55   939.91   968.64
                              998.32  1024.10  1065.54  1119.05  1206.93
                             1210.72  1216.92  1244.77  1260.26  1342.67
                             1348.99  1370.00  1381.49  1448.51  1461.40
                             1502.42  1576.28  1598.40  1608.57  1649.03
                             1664.15  1708.23  1738.43  1788.03  1822.16
                             1839.49  1848.36  1879.46  1915.59  1931.28
                             1954.79  1994.15  2013.64  2023.92  2030.69
                             2061.78  2131.72  2134.40  2161.88  2167.68
                             2195.68  2282.89  2313.61  2411.85  2430.93
                             2522.36  2560.33  4077.07  4380.85  4405.77
                             4417.62  4476.68  4477.64  4507.38  4570.73
                             4665.56  4709.13  4973.59  5065.77  5110.01
                             5251.88  5443.77

 Zero-point correction=                           0.259870 (Hartree/Particle)
 Thermal correction to Energy=                    0.275441
 Thermal correction to Enthalpy=                  0.276386
 Thermal correction to Gibbs Free Energy=         0.215388
 Sum of electronic and zero-point Energies=           -796.321327
 Sum of electronic and thermal Energies=              -796.305755
 Sum of electronic and thermal Enthalpies=            -796.304811
 Sum of electronic and thermal Free Energies=         -796.365808

                     E (Thermal)             CV                S
                      KCal/Mol        Cal/Mol-Kelvin    Cal/Mol-Kelvin
 Total                  172.842             58.146            128.379
 Electronic               0.000              0.000              0.000
 Translational            0.889              2.981             42.163
 Rotational               0.889              2.981             32.747
 Vibrational            171.065             52.184             53.469
 Vibration     1          0.593              1.984              5.984
 Vibration     2          0.594              1.982              5.473
 Vibration     3          0.597              1.974              4.479
 Vibration     4          0.598              1.970              4.220
 Vibration     5          0.599              1.964              3.945
 Vibration     6          0.607              1.939              3.228
 Vibration     7          0.618              1.904              2.684
 Vibration     8          0.621              1.893              2.566
 Vibration     9          0.628              1.871              2.360
 Vibration    10          0.650              1.802              1.913
 Vibration    11          0.662              1.766              1.743
 Vibration    12          0.680              1.710              1.532
 Vibration    13          0.705              1.637              1.313
 Vibration    14          0.721              1.591              1.203
 Vibration    15          0.723              1.585              1.189
 Vibration    16          0.751              1.511              1.036
 Vibration    17          0.785              1.422              0.884
 Vibration    18          0.802              1.378              0.819
 Vibration    19          0.867              1.223              0.628
 Vibration    20          0.873              1.211              0.615
 Vibration    21          0.888              1.177              0.580
 Vibration    22          0.904              1.142              0.546

 Normal termination of Gaussian 09 at Sat Jul 24 03:24:08 2021.
