 Gaussian 09, Revision D.01,
 Gaussian 09:  ES64L-G09RevD.01 24-Apr-2013

 ----------------------------------------------------------------------
 # B3LYP/6-31+G(d,p) EmpiricalDispersion=GD3BJ opt=calcfc freq=noraman
 nosymm integral(ultrafinegrid)
 ----------------------------------------------------------------------

 ------------------------------------------------------------
 Candidate Structure: Conf:719 OPT and FREQ calc in gas phase
 ------------------------------------------------------------
 Symbolic Z-matrix:
 Charge =  1 Multiplicity = 1

 SCF Done:  E(RB3LYP) =  -796.552346411     A.U. after   17 cycles
 SCF Done:  E(RB3LYP) =  -796.560485933     A.U. after   15 cycles
 SCF Done:  E(RB3LYP) =  -796.561382512     A.U. after   15 cycles
 SCF Done:  E(RB3LYP) =  -796.562729650     A.U. after   12 cycles
 SCF Done:  E(RB3LYP) =  -796.562874228     A.U. after   12 cycles
 SCF Done:  E(RB3LYP) =  -796.562888772     A.U. after   11 cycles
 SCF Done:  E(RB3LYP) =  -796.562890527     A.U. after    9 cycles
 SCF Done:  E(RB3LYP) =  -796.562891148     A.U. after   10 cycles
 SCF Done:  E(RB3LYP) =  -796.562891316     A.U. after    9 cycles
 SCF Done:  E(RB3LYP) =  -796.562891336     A.U. after    8 cycles
 SCF Done:  E(RB3LYP) =  -796.562891341     A.U. after    7 cycles
 Optimization completed.
    -- Stationary point found.
 Normal termination of Gaussian 09 at Sat Jul 24 01:59:35 2021.

 ----------------------------------------------------------------------
 #N Geom=AllCheck Guess=TCheck SCRF=Check GenChk RB3LYP/6-31+G(d,p) Fre
 q
 ----------------------------------------------------------------------

 Structure from the checkpoint file:  "conf-719.chk"
 ------------------------------------------------------------
 Candidate Structure: Conf:719 OPT and FREQ calc in gas phase
 ------------------------------------------------------------
 Charge =  1 Multiplicity = 1

                          Input orientation:
 ---------------------------------------------------------------------
 Center     Atomic      Atomic             Coordinates (Angstroms)
 Number     Number       Type             X           Y           Z
 ---------------------------------------------------------------------
      1          8           0       -0.921879    0.084464    1.307324
      2          6           0       -1.350803    0.201457    0.161830
      3          7           0       -0.577178    0.319425   -0.932396
      4          6           0        0.879000    0.362379   -0.844697
      5          6           0        1.353422    0.907814   -2.182489
      6          8           0        2.689708    1.042196   -2.248526
      7          8           0        0.611942    1.175085   -3.105937
      8          6           0        1.498109   -1.034875   -0.508278
      9          6           0        2.725192   -0.985345    0.337117
     10          6           0        2.908644   -1.312545    1.663356
     11          7           0        4.217583   -1.117852    2.041553
     12          6           0        4.831554   -0.673560    0.964061
     13          7           0        3.975334   -0.578820   -0.099117
     14          6           0       -2.872077    0.179962   -0.093434
     15          6           0       -3.552900    0.710044    1.160315
     16          7           0       -5.043525    0.387376    1.156593
     17          1           0       -0.969892    0.505786   -1.849559
     18          1           0        1.168480    1.059176   -0.050303
     19          1           0        2.910870    1.393129   -3.129845
     20          1           0        0.743092   -1.577214    0.063663
     21          1           0        1.659880   -1.594677   -1.437562
     22          1           0        2.166153   -1.680103    2.357878
     23          1           0        5.877324   -0.410516    0.892412
     24          1           0        4.186761   -0.212397   -1.015065
     25          1           0       -3.152888   -0.866508   -0.274283
     26          1           0       -3.142463    0.759488   -0.982404
     27          1           0       -3.472751    1.794513    1.252583
     28          1           0       -3.123017    0.246096    2.049228
     29          1           0       -5.200188   -0.625924    1.118394
     30          1           0       -5.501178    0.738774    2.004949
     31          1           0       -5.522088    0.803227    0.350352
 ---------------------------------------------------------------------

 SCF Done:  E(RB3LYP) =  -796.562891341     A.U. after    1 cycles

 Alpha  occ. eigenvalues --  -19.33324 -19.27840 -19.26293 -14.66792 -14.50277
 Alpha  occ. eigenvalues --  -14.46644 -14.38700 -10.45509 -10.43899 -10.43526
 Alpha  occ. eigenvalues --  -10.37838 -10.36771 -10.31224 -10.31114 -10.30024
 Alpha  occ. eigenvalues --  -10.27279  -1.24252  -1.20748  -1.18258  -1.15358
 Alpha  occ. eigenvalues --   -1.08782  -1.06769  -0.96925  -0.94507  -0.91211
 Alpha  occ. eigenvalues --   -0.85521  -0.83383  -0.79126  -0.78675  -0.77643
 Alpha  occ. eigenvalues --   -0.74931  -0.71643  -0.69411  -0.68855  -0.66528
 Alpha  occ. eigenvalues --   -0.65503  -0.64639  -0.63009  -0.61508  -0.60024
 Alpha  occ. eigenvalues --   -0.59791  -0.58264  -0.57769  -0.55860  -0.54827
 Alpha  occ. eigenvalues --   -0.53942  -0.53438  -0.51824  -0.50438  -0.49427
 Alpha  occ. eigenvalues --   -0.48541  -0.48309  -0.47786  -0.45376  -0.41454
 Alpha  occ. eigenvalues --   -0.40136  -0.39877  -0.35459  -0.33871  -0.30253
 Alpha virt. eigenvalues --   -0.20107  -0.14232  -0.13573  -0.13136  -0.12588
 Alpha virt. eigenvalues --   -0.11461  -0.10113  -0.09491  -0.08615  -0.07354
 Alpha virt. eigenvalues --   -0.06927  -0.06812  -0.05924  -0.05201  -0.04985

 Mulliken charges:
               1
     1  O   -0.481925
     2  C    0.363416
     3  N   -0.190509
     4  C   -0.664479
     5  C    0.737736
     6  O   -0.478972
     7  O   -0.444698
     8  C   -0.396462
     9  C    0.243597
    10  C   -0.093361
    11  N   -0.285234
    12  C    0.249927
    13  N   -0.282452
    14  C   -0.380359
    15  C   -0.219910
    16  N   -0.599170
    17  H    0.333154
    18  H    0.208232
    19  H    0.408055
    20  H    0.175826
    21  H    0.168866
    22  H    0.131779
    23  H    0.146591
    24  H    0.310495
    25  H    0.191264
    26  H    0.177343
    27  H    0.213904
    28  H    0.247156
    29  H    0.402018
    30  H    0.405734
    31  H    0.402437
 Sum of Mulliken charges =   1.00000

 Dipole moment (field-independent basis, Debye):
    X=            -19.6621    Y=              3.0818    Z=             -1.6054  Tot=             19.9668
 Quadrupole moment (field-independent basis, Debye-Ang):
   XX=             28.5725   YY=            -90.0699   ZZ=            -91.7588
   XY=             -0.2982   XZ=            -45.1803   YZ=              3.6391

  Exact polarizability: 178.781  -1.867  99.724   2.967 -14.197 143.990
 Approx polarizability: 222.043   5.967 149.192  11.775 -19.743 230.033

                      1                      2                      3
                      A                      A                      A
 Frequencies --     22.9322                26.3251                36.5649
 Red. masses --      4.3114                 2.6057                 2.5100
 Frc consts  --      0.0013                 0.0011                 0.0020
 IR Inten    --      7.5559                 3.1307                18.0728

                      4                      5                      6
                      A                      A                      A
 Frequencies --     38.1742                62.8010                76.9499
 Red. masses --      5.5060                 6.9029                 7.6797
 Frc consts  --      0.0047                 0.0160                 0.0268
 IR Inten    --      3.0534                 2.6688                10.4059

                      7                      8                      9
                      A                      A                      A
 Frequencies --     91.7909               112.7979               126.6713
 Red. masses --      3.8333                 4.9921                 4.7232
 Frc consts  --      0.0190                 0.0374                 0.0447
 IR Inten    --      2.5083                 6.9573                 5.2908

                     10                     11                     12
                      A                      A                      A
 Frequencies --    188.3666               217.6089               239.2481
 Red. masses --      4.9507                 2.2405                 1.4623
 Frc consts  --      0.1035                 0.0625                 0.0493
 IR Inten    --      2.5466                11.9435                 2.3578

                     13                     14                     15
                      A                      A                      A
 Frequencies --    271.0049               305.9749               330.1142
 Red. masses --      5.1740                 3.0776                 3.2724
 Frc consts  --      0.2239                 0.1698                 0.2101
 IR Inten    --     18.4643                 3.3173                 3.6884

                     16                     17                     18
                      A                      A                      A
 Frequencies --    347.5998               376.3183               386.9519
 Red. masses --      6.1049                 3.8196                 3.9319
 Frc consts  --      0.4346                 0.3187                 0.3469
 IR Inten    --      9.2271                 2.5599                16.9388

                     19                     20                     21
                      A                      A                      A
 Frequencies --    531.4229               541.3708               558.3265
 Red. masses --      2.3301                 1.5221                 2.1517
 Frc consts  --      0.3877                 0.2628                 0.3952
 IR Inten    --     51.1955                86.5480                11.4377

                     22                     23                     24
                      A                      A                      A
 Frequencies --    596.2951               636.7902               644.9992
 Red. masses --      1.7954                 2.6722                 1.8411
 Frc consts  --      0.3761                 0.6384                 0.4513
 IR Inten    --     38.0394                53.5497                13.7777

                     25                     26                     27
                      A                      A                      A
 Frequencies --    662.4151               675.4338               713.8677
 Red. masses --      2.1657                 2.7138                 3.8704
 Frc consts  --      0.5599                 0.7294                 1.1621
 IR Inten    --     86.7808                 1.3528                 4.1105

                     28                     29                     30
                      A                      A                      A
 Frequencies --    735.2126               771.8670               798.2014
 Red. masses --      3.2287                 3.0925                 1.4348
 Frc consts  --      1.0282                 1.0855                 0.5386
 IR Inten    --     26.7683                 7.5517                10.8976

                     31                     32                     33
                      A                      A                      A
 Frequencies --    820.0378               824.5890               854.0891
 Red. masses --      1.3851                 2.5622                 1.4087
 Frc consts  --      0.5488                 1.0265                 0.6054
 IR Inten    --     23.3450                12.2576                19.2428

                     34                     35                     36
                      A                      A                      A
 Frequencies --    888.0521               918.4191               929.1920
 Red. masses --      2.6821                 1.2751                 3.5608
 Frc consts  --      1.2463                 0.6337                 1.8114
 IR Inten    --     32.0978                 5.0430                20.8454

                     37                     38                     39
                      A                      A                      A
 Frequencies --    936.5213               983.4590              1005.8135
 Red. masses --      5.6901                 2.1267                 4.6001
 Frc consts  --      2.9404                 1.2119                 2.7419
 IR Inten    --      9.1859                16.4781                 9.1439

                     40                     41                     42
                      A                      A                      A
 Frequencies --   1013.9962              1031.0800              1086.4282
 Red. masses --      3.1555                 3.4594                 1.9744
 Frc consts  --      1.9116                 2.1669                 1.3731
 IR Inten    --     33.7018                14.0048                30.7266

                     43                     44                     45
                      A                      A                      A
 Frequencies --   1112.4814              1118.2664              1146.3882
 Red. masses --      2.0800                 1.5913                 2.2001
 Frc consts  --      1.5167                 1.1724                 1.7035
 IR Inten    --     35.5653                36.0762                 3.6797

                     46                     47                     48
                      A                      A                      A
 Frequencies --   1155.8269              1189.2935              1195.2106
 Red. masses --      2.0605                 1.3006                 2.4587
 Frc consts  --      1.6219                 1.0839                 2.0694
 IR Inten    --     24.5045                 7.1526               172.3261

                     49                     50                     51
                      A                      A                      A
 Frequencies --   1243.7391              1271.4452              1279.5463
 Red. masses --      1.5432                 1.9913                 1.5904
 Frc consts  --      1.4064                 1.8967                 1.5341
 IR Inten    --     12.3951                 7.5377                 3.5947

                     52                     53                     54
                      A                      A                      A
 Frequencies --   1288.6819              1304.7123              1318.2425
 Red. masses --      1.3084                 1.3509                 1.2185
 Frc consts  --      1.2802                 1.3549                 1.2476
 IR Inten    --      2.3825                 3.0912                 4.8810

                     55                     56                     57
                      A                      A                      A
 Frequencies --   1328.0428              1357.5583              1361.7985
 Red. masses --      1.2343                 1.4499                 1.4911
 Frc consts  --      1.2826                 1.5743                 1.6292
 IR Inten    --      8.8169                24.7508                25.7400

                     58                     59                     60
                      A                      A                      A
 Frequencies --   1398.3037              1408.4616              1424.3511
 Red. masses --      3.3113                 1.3563                 2.5780
 Frc consts  --      3.8146                 1.5852                 3.0815
 IR Inten    --     49.8023                16.3331               102.3098

                     61                     62                     63
                      A                      A                      A
 Frequencies --   1437.1836              1478.1089              1483.8475
 Red. masses --      2.8612                 1.1440                 1.1170
 Frc consts  --      3.4819                 1.4726                 1.4491
 IR Inten    --     28.9737                23.4978                 1.3530

                     64                     65                     66
                      A                      A                      A
 Frequencies --   1504.6145              1509.1704              1520.1070
 Red. masses --      3.4930                 1.0757                 1.1752
 Frc consts  --      4.6591                 1.4436                 1.5999
 IR Inten    --     29.4096                13.9076               201.8199

                     67                     68                     69
                      A                      A                      A
 Frequencies --   1550.2024              1612.6330              1668.6506
 Red. masses --      2.3987                 4.4497                 1.0423
 Frc consts  --      3.3963                 6.8179                 1.7099
 IR Inten    --    294.9690                 3.8329                51.0928

                     70                     71                     72
                      A                      A                      A
 Frequencies --   1671.5924              1754.1126              1809.6246
 Red. masses --      1.0437                 9.9631                 9.6983
 Frc consts  --      1.7183                18.0618                18.7121
 IR Inten    --     41.8519               281.0682               312.0626

                     73                     74                     75
                      A                      A                      A
 Frequencies --   3038.7824              3045.8979              3077.8491
 Red. masses --      1.0631                 1.0698                 1.0837
 Frc consts  --      5.7841                 5.8475                 6.0484
 IR Inten    --      4.3291                22.1692                 5.4210

                     76                     77                     78
                      A                      A                      A
 Frequencies --   3098.7040              3113.5406              3130.9812
 Red. masses --      1.1014                 1.0600                 1.0950
 Frc consts  --      6.2311                 6.0541                 6.3242
 IR Inten    --      5.7583                 4.4582                 3.6687

                     79                     80                     81
                      A                      A                      A
 Frequencies --   3178.8361              3256.2457              3268.4588
 Red. masses --      1.1121                 1.0965                 1.0984
 Frc consts  --      6.6209                 6.8502                 6.9136
 IR Inten    --      3.3469                 4.5262                 0.8523

                     82                     83                     84
                      A                      A                      A
 Frequencies --   3400.8899              3492.6098              3495.1169
 Red. masses --      1.0304                 1.0935                 1.0938
 Frc consts  --      7.0216                 7.8590                 7.8723
 IR Inten    --     54.5360                95.7754                92.2080

                     85                     86                     87
                      A                      A                      A
 Frequencies --   3570.4693              3670.2202              3735.1936
 Red. masses --      1.0786                 1.0812                 1.0646
 Frc consts  --      8.1017                 8.5813                 8.7513
 IR Inten    --    115.8337                82.8611               124.1503

 - Thermochemistry -
 -------------------
 Temperature   298.150 Kelvin.  Pressure   1.00000 Atm.
 Atom     1 has atomic number  8 and mass  15.99491

 Molecular mass:   227.11442 amu.
 Principal axes and moments of inertia in atomic units:
                           1         2         3
     Eigenvalues --  2243.682177016.003598961.12796
           X            0.98956  -0.00279   0.14409
           Y           -0.13468  -0.37363   0.91775
           Z           -0.05127   0.92757   0.37011
 This molecule is an asymmetric top.
 Rotational symmetry number  1.
 Warning -- assumption of classical behavior for rotation
           may cause significant error
 Rotational temperatures (Kelvin)      0.03860     0.01235     0.00967
 Rotational constants (GHZ):           0.80437     0.25723     0.20140
 Zero-point vibrational energy     681225.8 (Joules/Mol)
                                  162.81688 (Kcal/Mol)
 Warning -- explicit consideration of  22 degrees of freedom as
           vibrations may cause significant error
 Vibrational temperatures:     32.99    37.88    52.61    54.92    90.36
          (Kelvin)            110.71   132.07   162.29   182.25   271.02
                              313.09   344.22   389.92   440.23   474.96
                              500.12   541.44   556.74   764.60   778.91
                              803.31   857.93   916.20   928.01   953.07
                              971.80  1027.10  1057.81  1110.54  1148.43
                             1179.85  1186.40  1228.84  1277.71  1321.40
                             1336.90  1347.44  1414.98  1447.14  1458.91
                             1483.49  1563.13  1600.61  1608.93  1649.39
                             1662.98  1711.13  1719.64  1789.46  1829.32
                             1840.98  1854.12  1877.19  1896.65  1910.76
                             1953.22  1959.32  2011.84  2026.46  2049.32
                             2067.78  2126.67  2134.92  2164.80  2171.36
                             2187.09  2230.39  2320.22  2400.81  2405.05
                             2523.77  2603.64  4372.12  4382.36  4428.33
                             4458.34  4479.68  4504.78  4573.63  4685.01
                             4702.58  4893.12  5025.08  5028.69  5137.10
                             5280.62  5374.10

 Zero-point correction=                           0.259465 (Hartree/Particle)
 Thermal correction to Energy=                    0.275935
 Thermal correction to Enthalpy=                  0.276880
 Thermal correction to Gibbs Free Energy=         0.211699
 Sum of electronic and zero-point Energies=           -796.303426
 Sum of electronic and thermal Energies=              -796.286956
 Sum of electronic and thermal Enthalpies=            -796.286012
 Sum of electronic and thermal Free Energies=         -796.351193

                     E (Thermal)             CV                S
                      KCal/Mol        Cal/Mol-Kelvin    Cal/Mol-Kelvin
 Total                  173.152             59.036            137.185
 Electronic               0.000              0.000              0.000
 Translational            0.889              2.981             42.163
 Rotational               0.889              2.981             33.311
 Vibrational            171.375             53.075             61.710
 Vibration     1          0.593              1.985              6.363
 Vibration     2          0.593              1.985              6.089
 Vibration     3          0.594              1.982              5.437
 Vibration     4          0.594              1.982              5.352
 Vibration     5          0.597              1.972              4.367
 Vibration     6          0.599              1.965              3.967
 Vibration     7          0.602              1.955              3.622
 Vibration     8          0.607              1.939              3.220
 Vibration     9          0.611              1.926              2.996
 Vibration    10          0.633              1.856              2.244
 Vibration    11          0.646              1.814              1.979
 Vibration    12          0.657              1.780              1.808
 Vibration    13          0.675              1.727              1.590
 Vibration    14          0.696              1.662              1.384
 Vibration    15          0.713              1.615              1.260
 Vibration    16          0.725              1.580              1.177
 Vibration    17          0.747              1.521              1.054
 Vibration    18          0.755              1.498              1.012
 Vibration    19          0.886              1.180              0.584
 Vibration    20          0.896              1.159              0.562
 Vibration    21          0.914              1.122              0.527
 Vibration    22          0.954              1.040              0.456

 Optimization completed on the basis of negligible forces.
    -- Stationary point found.
 Normal termination of Gaussian 09 at Sat Jul 24 02:41:42 2021.
