 Gaussian 09, Revision D.01,
 Gaussian 09:  ES64L-G09RevD.01 24-Apr-2013

 ----------------------------------------------------------------------
 # B3LYP/6-31+G(d,p) EmpiricalDispersion=GD3BJ opt=calcfc freq=noraman
 nosymm integral(ultrafinegrid)
 ----------------------------------------------------------------------

 ------------------------------------------------------------
 Candidate Structure: Conf:885 OPT and FREQ calc in gas phase
 ------------------------------------------------------------
 Symbolic Z-matrix:
 Charge =  1 Multiplicity = 1

 SCF Done:  E(RB3LYP) =  -796.571313306     A.U. after   15 cycles
 SCF Done:  E(RB3LYP) =  -796.577626209     A.U. after   16 cycles
 SCF Done:  E(RB3LYP) =  -796.577654583     A.U. after   16 cycles
 SCF Done:  E(RB3LYP) =  -796.579563111     A.U. after   16 cycles
 SCF Done:  E(RB3LYP) =  -795.462261884     A.U. after   18 cycles
 SCF Done:  E(RB3LYP) =  -796.533763954     A.U. after   14 cycles
 SCF Done:  E(RB3LYP) =  -796.579850390     A.U. after   12 cycles
 SCF Done:  E(RB3LYP) =  -796.580270601     A.U. after   14 cycles
 SCF Done:  E(RB3LYP) =  -796.580398431     A.U. after   12 cycles
 SCF Done:  E(RB3LYP) =  -796.580615124     A.U. after   13 cycles
 SCF Done:  E(RB3LYP) =  -796.581039224     A.U. after   12 cycles
 SCF Done:  E(RB3LYP) =  -796.581111097     A.U. after   13 cycles
 SCF Done:  E(RB3LYP) =  -796.581182823     A.U. after   15 cycles
 SCF Done:  E(RB3LYP) =  -796.581194236     A.U. after   12 cycles
 SCF Done:  E(RB3LYP) =  -796.581202102     A.U. after   12 cycles
 SCF Done:  E(RB3LYP) =  -796.581202886     A.U. after   10 cycles
 SCF Done:  E(RB3LYP) =  -796.581203295     A.U. after   11 cycles
 SCF Done:  E(RB3LYP) =  -796.581203520     A.U. after    9 cycles
 SCF Done:  E(RB3LYP) =  -796.581203561     A.U. after    9 cycles
 Optimization completed.
    -- Stationary point found.
 Normal termination of Gaussian 09 at Sat Jul 24 03:13:27 2021.

 ----------------------------------------------------------------------
 #N Geom=AllCheck Guess=TCheck SCRF=Check GenChk RB3LYP/6-31+G(d,p) Fre
 q
 ----------------------------------------------------------------------

 Structure from the checkpoint file:  "conf-885.chk"
 ------------------------------------------------------------
 Candidate Structure: Conf:885 OPT and FREQ calc in gas phase
 ------------------------------------------------------------
 Charge =  1 Multiplicity = 1

                          Input orientation:
 ---------------------------------------------------------------------
 Center     Atomic      Atomic             Coordinates (Angstroms)
 Number     Number       Type             X           Y           Z
 ---------------------------------------------------------------------
      1          8           0       -1.489076    0.156007   -1.004497
      2          6           0       -1.510876   -0.913457   -0.362263
      3          7           0       -0.417440   -1.463095    0.193445
      4          6           0        0.787546   -0.685956    0.498427
      5          6           0        0.406993    0.393716    1.525623
      6          8           0        1.491005    0.932192    2.082260
      7          8           0       -0.736016    0.696340    1.814649
      8          6           0        1.487098   -0.140660   -0.787122
      9          6           0        2.778691    0.558268   -0.549587
     10          6           0        3.106716    1.893374   -0.617022
     11          7           0        4.422837    2.096876   -0.270241
     12          6           0        4.902713    0.903116    0.005851
     13          7           0        3.947047   -0.068567   -0.142095
     14          6           0       -2.857021   -1.585130   -0.127839
     15          6           0       -3.762063   -0.576354    0.602572
     16          7           0       -3.873382    0.686433   -0.225462
     17          1           0       -0.559232   -2.301588    0.740004
     18          1           0        1.479836   -1.368089    0.999573
     19          1           0        1.221467    1.629480    2.706442
     20          1           0        1.612285   -1.006910   -1.448471
     21          1           0        0.806936    0.545857   -1.290318
     22          1           0        2.462292    2.715507   -0.896926
     23          1           0        5.916660    0.678535    0.304896
     24          1           0        4.100239   -1.061512   -0.043495
     25          1           0       -3.290365   -1.870094   -1.092695
     26          1           0       -2.785684   -2.486673    0.485319
     27          1           0       -4.761145   -0.976899    0.777239
     28          1           0       -3.311978   -0.282434    1.552356
     29          1           0       -4.585925    0.610861   -0.954985
     30          1           0       -4.082884    1.505922    0.348086
     31          1           0       -2.907188    0.785013   -0.691727
 ---------------------------------------------------------------------

 SCF Done:  E(RB3LYP) =  -796.581203561     A.U. after    1 cycles

 Alpha  occ. eigenvalues --  -19.33506 -19.29642 -19.28531 -14.60877 -14.53213
 Alpha  occ. eigenvalues --  -14.48506 -14.40205 -10.46570 -10.46314 -10.42277
 Alpha  occ. eigenvalues --  -10.39105 -10.37760 -10.32809 -10.32493 -10.31608
 Alpha  occ. eigenvalues --  -10.28808  -1.24783  -1.21573  -1.15873  -1.15425
 Alpha  occ. eigenvalues --   -1.10392  -1.09542  -0.96524  -0.95957  -0.92391
 Alpha  occ. eigenvalues --   -0.85962  -0.83048  -0.79273  -0.77825  -0.75002
 Alpha  occ. eigenvalues --   -0.74057  -0.72770  -0.70419  -0.68700  -0.67784
 Alpha  occ. eigenvalues --   -0.66450  -0.64608  -0.63182  -0.62655  -0.61458
 Alpha  occ. eigenvalues --   -0.60000  -0.59360  -0.57908  -0.57220  -0.55914
 Alpha  occ. eigenvalues --   -0.55102  -0.54103  -0.53138  -0.52611  -0.51365
 Alpha  occ. eigenvalues --   -0.50158  -0.49554  -0.49085  -0.45932  -0.43665
 Alpha  occ. eigenvalues --   -0.43274  -0.41492  -0.37064  -0.35347  -0.31727
 Alpha virt. eigenvalues --   -0.16702  -0.15651  -0.13836  -0.12755  -0.11446
 Alpha virt. eigenvalues --   -0.11152  -0.09547  -0.09050  -0.08613  -0.07410
 Alpha virt. eigenvalues --   -0.07147  -0.06626  -0.06333  -0.05328  -0.04635

 Mulliken charges:
               1
     1  O   -0.448645
     2  C    0.172043
     3  N   -0.273615
     4  C   -0.227363
     5  C    0.581081
     6  O   -0.374250
     7  O   -0.449088
     8  C   -1.127839
     9  C    0.776680
    10  C   -0.030757
    11  N   -0.254401
    12  C    0.270492
    13  N   -0.386683
    14  C   -0.324911
    15  C   -0.155430
    16  N   -0.651429
    17  H    0.324079
    18  H    0.176798
    19  H    0.393315
    20  H    0.175349
    21  H    0.204546
    22  H    0.129907
    23  H    0.151002
    24  H    0.300304
    25  H    0.208756
    26  H    0.183889
    27  H    0.207017
    28  H    0.230811
    29  H    0.386031
    30  H    0.391917
    31  H    0.440394
 Sum of Mulliken charges =   1.00000

 Dipole moment (field-independent basis, Debye):
    X=            -12.4412    Y=             -4.8791    Z=              2.1841  Tot=             13.5410
 Quadrupole moment (field-independent basis, Debye-Ang):
   XX=            -26.9147   YY=            -81.7866   ZZ=            -88.4560
   XY=            -17.4322   XZ=              6.5359   YZ=              0.6383

  Exact polarizability: 181.382  10.288 129.511   5.187  -0.790 106.453
 Approx polarizability: 231.416   0.939 211.335  13.349  -8.746 160.022

                      1                      2                      3
                      A                      A                      A
 Frequencies --      5.4243                18.7382                39.8735
 Red. masses --      4.5128                 4.6357                 4.9856
 Frc consts  --      0.0001                 0.0010                 0.0047
 IR Inten    --      9.9464                 8.7836                 1.7953

                      4                      5                      6
                      A                      A                      A
 Frequencies --     65.4305                71.2679                81.7962
 Red. masses --      4.6740                 5.4756                 5.0501
 Frc consts  --      0.0118                 0.0164                 0.0199
 IR Inten    --      1.6198                 6.1099                 7.3882

                      7                      8                      9
                      A                      A                      A
 Frequencies --    121.7711               161.6705               178.5996
 Red. masses --      4.7127                 4.6660                 3.6164
 Frc consts  --      0.0412                 0.0719                 0.0680
 IR Inten    --      2.4026                 4.0424                 2.6106

                     10                     11                     12
                      A                      A                      A
 Frequencies --    214.2784               284.1108               311.1327
 Red. masses --      4.1884                 4.9214                 3.0366
 Frc consts  --      0.1133                 0.2341                 0.1732
 IR Inten    --      5.6988                37.6079                58.5515

                     13                     14                     15
                      A                      A                      A
 Frequencies --    320.9319               338.2577               368.9552
 Red. masses --      2.1666                 1.8485                 2.6471
 Frc consts  --      0.1315                 0.1246                 0.2123
 IR Inten    --      7.9358                23.7801                12.9863

                     16                     17                     18
                      A                      A                      A
 Frequencies --    380.2720               386.8192               451.8616
 Red. masses --      4.4312                 2.6085                 3.5076
 Frc consts  --      0.3775                 0.2300                 0.4220
 IR Inten    --     34.6038                16.4404                11.4835

                     19                     20                     21
                      A                      A                      A
 Frequencies --    501.9537               519.2170               570.3360
 Red. masses --      1.4049                 2.7122                 1.9857
 Frc consts  --      0.2086                 0.4308                 0.3806
 IR Inten    --     89.7683                51.0058                11.1517

                     22                     23                     24
                      A                      A                      A
 Frequencies --    598.6139               612.7072               657.3298
 Red. masses --      1.3644                 1.7693                 2.7168
 Frc consts  --      0.2881                 0.3914                 0.6916
 IR Inten    --     79.2545                81.1255                39.7905

                     25                     26                     27
                      A                      A                      A
 Frequencies --    671.9486               699.9229               736.9273
 Red. masses --      3.2129                 4.0835                 3.5073
 Frc consts  --      0.8547                 1.1787                 1.1222
 IR Inten    --     10.7442                 2.2558                31.1317

                     28                     29                     30
                      A                      A                      A
 Frequencies --    744.7458               784.1389               785.3894
 Red. masses --      3.7759                 2.6825                 3.6162
 Frc consts  --      1.2339                 0.9718                 1.3142
 IR Inten    --     20.7258                23.1981                 2.4149

                     31                     32                     33
                      A                      A                      A
 Frequencies --    822.5028               847.7491               856.8103
 Red. masses --      1.3865                 2.6395                 1.4187
 Frc consts  --      0.5526                 1.1176                 0.6137
 IR Inten    --     22.9204                22.0110                15.3278

                     34                     35                     36
                      A                      A                      A
 Frequencies --    888.1293               932.5517               934.3793
 Red. masses --      2.5265                 2.9525                 2.8087
 Frc consts  --      1.1741                 1.5128                 1.4448
 IR Inten    --     38.9208                14.4394                16.0943

                     37                     38                     39
                      A                      A                      A
 Frequencies --    963.0874               986.5468               997.8457
 Red. masses --      1.4176                 2.5447                 2.9639
 Frc consts  --      0.7747                 1.4592                 1.7387
 IR Inten    --      5.7573                 1.6501                 6.6636

                     40                     41                     42
                      A                      A                      A
 Frequencies --   1021.0385              1040.3580              1085.9006
 Red. masses --      3.7399                 3.7926                 2.7235
 Frc consts  --      2.2972                 2.4186                 1.8922
 IR Inten    --     11.8986                 1.5811                16.6773

                     43                     44                     45
                      A                      A                      A
 Frequencies --   1111.3390              1129.3713              1136.0724
 Red. masses --      1.6321                 1.4120                 1.5316
 Frc consts  --      1.1877                 1.0611                 1.1647
 IR Inten    --     25.1779               101.7685                 1.5444

                     46                     47                     48
                      A                      A                      A
 Frequencies --   1156.2447              1174.9790              1187.6531
 Red. masses --      2.0083                 1.7896                 1.5619
 Frc consts  --      1.5819                 1.4557                 1.2980
 IR Inten    --     22.2045               108.9703                65.0193

                     49                     50                     51
                      A                      A                      A
 Frequencies --   1253.3153              1271.2265              1280.4089
 Red. masses --      1.4451                 2.1293                 1.3918
 Frc consts  --      1.3375                 2.0274                 1.3444
 IR Inten    --     12.0846                14.5272                 2.6160

                     52                     53                     54
                      A                      A                      A
 Frequencies --   1308.1819              1312.0938              1327.0590
 Red. masses --      1.5449                 1.4270                 1.3353
 Frc consts  --      1.5577                 1.4474                 1.3855
 IR Inten    --     22.7164                12.5508                23.5344

                     55                     56                     57
                      A                      A                      A
 Frequencies --   1329.8584              1355.7276              1382.5483
 Red. masses --      1.3634                 1.5253                 1.5058
 Frc consts  --      1.4206                 1.6518                 1.6958
 IR Inten    --     51.3115                27.0038                33.2802

                     58                     59                     60
                      A                      A                      A
 Frequencies --   1395.1729              1411.7333              1425.0665
 Red. masses --      3.1549                 1.2149                 2.3589
 Frc consts  --      3.6182                 1.4266                 2.8225
 IR Inten    --     28.1562                37.2508                38.4636

                     61                     62                     63
                      A                      A                      A
 Frequencies --   1434.6956              1484.3028              1492.6600
 Red. masses --      2.9010                 1.1053                 1.2283
 Frc consts  --      3.5182                 1.4347                 1.6124
 IR Inten    --     26.9879                30.8748               326.1998

                     64                     65                     66
                      A                      A                      A
 Frequencies --   1494.8566              1507.4880              1513.1290
 Red. masses --      1.3533                 2.2929                 1.1099
 Frc consts  --      1.7817                 3.0700                 1.4972
 IR Inten    --      1.4213                18.6155               221.1320

                     67                     68                     69
                      A                      A                      A
 Frequencies --   1578.5232              1618.2350              1632.6335
 Red. masses --      2.1782                 4.5989                 1.1328
 Frc consts  --      3.1977                 7.0955                 1.7791
 IR Inten    --    128.1987                 4.3433                 5.3452

                     70                     71                     72
                      A                      A                      A
 Frequencies --   1675.8548              1709.6871              1791.9571
 Red. masses --      1.0487                 3.4931                10.1332
 Frc consts  --      1.7354                 6.0157                19.1714
 IR Inten    --     32.3844               110.1702               429.8735

                     73                     74                     75
                      A                      A                      A
 Frequencies --   2616.0808              3047.0378              3074.0419
 Red. masses --      1.0915                 1.0717                 1.0637
 Frc consts  --      4.4012                 5.8624                 5.9220
 IR Inten    --   1036.0907                18.4144                 1.4074

                     76                     77                     78
                      A                      A                      A
 Frequencies --   3097.5964              3109.1765              3133.9192
 Red. masses --      1.0856                 1.0609                 1.1022
 Frc consts  --      6.1370                 6.0424                 6.3780
 IR Inten    --      4.4088                 2.4036                 1.9599

                     79                     80                     81
                      A                      A                      A
 Frequencies --   3158.6198              3173.5261              3251.2970
 Red. masses --      1.0924                 1.1127                 1.0969
 Frc consts  --      6.4211                 6.6023                 6.8315
 IR Inten    --      1.0382                 0.0954                 4.4788

                     82                     83                     84
                      A                      A                      A
 Frequencies --   3270.0272              3468.5218              3542.0676
 Red. masses --      1.0985                 1.0529                 1.0950
 Frc consts  --      6.9205                 7.4634                 8.0945
 IR Inten    --      1.0701                89.9654                79.5847

                     85                     86                     87
                      A                      A                      A
 Frequencies --   3628.4556              3656.2401              3737.6222
 Red. masses --      1.0785                 1.0814                 1.0648
 Frc consts  --      8.3659                 8.5172                 8.7645
 IR Inten    --     48.5954                47.5759               107.0168

 - Thermochemistry -
 -------------------
 Temperature   298.150 Kelvin.  Pressure   1.00000 Atm.
 Atom     1 has atomic number  8 and mass  15.99491

 Molecular mass:   227.11442 amu.
 Principal axes and moments of inertia in atomic units:
                           1         2         3
     Eigenvalues --  1380.430527048.835007230.27207
           X            0.97716  -0.09578  -0.18970
           Y            0.21125   0.53481   0.81814
           Z           -0.02309   0.83953  -0.54282
 This molecule is an asymmetric top.
 Rotational symmetry number  1.
 Warning -- assumption of classical behavior for rotation
           may cause significant error
 Rotational temperatures (Kelvin)      0.06274     0.01229     0.01198
 Rotational constants (GHZ):           1.30738     0.25603     0.24961
 Zero-point vibrational energy     681318.9 (Joules/Mol)
                                  162.83912 (Kcal/Mol)
 Warning -- explicit consideration of  23 degrees of freedom as
           vibrations may cause significant error
 Vibrational temperatures:      7.80    26.96    57.37    94.14   102.54
          (Kelvin)            117.69   175.20   232.61   256.96   308.30
                              408.77   447.65   461.75   486.68   530.84
                              547.13   556.55   650.13   722.20   747.04
                              820.59   861.27   881.55   945.75   966.78
                             1007.03  1060.27  1071.52  1128.20  1130.00
                             1183.40  1219.72  1232.76  1277.82  1341.73
                             1344.36  1385.67  1419.42  1435.68  1469.04
                             1496.84  1562.37  1598.97  1624.91  1634.55
                             1663.58  1690.53  1708.77  1803.24  1829.01
                             1842.22  1882.18  1887.81  1909.34  1913.37
                             1950.59  1989.18  2007.34  2031.17  2050.35
                             2064.20  2135.58  2147.60  2150.76  2168.94
                             2177.05  2271.14  2328.28  2348.99  2411.18
                             2459.86  2578.22  3763.95  4384.00  4422.86
                             4456.74  4473.41  4509.01  4544.54  4565.99
                             4677.89  4704.83  4990.42  5096.24  5220.53
                             5260.51  5377.60

 Zero-point correction=                           0.259501 (Hartree/Particle)
 Thermal correction to Energy=                    0.275213
 Thermal correction to Enthalpy=                  0.276157
 Thermal correction to Gibbs Free Energy=         0.212330
 Sum of electronic and zero-point Energies=           -796.321703
 Sum of electronic and thermal Energies=              -796.305991
 Sum of electronic and thermal Enthalpies=            -796.305047
 Sum of electronic and thermal Free Energies=         -796.368873

                     E (Thermal)             CV                S
                      KCal/Mol        Cal/Mol-Kelvin    Cal/Mol-Kelvin
 Total                  172.698             58.006            134.334
 Electronic               0.000              0.000              0.000
 Translational            0.889              2.981             42.163
 Rotational               0.889              2.981             32.620
 Vibrational            170.921             52.044             59.551
 Vibration     1          0.593              1.987              9.226
 Vibration     2          0.593              1.986              6.764
 Vibration     3          0.594              1.981              5.265
 Vibration     4          0.597              1.971              4.286
 Vibration     5          0.598              1.968              4.118
 Vibration     6          0.600              1.962              3.847
 Vibration     7          0.609              1.931              3.072
 Vibration     8          0.622              1.889              2.530
 Vibration     9          0.629              1.869              2.343
 Vibration    10          0.644              1.819              2.007
 Vibration    11          0.683              1.703              1.509
 Vibration    12          0.700              1.652              1.356
 Vibration    13          0.706              1.633              1.305
 Vibration    14          0.719              1.599              1.220
 Vibration    15          0.741              1.536              1.084
 Vibration    16          0.750              1.512              1.038
 Vibration    17          0.755              1.498              1.012
 Vibration    18          0.811              1.357              0.790
 Vibration    19          0.857              1.246              0.653
 Vibration    20          0.874              1.207              0.612
 Vibration    21          0.926              1.095              0.504
 Vibration    22          0.957              1.035              0.452
 Vibration    23          0.972              1.005              0.428

 Normal termination of Gaussian 09 at Sat Jul 24 03:55:57 2021.
