 Gaussian 09, Revision D.01,
 Gaussian 09:  ES64L-G09RevD.01 24-Apr-2013

 ----------------------------------------------------------------------
 # B3LYP/6-311G(d,p) EmpiricalDispersion=GD3BJ opt=calcfc freq=noraman
 nosymm integral(ultrafinegrid)
 ----------------------------------------------------------------------

 ------------------------------------------------------------
 Candidate Structure: Conf:295 OPT and FREQ calc in gas phase
 ------------------------------------------------------------
 Symbolic Z-matrix:
 Charge =  0 Multiplicity = 1

 SCF Done:  E(RB3LYP) =  -796.361958983     A.U. after   14 cycles
 SCF Done:  E(RB3LYP) =  -796.364977079     A.U. after   14 cycles
 SCF Done:  E(RB3LYP) =  -796.364578667     A.U. after   14 cycles
 SCF Done:  E(RB3LYP) =  -796.365163672     A.U. after   11 cycles
 SCF Done:  E(RB3LYP) =  -796.365607836     A.U. after   11 cycles
 SCF Done:  E(RB3LYP) =  -796.365819273     A.U. after   11 cycles
 SCF Done:  E(RB3LYP) =  -796.365917561     A.U. after   11 cycles
 SCF Done:  E(RB3LYP) =  -796.365956945     A.U. after   11 cycles
 SCF Done:  E(RB3LYP) =  -796.365965653     A.U. after   10 cycles
 SCF Done:  E(RB3LYP) =  -796.365967736     A.U. after    9 cycles
 SCF Done:  E(RB3LYP) =  -796.365968017     A.U. after    8 cycles
 SCF Done:  E(RB3LYP) =  -796.365968047     A.U. after    7 cycles
 Optimization completed on the basis of negligible forces.
    -- Stationary point found.
 Normal termination of Gaussian 09 at Sat Jul 24 01:34:36 2021.

 ----------------------------------------------------------------------
 #N Geom=AllCheck Guess=TCheck SCRF=Check GenChk RB3LYP/6-311G(d,p) Fre
 q
 ----------------------------------------------------------------------

 Structure from the checkpoint file:  "conf-295.chk"
 ------------------------------------------------------------
 Candidate Structure: Conf:295 OPT and FREQ calc in gas phase
 ------------------------------------------------------------
 Charge =  0 Multiplicity = 1

                          Input orientation:
 ---------------------------------------------------------------------
 Center     Atomic      Atomic             Coordinates (Angstroms)
 Number     Number       Type             X           Y           Z
 ---------------------------------------------------------------------
      1          8           0        1.295219    0.918514   -0.702333
      2          6           0        1.730140    0.055686    0.048459
      3          7           0        0.920082   -0.597666    0.927872
      4          6           0       -0.473928   -0.233739    1.072902
      5          6           0       -0.938770   -0.806861    2.397140
      6          8           0       -2.232387   -0.517106    2.676045
      7          8           0       -0.261478   -1.469430    3.140641
      8          6           0       -1.338772   -0.727323   -0.132157
      9          6           0       -2.484883    0.151931   -0.498034
     10          6           0       -2.691177    0.937772   -1.606321
     11          7           0       -3.906749    1.580574   -1.536514
     12          6           0       -4.435992    1.198752   -0.396884
     13          7           0       -3.622258    0.326350    0.268814
     14          6           0        3.188882   -0.380349    0.071158
     15          6           0        4.028083    0.344027   -0.977408
     16          7           0        3.590194   -0.038008   -2.322777
     17          1           0        1.301139   -1.236761    1.610555
     18          1           0       -0.563881    0.856825    1.111614
     19          1           0       -2.425723   -0.928855    3.532331
     20          1           0       -0.667502   -0.743875   -0.988799
     21          1           0       -1.658313   -1.759936    0.046673
     22          1           0       -2.024290    1.071954   -2.443724
     23          1           0       -5.391309    1.512699   -0.004932
     24          1           0       -3.747467   -0.046642    1.196055
     25          1           0        3.589388   -0.202049    1.075878
     26          1           0        3.232828   -1.458293   -0.114213
     27          1           0        5.070316    0.037004   -0.852786
     28          1           0        3.978591    1.425642   -0.784020
     29          1           0        2.696679    0.410797   -2.501457
     30          1           0        4.243356    0.318370   -3.012535
 ---------------------------------------------------------------------

 SCF Done:  E(RB3LYP) =  -796.365968047     A.U. after    1 cycles

 Alpha  occ. eigenvalues --  -19.20768 -19.14885 -19.09376 -14.35869 -14.34602
 Alpha  occ. eigenvalues --  -14.28022 -14.27578 -10.34099 -10.27933 -10.24906
 Alpha  occ. eigenvalues --  -10.21569 -10.19968 -10.19940 -10.19243 -10.18157
 Alpha  occ. eigenvalues --  -10.17214  -1.15266  -1.06337  -1.05065  -1.00992
 Alpha  occ. eigenvalues --   -0.94343  -0.87625  -0.86637  -0.81495  -0.76538
 Alpha  occ. eigenvalues --   -0.74303  -0.68994  -0.65821  -0.61498  -0.60953
 Alpha  occ. eigenvalues --   -0.60085  -0.58561  -0.54772  -0.53009  -0.52605
 Alpha  occ. eigenvalues --   -0.50413  -0.50125  -0.48681  -0.48221  -0.46487
 Alpha  occ. eigenvalues --   -0.45987  -0.44542  -0.43357  -0.42456  -0.41752
 Alpha  occ. eigenvalues --   -0.40586  -0.40291  -0.39675  -0.39431  -0.37628
 Alpha  occ. eigenvalues --   -0.36605  -0.36335  -0.35936  -0.32093  -0.27929
 Alpha  occ. eigenvalues --   -0.27523  -0.26686  -0.26210  -0.23446  -0.22363
 Alpha virt. eigenvalues --   -0.03163   0.00419   0.00997   0.02188   0.03906
 Alpha virt. eigenvalues --    0.05797   0.06313   0.06386   0.07478   0.08036
 Alpha virt. eigenvalues --    0.08373   0.08906   0.10240   0.10917   0.11808

 Mulliken charges:
               1
     1  O   -0.391421
     2  C    0.389691
     3  N   -0.423195
     4  C   -0.046536
     5  C    0.383228
     6  O   -0.346021
     7  O   -0.328161
     8  C   -0.181576
     9  C    0.082886
    10  C   -0.053675
    11  N   -0.299917
    12  C    0.147343
    13  N   -0.367729
    14  C   -0.264946
    15  C   -0.100879
    16  N   -0.469425
    17  H    0.240297
    18  H    0.178455
    19  H    0.268395
    20  H    0.161588
    21  H    0.124947
    22  H    0.100683
    23  H    0.104001
    24  H    0.227847
    25  H    0.127827
    26  H    0.136356
    27  H    0.105720
    28  H    0.102751
    29  H    0.205247
    30  H    0.186219
 Sum of Mulliken charges =   0.00000

 Dipole moment (field-independent basis, Debye):
    X=              0.4295    Y=             -2.3190    Z=              4.9109  Tot=              5.4479
 Quadrupole moment (field-independent basis, Debye-Ang):
   XX=            -86.6629   YY=           -101.0494   ZZ=            -92.1552
   XY=             10.6642   XZ=            -18.2556   YZ=              2.3075

  Exact polarizability: 160.358 -15.824 101.927  -7.902 -21.760 130.888
 Approx polarizability: 203.991 -26.348 168.792  -5.033 -39.467 199.130

                      1                      2                      3
                      A                      A                      A
 Frequencies --      3.4595                26.3146                32.6602
 Red. masses --      3.5348                 4.5395                 7.2718
 Frc consts  --      0.0000                 0.0019                 0.0046
 IR Inten    --      1.8497                 1.4645                 1.1227

                      4                      5                      6
                      A                      A                      A
 Frequencies --     47.5716                65.7623                72.4959
 Red. masses --      4.5218                 7.2606                 5.6006
 Frc consts  --      0.0060                 0.0185                 0.0173
 IR Inten    --      1.7510                 1.7719                 2.6493

                      7                      8                      9
                      A                      A                      A
 Frequencies --    127.9674               129.7220               160.3672
 Red. masses --      5.4175                 4.9779                 3.6413
 Frc consts  --      0.0523                 0.0494                 0.0552
 IR Inten    --      1.9167                 6.8631                 3.5194

                     10                     11                     12
                      A                      A                      A
 Frequencies --    195.4433               246.2376               277.8220
 Red. masses --      4.6579                 2.7917                 5.6265
 Frc consts  --      0.1048                 0.0997                 0.2559
 IR Inten    --      0.7173                29.9660                 0.6909

                     13                     14                     15
                      A                      A                      A
 Frequencies --    308.8725               324.0966               330.7119
 Red. masses --      2.4557                 1.4254                 3.4296
 Frc consts  --      0.1380                 0.0882                 0.2210
 IR Inten    --      8.4669                34.6820                 6.4570

                     16                     17                     18
                      A                      A                      A
 Frequencies --    346.5425               379.4172               429.0644
 Red. masses --      3.5115                 4.1322                 2.5737
 Frc consts  --      0.2485                 0.3505                 0.2792
 IR Inten    --     17.8848                 5.3292                35.5033

                     19                     20                     21
                      A                      A                      A
 Frequencies --    485.4711               561.2907               567.7149
 Red. masses --      1.3270                 1.7944                 2.2184
 Frc consts  --      0.1843                 0.3331                 0.4213
 IR Inten    --     71.3535                35.8748                39.3937

                     22                     23                     24
                      A                      A                      A
 Frequencies --    592.8447               612.7706               635.1884
 Red. masses --      1.8260                 2.1570                 3.2230
 Frc consts  --      0.3781                 0.4772                 0.7662
 IR Inten    --     37.1928                 3.6237                42.5508

                     25                     26                     27
                      A                      A                      A
 Frequencies --    668.5848               682.3807               685.9866
 Red. masses --      2.2532                 3.3465                 2.3687
 Frc consts  --      0.5934                 0.9181                 0.6567
 IR Inten    --     86.5838                10.3607                 0.5996

                     28                     29                     30
                      A                      A                      A
 Frequencies --    737.5749               773.9736               808.6426
 Red. masses --      3.1354                 3.9533                 1.4253
 Frc consts  --      1.0050                 1.3953                 0.5491
 IR Inten    --     25.0388                 4.2996                19.2742

                     31                     32                     33
                      A                      A                      A
 Frequencies --    815.8329               852.6039               876.5600
 Red. masses --      2.7039                 1.4443                 1.9426
 Frc consts  --      1.0603                 0.6186                 0.8794
 IR Inten    --     13.1121                18.7554                64.3392

                     34                     35                     36
                      A                      A                      A
 Frequencies --    889.4061               914.9032               944.8124
 Red. masses --      1.9250                 1.7292                 5.4450
 Frc consts  --      0.8972                 0.8528                 2.8638
 IR Inten    --      9.6624                55.6503                16.2220

                     37                     38                     39
                      A                      A                      A
 Frequencies --    959.2144              1011.5712              1016.8322
 Red. masses --      2.2293                 5.0138                 3.0521
 Frc consts  --      1.2085                 3.0228                 1.8593
 IR Inten    --     12.3476                 3.0650                16.3912

                     40                     41                     42
                      A                      A                      A
 Frequencies --   1034.2000              1063.2820              1105.7608
 Red. masses --      3.4534                 2.5757                 3.2335
 Frc consts  --      2.1762                 1.7157                 2.3294
 IR Inten    --     10.1739                17.1856                38.3483

                     43                     44                     45
                      A                      A                      A
 Frequencies --   1115.3886              1126.7259              1144.7984
 Red. masses --      1.5722                 1.7088                 2.1489
 Frc consts  --      1.1524                 1.2782                 1.6593
 IR Inten    --     33.3486                20.1968                18.3276

                     46                     47                     48
                      A                      A                      A
 Frequencies --   1167.6153              1189.0132              1194.1355
 Red. masses --      1.6726                 1.6121                 1.9387
 Frc consts  --      1.3435                 1.3428                 1.6288
 IR Inten    --    145.7747                94.3736                 2.0400

                     49                     50                     51
                      A                      A                      A
 Frequencies --   1233.3808              1241.7552              1261.9712
 Red. masses --      1.2372                 1.5963                 2.2935
 Frc consts  --      1.1089                 1.4502                 2.1520
 IR Inten    --      4.6473                24.0756                17.9342

                     52                     53                     54
                      A                      A                      A
 Frequencies --   1272.9086              1307.5318              1324.1224
 Red. masses --      1.4583                 1.4087                 1.2241
 Frc consts  --      1.3922                 1.4190                 1.2645
 IR Inten    --      8.5974                13.7238                 2.3101

                     55                     56                     57
                      A                      A                      A
 Frequencies --   1355.1094              1358.2965              1374.7362
 Red. masses --      1.2307                 1.5977                 1.5245
 Frc consts  --      1.3315                 1.7367                 1.6975
 IR Inten    --      4.7969                39.0430                 7.9214

                     58                     59                     60
                      A                      A                      A
 Frequencies --   1391.9192              1414.7756              1429.3186
 Red. masses --      2.8722                 2.3538                 1.3745
 Frc consts  --      3.2787                 2.7759                 1.6545
 IR Inten    --     33.0810                69.4877                 9.9923

                     61                     62                     63
                      A                      A                      A
 Frequencies --   1430.9663              1448.7028              1471.8010
 Red. masses --      2.6085                 1.1291                 1.1709
 Frc consts  --      3.1470                 1.3962                 1.4944
 IR Inten    --     28.5037                21.7822                21.9091

                     64                     65                     66
                      A                      A                      A
 Frequencies --   1500.3757              1503.5319              1532.7771
 Red. masses --      3.2306                 1.0855                 2.1892
 Frc consts  --      4.2848                 1.4458                 3.0304
 IR Inten    --     21.2783                 2.2100               330.8457

                     67                     68                     69
                      A                      A                      A
 Frequencies --   1609.7635              1656.6447              1741.0916
 Red. masses --      4.4391                 1.1336                 6.8951
 Frc consts  --      6.7774                 1.8330                12.3149
 IR Inten    --      6.2537                86.3396               152.8018

                     70                     71                     72
                      A                      A                      A
 Frequencies --   1822.6072              2970.0144              3023.1977
 Red. masses --      9.5489                 1.0715                 1.0615
 Frc consts  --     18.6891                 5.5689                 5.7164
 IR Inten    --    292.2695                63.4734                18.1976

                     73                     74                     75
                      A                      A                      A
 Frequencies --   3024.0689              3044.3883              3057.8688
 Red. masses --      1.0720                 1.0820                 1.0902
 Frc consts  --      5.7760                 5.9087                 6.0059
 IR Inten    --     24.1164                14.6732                43.6511

                     76                     77                     78
                      A                      A                      A
 Frequencies --   3068.3339              3127.2227              3235.0733
 Red. masses --      1.1002                 1.0915                 1.0946
 Frc consts  --      6.1030                 6.2890                 6.7496
 IR Inten    --     16.8557                 1.6367                 7.4446

                     79                     80                     81
                      A                      A                      A
 Frequencies --   3239.2129              3493.2406              3568.8984
 Red. masses --      1.0999                 1.0494                 1.0926
 Frc consts  --      6.7995                 7.5447                 8.1995
 IR Inten    --      0.6447                 8.1836                 4.2740

                     82                     83                     84
                      A                      A                      A
 Frequencies --   3605.7367              3656.1863              3749.1056
 Red. masses --      1.0778                 1.0808                 1.0643
 Frc consts  --      8.2558                 8.5122                 8.8136
 IR Inten    --     71.0363               104.7102                87.1403

 - Thermochemistry -
 -------------------
 Temperature   298.150 Kelvin.  Pressure   1.00000 Atm.
 Atom     1 has atomic number  8 and mass  15.99491

 Molecular mass:   226.10659 amu.
 Principal axes and moments of inertia in atomic units:
                           1         2         3
     Eigenvalues --  2463.369075948.801338112.49675
           X            0.98836   0.08761   0.12435
           Y           -0.07766  -0.41232   0.90772
           Z           -0.13080   0.90682   0.40072
 This molecule is an asymmetric top.
 Rotational symmetry number  1.
 Warning -- assumption of classical behavior for rotation
           may cause significant error
 Rotational temperatures (Kelvin)      0.03516     0.01456     0.01068
 Rotational constants (GHZ):           0.73263     0.30338     0.22246
 Zero-point vibrational energy     641714.2 (Joules/Mol)
                                  153.37338 (Kcal/Mol)
 Warning -- explicit consideration of  23 degrees of freedom as
           vibrations may cause significant error
 Vibrational temperatures:      4.98    37.86    46.99    68.44    94.62
          (Kelvin)            104.31   184.12   186.64   230.73   281.20
                              354.28   399.72   444.40   466.30   475.82
                              498.60   545.90   617.33   698.48   807.57
                              816.81   852.97   881.64   913.89   961.94
                              981.79   986.98  1061.20  1113.57  1163.45
                             1173.80  1226.71  1261.17  1279.66  1316.34
                             1359.37  1380.09  1455.42  1462.99  1487.98
                             1529.82  1590.94  1604.79  1621.11  1647.11
                             1679.94  1710.72  1718.09  1774.56  1786.61
                             1815.69  1831.43  1881.24  1905.11  1949.70
                             1954.28  1977.94  2002.66  2035.54  2056.47
                             2058.84  2084.36  2117.59  2158.70  2163.24
                             2205.32  2316.09  2383.54  2505.04  2622.32
                             4273.18  4349.70  4350.96  4380.19  4399.59
                             4414.64  4499.37  4654.54  4660.50  5025.99
                             5134.84  5187.84  5260.43  5394.12

 Zero-point correction=                           0.244416 (Hartree/Particle)
 Thermal correction to Energy=                    0.260541
 Thermal correction to Enthalpy=                  0.261486
 Thermal correction to Gibbs Free Energy=         0.195824
 Sum of electronic and zero-point Energies=           -796.121552
 Sum of electronic and thermal Energies=              -796.105427
 Sum of electronic and thermal Enthalpies=            -796.104482
 Sum of electronic and thermal Free Energies=         -796.170145

                     E (Thermal)             CV                S
                      KCal/Mol        Cal/Mol-Kelvin    Cal/Mol-Kelvin
 Total                  163.492             58.441            138.198
 Electronic               0.000              0.000              0.000
 Translational            0.889              2.981             42.150
 Rotational               0.889              2.981             33.141
 Vibrational            161.715             52.479             62.906
 Vibration     1          0.592              1.987             10.120
 Vibration     2          0.593              1.985              6.090
 Vibration     3          0.594              1.983              5.661
 Vibration     4          0.595              1.979              4.916
 Vibration     5          0.597              1.971              4.276
 Vibration     6          0.599              1.967              4.084
 Vibration     7          0.611              1.925              2.976
 Vibration     8          0.612              1.924              2.950
 Vibration     9          0.622              1.891              2.545
 Vibration    10          0.636              1.846              2.176
 Vibration    11          0.661              1.769              1.757
 Vibration    12          0.679              1.715              1.547
 Vibration    13          0.698              1.657              1.368
 Vibration    14          0.709              1.627              1.289
 Vibration    15          0.713              1.614              1.257
 Vibration    16          0.725              1.582              1.182
 Vibration    17          0.749              1.514              1.041
 Vibration    18          0.790              1.407              0.862
 Vibration    19          0.842              1.282              0.695
 Vibration    20          0.917              1.115              0.521
 Vibration    21          0.924              1.101              0.509
 Vibration    22          0.950              1.047              0.462
 Vibration    23          0.972              1.005              0.428

 Optimization completed on the basis of negligible forces.
    -- Stationary point found.
 Normal termination of Gaussian 09 at Sat Jul 24 02:05:35 2021.
