 Gaussian 09, Revision D.01,
 Gaussian 09:  ES64L-G09RevD.01 24-Apr-2013

 ----------------------------------------------------------------------
 # B3LYP/6-311G(d,p) EmpiricalDispersion=GD3BJ opt=calcfc freq=noraman
 nosymm integral(ultrafinegrid)
 ----------------------------------------------------------------------

 ------------------------------------------------------------
 Candidate Structure: Conf:683 OPT and FREQ calc in gas phase
 ------------------------------------------------------------
 Symbolic Z-matrix:
 Charge =  0 Multiplicity = 1

 SCF Done:  E(RB3LYP) =  -796.376068693     A.U. after   14 cycles
 SCF Done:  E(RB3LYP) =  -796.377988553     A.U. after   12 cycles
 SCF Done:  E(RB3LYP) =  -796.378456532     A.U. after   12 cycles
 SCF Done:  E(RB3LYP) =  -796.378593158     A.U. after   11 cycles
 SCF Done:  E(RB3LYP) =  -796.378582529     A.U. after   10 cycles
 SCF Done:  E(RB3LYP) =  -796.378617234     A.U. after   11 cycles
 SCF Done:  E(RB3LYP) =  -796.378617826     A.U. after   10 cycles
 SCF Done:  E(RB3LYP) =  -796.378618623     A.U. after    9 cycles
 Optimization completed.
    -- Stationary point found.
 Normal termination of Gaussian 09 at Sat Jul 24 01:28:39 2021.

 ----------------------------------------------------------------------
 #N Geom=AllCheck Guess=TCheck SCRF=Check GenChk RB3LYP/6-311G(d,p) Fre
 q
 ----------------------------------------------------------------------

 Structure from the checkpoint file:  "conf-683.chk"
 ------------------------------------------------------------
 Candidate Structure: Conf:683 OPT and FREQ calc in gas phase
 ------------------------------------------------------------
 Charge =  0 Multiplicity = 1

                          Input orientation:
 ---------------------------------------------------------------------
 Center     Atomic      Atomic             Coordinates (Angstroms)
 Number     Number       Type             X           Y           Z
 ---------------------------------------------------------------------
      1          8           0       -0.605672    0.058091   -2.150978
      2          6           0        0.346914    0.321860   -1.415384
      3          7           0        0.212363    0.614439   -0.102563
      4          6           0       -1.079798    0.815086    0.507284
      5          6           0       -1.077565    2.144812    1.245048
      6          8           0       -2.316095    2.468513    1.673026
      7          8           0       -0.108473    2.827845    1.453052
      8          6           0       -1.507579   -0.319268    1.472353
      9          6           0       -1.446785   -1.690405    0.878554
     10          6           0       -1.276713   -2.918152    1.473615
     11          7           0       -1.360279   -3.931276    0.544423
     12          6           0       -1.571640   -3.325967   -0.603098
     13          7           0       -1.653255   -1.970331   -0.458720
     14          6           0        1.775480    0.305945   -1.943962
     15          6           0        2.717279    1.362416   -1.353683
     16          7           0        2.966897    1.110196    0.074964
     17          1           0        1.066686    0.857674    0.407664
     18          1           0       -1.814079    0.883047   -0.298955
     19          1           0       -2.238841    3.306504    2.153287
     20          1           0       -0.864035   -0.299128    2.357213
     21          1           0       -2.520676   -0.085347    1.813829
     22          1           0       -1.108646   -3.125234    2.519784
     23          1           0       -1.668723   -3.806916   -1.564203
     24          1           0       -1.627051   -1.286502   -1.213793
     25          1           0        2.184259   -0.696568   -1.767457
     26          1           0        1.700257    0.427057   -3.025221
     27          1           0        2.249714    2.347280   -1.435492
     28          1           0        3.636318    1.390433   -1.953655
     29          1           0        3.575568    0.307074    0.198694
     30          1           0        3.414266    1.906814    0.514161
 ---------------------------------------------------------------------

 SCF Done:  E(RB3LYP) =  -796.378618623     A.U. after    1 cycles

 Alpha  occ. eigenvalues --  -19.18539 -19.12924 -19.09357 -14.34272 -14.33699
 Alpha  occ. eigenvalues --  -14.32117 -14.27096 -10.32167 -10.28055 -10.23926
 Alpha  occ. eigenvalues --  -10.22012 -10.20311 -10.19529 -10.19217 -10.19099
 Alpha  occ. eigenvalues --  -10.16390  -1.13185  -1.04992  -1.04211  -0.99758
 Alpha  occ. eigenvalues --   -0.94060  -0.91105  -0.85453  -0.80996  -0.77236
 Alpha  occ. eigenvalues --   -0.74030  -0.67614  -0.65881  -0.62603  -0.59899
 Alpha  occ. eigenvalues --   -0.58868  -0.57483  -0.54738  -0.52745  -0.51854
 Alpha  occ. eigenvalues --   -0.51008  -0.49426  -0.48500  -0.47408  -0.46851
 Alpha  occ. eigenvalues --   -0.45640  -0.44832  -0.43147  -0.42259  -0.41248
 Alpha  occ. eigenvalues --   -0.40868  -0.40355  -0.39623  -0.39280  -0.38590
 Alpha  occ. eigenvalues --   -0.37910  -0.35971  -0.34499  -0.30335  -0.27913
 Alpha  occ. eigenvalues --   -0.27399  -0.26817  -0.26579  -0.25252  -0.21327
 Alpha virt. eigenvalues --   -0.01331   0.00171   0.02337   0.02602   0.03752
 Alpha virt. eigenvalues --    0.05840   0.06106   0.06358   0.07064   0.08007
 Alpha virt. eigenvalues --    0.08891   0.09475   0.10853   0.11508   0.12207

 Mulliken charges:
               1
     1  O   -0.429516
     2  C    0.371758
     3  N   -0.362373
     4  C   -0.129570
     5  C    0.363888
     6  O   -0.318215
     7  O   -0.327036
     8  C   -0.121132
     9  C    0.071991
    10  C   -0.072946
    11  N   -0.304801
    12  C    0.140340
    13  N   -0.366706
    14  C   -0.232720
    15  C   -0.134011
    16  N   -0.484808
    17  H    0.252661
    18  H    0.166540
    19  H    0.257708
    20  H    0.120481
    21  H    0.148715
    22  H    0.085724
    23  H    0.102216
    24  H    0.248354
    25  H    0.137064
    26  H    0.142063
    27  H    0.134939
    28  H    0.116432
    29  H    0.206503
    30  H    0.216457
 Sum of Mulliken charges =   0.00000

 Dipole moment (field-independent basis, Debye):
    X=              3.3595    Y=              4.9543    Z=              0.4759  Tot=              6.0048
 Quadrupole moment (field-independent basis, Debye-Ang):
   XX=            -81.4546   YY=           -109.8407   ZZ=            -91.5088
   XY=             -6.8202   XZ=             -5.3825   YZ=              6.8596

  Exact polarizability: 118.501   8.386 141.550  -7.458  10.308 129.481
 Approx polarizability: 171.324   5.575 199.464   8.483  12.171 204.681

                      1                      2                      3
                      A                      A                      A
 Frequencies --     18.7428                45.1225                53.9452
 Red. masses --      4.9661                 7.8536                 4.4275
 Frc consts  --      0.0010                 0.0094                 0.0076
 IR Inten    --      4.4261                 2.3147                 1.7418

                      4                      5                      6
                      A                      A                      A
 Frequencies --     65.6882                85.5059               104.4793
 Red. masses --      3.9836                 4.2264                 5.1218
 Frc consts  --      0.0101                 0.0182                 0.0329
 IR Inten    --      0.6026                 1.9745                 1.2110

                      7                      8                      9
                      A                      A                      A
 Frequencies --    121.8581               148.9151               183.5378
 Red. masses --      3.9376                 6.0045                 6.8259
 Frc consts  --      0.0344                 0.0785                 0.1355
 IR Inten    --      6.9111                12.1027                 1.4556

                     10                     11                     12
                      A                      A                      A
 Frequencies --    206.7555               233.3651               268.8376
 Red. masses --      2.2100                 5.0126                 3.8462
 Frc consts  --      0.0557                 0.1608                 0.1638
 IR Inten    --      2.6917                10.5012                 0.7773

                     13                     14                     15
                      A                      A                      A
 Frequencies --    307.9575               312.0893               348.8175
 Red. masses --      1.5463                 3.8875                 4.0272
 Frc consts  --      0.0864                 0.2231                 0.2887
 IR Inten    --      8.2719                 6.3120                 0.4792

                     16                     17                     18
                      A                      A                      A
 Frequencies --    360.9739               436.5731               484.9318
 Red. masses --      3.4432                 3.2633                 2.9024
 Frc consts  --      0.2643                 0.3665                 0.4021
 IR Inten    --      5.2884                14.4668                12.2222

                     19                     20                     21
                      A                      A                      A
 Frequencies --    516.1954               591.5931               600.0359
 Red. masses --      3.0211                 2.4534                 1.6781
 Frc consts  --      0.4743                 0.5059                 0.3560
 IR Inten    --     38.6202                20.4296                66.0214

                     22                     23                     24
                      A                      A                      A
 Frequencies --    635.4898               648.0912               677.6052
 Red. masses --      3.6137                 4.4359                 3.4833
 Frc consts  --      0.8598                 1.0977                 0.9423
 IR Inten    --      9.6478                42.4924                33.0921

                     25                     26                     27
                      A                      A                      A
 Frequencies --    693.2716               702.9026               766.4535
 Red. masses --      3.1831                 3.2397                 1.2885
 Frc consts  --      0.9014                 0.9431                 0.4460
 IR Inten    --     40.7288                15.5654                94.9450

                     28                     29                     30
                      A                      A                      A
 Frequencies --    781.8570               813.0274               814.6808
 Red. masses --      3.0959                 1.4068                 1.2550
 Frc consts  --      1.1150                 0.5479                 0.4908
 IR Inten    --     27.0242                16.9257                61.0699

                     31                     32                     33
                      A                      A                      A
 Frequencies --    833.5933               850.9180               883.6263
 Red. masses --      1.3547                 1.3918                 2.6737
 Frc consts  --      0.5546                 0.5938                 1.2300
 IR Inten    --     23.2650                62.0904                 4.5754

                     34                     35                     36
                      A                      A                      A
 Frequencies --    902.1283               917.6429               949.1093
 Red. masses --      2.1688                 2.0317                 5.4406
 Frc consts  --      1.0399                 1.0080                 2.8875
 IR Inten    --     28.3415                29.9191                22.5528

                     37                     38                     39
                      A                      A                      A
 Frequencies --    963.4354               995.5679              1016.5920
 Red. masses --      2.5303                 2.1198                 2.4966
 Frc consts  --      1.3838                 1.2379                 1.5202
 IR Inten    --      4.0380                 2.9055                11.7916

                     40                     41                     42
                      A                      A                      A
 Frequencies --   1028.8597              1054.1307              1082.1978
 Red. masses --      2.6294                 2.9821                 2.6429
 Frc consts  --      1.6399                 1.9524                 1.8237
 IR Inten    --     31.2078                10.7494                 5.5448

                     43                     44                     45
                      A                      A                      A
 Frequencies --   1136.3217              1142.5595              1154.8749
 Red. masses --      2.9414                 2.1993                 1.7789
 Frc consts  --      2.2377                 1.6916                 1.3979
 IR Inten    --    123.7970                18.5745                19.8174

                     46                     47                     48
                      A                      A                      A
 Frequencies --   1160.5766              1184.3411              1234.0016
 Red. masses --      1.4274                 2.1906                 1.5198
 Frc consts  --      1.1328                 1.8104                 1.3636
 IR Inten    --     58.8707                77.1814                 9.5470

                     49                     50                     51
                      A                      A                      A
 Frequencies --   1260.5829              1266.2975              1274.9892
 Red. masses --      2.1152                 1.3685                 1.5046
 Frc consts  --      1.9803                 1.2929                 1.4411
 IR Inten    --      2.6175                30.6852                11.4496

                     52                     53                     54
                      A                      A                      A
 Frequencies --   1292.1958              1316.1061              1318.6611
 Red. masses --      1.3613                 1.3476                 1.7601
 Frc consts  --      1.3393                 1.3753                 1.8033
 IR Inten    --      5.6959                 1.8965                11.6147

                     55                     56                     57
                      A                      A                      A
 Frequencies --   1346.5016              1367.9968              1374.6924
 Red. masses --      1.7605                 1.3888                 1.4773
 Frc consts  --      1.8806                 1.5313                 1.6449
 IR Inten    --      5.1281                11.6367                 8.0100

                     58                     59                     60
                      A                      A                      A
 Frequencies --   1393.0706              1401.3828              1423.0876
 Red. masses --      2.5753                 2.4320                 1.4127
 Frc consts  --      2.9445                 2.8140                 1.6857
 IR Inten    --     12.2333                87.3124                17.9849

                     61                     62                     63
                      A                      A                      A
 Frequencies --   1463.8901              1465.7857              1485.2478
 Red. masses --      2.1118                 1.0851                 1.2724
 Frc consts  --      2.6663                 1.3736                 1.6537
 IR Inten    --     38.6019                12.8335                17.3101

                     64                     65                     66
                      A                      A                      A
 Frequencies --   1499.0894              1511.4459              1598.7619
 Red. masses --      2.6478                 1.0841                 1.8625
 Frc consts  --      3.5058                 1.4591                 2.8048
 IR Inten    --     12.3958                 3.6859               279.5814

                     67                     68                     69
                      A                      A                      A
 Frequencies --   1612.9284              1657.0509              1712.8211
 Red. masses --      3.4787                 1.0908                 7.0029
 Frc consts  --      5.3322                 1.7647                12.1046
 IR Inten    --     19.2567                41.1877               301.6480

                     70                     71                     72
                      A                      A                      A
 Frequencies --   1827.2468              2988.4781              3025.3441
 Red. masses --     10.0741                 1.0715                 1.0704
 Frc consts  --     19.8175                 5.6382                 5.7723
 IR Inten    --    267.7009                83.6761                 5.6436

                     73                     74                     75
                      A                      A                      A
 Frequencies --   3031.3045              3060.2895              3068.3264
 Red. masses --      1.0590                 1.0974                 1.0921
 Frc consts  --      5.7334                 6.0553                 6.0578
 IR Inten    --     21.7791                 5.1866                22.5264

                     76                     77                     78
                      A                      A                      A
 Frequencies --   3079.0656              3107.2467              3224.5828
 Red. masses --      1.0884                 1.0926                 1.0961
 Frc consts  --      6.0796                 6.2154                 6.7148
 IR Inten    --     13.1116                 9.1371                10.2368

                     79                     80                     81
                      A                      A                      A
 Frequencies --   3238.7097              3348.1857              3450.6178
 Red. masses --      1.0977                 1.0827                 1.0860
 Frc consts  --      6.7836                 7.1513                 7.6188
 IR Inten    --      1.5490               422.7631               350.0884

                     82                     83                     84
                      A                      A                      A
 Frequencies --   3501.7231              3585.0139              3756.2601
 Red. masses --      1.0499                 1.0934                 1.0643
 Frc consts  --      7.5851                 8.2796                 8.8479
 IR Inten    --      0.4477                 4.1962                74.1365

 - Thermochemistry -
 -------------------
 Temperature   298.150 Kelvin.  Pressure   1.00000 Atm.
 Atom     1 has atomic number  8 and mass  15.99491

 Molecular mass:   226.10659 amu.
 Principal axes and moments of inertia in atomic units:
                           1         2         3
     Eigenvalues --  2972.814444432.516056108.16951
           X            0.48851   0.64256   0.59031
           Y            0.86894  -0.41975  -0.26219
           Z           -0.07931  -0.64103   0.76341
 This molecule is an asymmetric top.
 Rotational symmetry number  1.
 Warning -- assumption of classical behavior for rotation
           may cause significant error
 Rotational temperatures (Kelvin)      0.02914     0.01954     0.01418
 Rotational constants (GHZ):           0.60708     0.40716     0.29546
 Zero-point vibrational energy     645114.7 (Joules/Mol)
                                  154.18612 (Kcal/Mol)
 Warning -- explicit consideration of  21 degrees of freedom as
           vibrations may cause significant error
 Vibrational temperatures:     26.97    64.92    77.62    94.51   123.02
          (Kelvin)            150.32   175.33   214.26   264.07   297.47
                              335.76   386.80   443.08   449.03   501.87
                              519.36   628.13   697.71   742.69   851.17
                              863.32   914.33   932.46   974.92   997.46
                             1011.32  1102.75  1124.92  1169.76  1172.14
                             1199.35  1224.28  1271.34  1297.96  1320.28
                             1365.55  1386.17  1432.40  1462.65  1480.30
                             1516.66  1557.04  1634.91  1643.89  1661.61
                             1669.81  1704.00  1775.45  1813.70  1821.92
                             1834.42  1859.18  1893.58  1897.26  1937.31
                             1968.24  1977.87  2004.32  2016.27  2047.50
                             2106.21  2108.94  2136.94  2156.85  2174.63
                             2300.26  2320.64  2384.12  2464.36  2629.00
                             4299.75  4352.79  4361.37  4403.07  4414.63
                             4430.08  4470.63  4639.45  4659.78  4817.29
                             4964.66  5038.19  5158.03  5404.41

 Zero-point correction=                           0.245711 (Hartree/Particle)
 Thermal correction to Energy=                    0.261194
 Thermal correction to Enthalpy=                  0.262139
 Thermal correction to Gibbs Free Energy=         0.200821
 Sum of electronic and zero-point Energies=           -796.132907
 Sum of electronic and thermal Energies=              -796.117424
 Sum of electronic and thermal Enthalpies=            -796.116480
 Sum of electronic and thermal Free Energies=         -796.177798

                     E (Thermal)             CV                S
                      KCal/Mol        Cal/Mol-Kelvin    Cal/Mol-Kelvin
 Total                  163.902             57.094            129.055
 Electronic               0.000              0.000              0.000
 Translational            0.889              2.981             42.150
 Rotational               0.889              2.981             32.754
 Vibrational            162.125             51.132             54.151
 Vibration     1          0.593              1.986              6.763
 Vibration     2          0.595              1.979              5.020
 Vibration     3          0.596              1.976              4.667
 Vibration     4          0.597              1.971              4.279
 Vibration     5          0.601              1.959              3.760
 Vibration     6          0.605              1.946              3.369
 Vibration     7          0.609              1.931              3.071
 Vibration     8          0.618              1.904              2.686
 Vibration     9          0.631              1.862              2.292
 Vibration    10          0.641              1.830              2.072
 Vibration    11          0.654              1.790              1.853
 Vibration    12          0.673              1.730              1.604
 Vibration    13          0.698              1.659              1.373
 Vibration    14          0.700              1.651              1.351
 Vibration    15          0.726              1.578              1.172
 Vibration    16          0.735              1.553              1.118
 Vibration    17          0.797              1.390              0.837
 Vibration    18          0.841              1.283              0.697
 Vibration    19          0.871              1.214              0.619
 Vibration    20          0.949              1.050              0.464
 Vibration    21          0.958              1.032              0.450

 Optimization completed.
    -- Stationary point found.
 Normal termination of Gaussian 09 at Sat Jul 24 02:02:48 2021.
