 Gaussian 09, Revision D.01,
 Gaussian 09:  ES64L-G09RevD.01 24-Apr-2013

 ----------------------------------------------------------------------
 # B3LYP/6-311G(d,p) EmpiricalDispersion=GD3BJ opt=calcfc freq=noraman
 nosymm integral(ultrafinegrid)
 ----------------------------------------------------------------------

 ------------------------------------------------------------
 Candidate Structure: Conf:338 OPT and FREQ calc in gas phase
 ------------------------------------------------------------
 Symbolic Z-matrix:
 Charge =  0 Multiplicity = 1

 SCF Done:  E(RB3LYP) =  -796.369463463     A.U. after   14 cycles
 SCF Done:  E(RB3LYP) =  -796.371359573     A.U. after   13 cycles
 SCF Done:  E(RB3LYP) =  -796.371181914     A.U. after   15 cycles
 SCF Done:  E(RB3LYP) =  -796.371590786     A.U. after   13 cycles
 SCF Done:  E(RB3LYP) =  -796.371699868     A.U. after   11 cycles
 SCF Done:  E(RB3LYP) =  -796.371809623     A.U. after   11 cycles
 SCF Done:  E(RB3LYP) =  -796.351841794     A.U. after   14 cycles
 SCF Done:  E(RB3LYP) =  -796.371809637     A.U. after    7 cycles
 SCF Done:  E(RB3LYP) =  -796.372893618     A.U. after   14 cycles
 SCF Done:  E(RB3LYP) =  -796.354240456     A.U. after   15 cycles
 SCF Done:  E(RB3LYP) =  -796.377287455     A.U. after   11 cycles
 SCF Done:  E(RB3LYP) =  -796.377345543     A.U. after   11 cycles
 SCF Done:  E(RB3LYP) =  -796.377428555     A.U. after   10 cycles
 SCF Done:  E(RB3LYP) =  -796.377456858     A.U. after   10 cycles
 SCF Done:  E(RB3LYP) =  -796.377464065     A.U. after   10 cycles
 SCF Done:  E(RB3LYP) =  -796.377466670     A.U. after    9 cycles
 SCF Done:  E(RB3LYP) =  -796.377467541     A.U. after    8 cycles
 SCF Done:  E(RB3LYP) =  -796.377467729     A.U. after    7 cycles
 SCF Done:  E(RB3LYP) =  -796.377467739     A.U. after    6 cycles
 Optimization completed.
    -- Stationary point found.
 Normal termination of Gaussian 09 at Sat Jul 24 02:14:11 2021.

 ----------------------------------------------------------------------
 #N Geom=AllCheck Guess=TCheck SCRF=Check GenChk RB3LYP/6-311G(d,p) Fre
 q
 ----------------------------------------------------------------------

 Structure from the checkpoint file:  "conf-338.chk"
 ------------------------------------------------------------
 Candidate Structure: Conf:338 OPT and FREQ calc in gas phase
 ------------------------------------------------------------
 Charge =  0 Multiplicity = 1

                          Input orientation:
 ---------------------------------------------------------------------
 Center     Atomic      Atomic             Coordinates (Angstroms)
 Number     Number       Type             X           Y           Z
 ---------------------------------------------------------------------
      1          8           0        0.571816    0.524849    1.748795
      2          6           0        1.286760    0.061314    0.858755
      3          7           0        0.802384   -0.575287   -0.226830
      4          6           0       -0.616835   -0.780549   -0.417730
      5          6           0       -0.798895   -1.882962   -1.439796
      6          8           0       -2.087768   -2.266960   -1.511272
      7          8           0        0.072217   -2.351111   -2.128206
      8          6           0       -1.385301    0.517629   -0.868937
      9          6           0       -2.438097    0.952759    0.088714
     10          6           0       -3.788785    1.172176   -0.041627
     11          7           0       -4.334770    1.576971    1.156065
     12          6           0       -3.327707    1.596717    2.003783
     13          7           0       -2.156288    1.232110    1.409997
     14          6           0        2.805577    0.164454    0.956467
     15          6           0        3.560085    0.360636   -0.362862
     16          7           0        3.422567   -0.819168   -1.228998
     17          1           0        1.470333   -0.951617   -0.906513
     18          1           0       -1.059796   -1.119481    0.521365
     19          1           0       -2.144405   -2.944354   -2.201357
     20          1           0       -1.853088    0.361286   -1.842007
     21          1           0       -0.627439    1.295156   -1.000815
     22          1           0       -4.392423    1.059590   -0.929424
     23          1           0       -3.387979    1.864192    3.047536
     24          1           0       -1.230044    1.111916    1.817521
     25          1           0        3.008764    0.995133    1.633336
     26          1           0        3.168793   -0.742249    1.456095
     27          1           0        3.135645    1.215175   -0.897584
     28          1           0        4.604470    0.612950   -0.134600
     29          1           0        3.946163   -1.605047   -0.856032
     30          1           0        3.773982   -0.636181   -2.162060
 ---------------------------------------------------------------------

 SCF Done:  E(RB3LYP) =  -796.377467739     A.U. after    1 cycles

 Alpha  occ. eigenvalues --  -19.18274 -19.12842 -19.09500 -14.33754 -14.33658
 Alpha  occ. eigenvalues --  -14.32207 -14.26693 -10.32099 -10.28193 -10.23773
 Alpha  occ. eigenvalues --  -10.22261 -10.20071 -10.19314 -10.19296 -10.18601
 Alpha  occ. eigenvalues --  -10.16156  -1.13077  -1.05005  -1.04132  -0.99389
 Alpha  occ. eigenvalues --   -0.93983  -0.91263  -0.85087  -0.80636  -0.77290
 Alpha  occ. eigenvalues --   -0.73702  -0.67639  -0.65947  -0.62666  -0.59366
 Alpha  occ. eigenvalues --   -0.58880  -0.57100  -0.54181  -0.53306  -0.52341
 Alpha  occ. eigenvalues --   -0.50640  -0.49219  -0.47849  -0.47642  -0.47201
 Alpha  occ. eigenvalues --   -0.45926  -0.43962  -0.42656  -0.42450  -0.41667
 Alpha  occ. eigenvalues --   -0.40912  -0.39603  -0.39204  -0.38947  -0.38576
 Alpha  occ. eigenvalues --   -0.38169  -0.36168  -0.34317  -0.30266  -0.27949
 Alpha  occ. eigenvalues --   -0.27432  -0.26833  -0.26140  -0.24894  -0.21094
 Alpha virt. eigenvalues --   -0.01379   0.00402   0.02181   0.02692   0.03576
 Alpha virt. eigenvalues --    0.05479   0.05709   0.07126   0.07775   0.08200
 Alpha virt. eigenvalues --    0.08910   0.09008   0.10042   0.11558   0.11964

 Mulliken charges:
               1
     1  O   -0.439037
     2  C    0.387678
     3  N   -0.410535
     4  C   -0.062008
     5  C    0.341978
     6  O   -0.310215
     7  O   -0.329212
     8  C   -0.169656
     9  C    0.072345
    10  C   -0.068613
    11  N   -0.307709
    12  C    0.147179
    13  N   -0.366458
    14  C   -0.239186
    15  C   -0.126776
    16  N   -0.478933
    17  H    0.262823
    18  H    0.180351
    19  H    0.257701
    20  H    0.133627
    21  H    0.143562
    22  H    0.084830
    23  H    0.100542
    24  H    0.261615
    25  H    0.141301
    26  H    0.132146
    27  H    0.127653
    28  H    0.114910
    29  H    0.205830
    30  H    0.212268
 Sum of Mulliken charges =   0.00000

 Dipole moment (field-independent basis, Debye):
    X=              6.8610    Y=             -2.1994    Z=             -2.5964  Tot=              7.6585
 Quadrupole moment (field-independent basis, Debye-Ang):
   XX=            -99.4210   YY=            -94.2585   ZZ=            -91.0700
   XY=             10.3569   XZ=              6.1146   YZ=             -0.9947

  Exact polarizability: 162.844 -10.731 104.245  -6.712  23.595 128.577
 Approx polarizability: 220.063 -14.399 152.374  -9.349  30.908 203.398

                      1                      2                      3
                      A                      A                      A
 Frequencies --     16.7529                45.6074                52.1007
 Red. masses --      4.9001                 6.1396                 8.2213
 Frc consts  --      0.0008                 0.0075                 0.0131
 IR Inten    --      0.5499                 2.1305                 2.3688

                      4                      5                      6
                      A                      A                      A
 Frequencies --     69.7588                74.7505                98.9114
 Red. masses --      3.4752                 4.7576                 4.3894
 Frc consts  --      0.0100                 0.0157                 0.0253
 IR Inten    --      0.4143                 0.5528                 6.5249

                      7                      8                      9
                      A                      A                      A
 Frequencies --    113.3159               127.9586               187.9588
 Red. masses --      6.2027                 6.0133                 2.7028
 Frc consts  --      0.0469                 0.0580                 0.0563
 IR Inten    --      4.7229                 4.0454                 4.6944

                     10                     11                     12
                      A                      A                      A
 Frequencies --    197.4801               241.0203               283.7602
 Red. masses --      4.7182                 3.9121                 3.5831
 Frc consts  --      0.1084                 0.1339                 0.1700
 IR Inten    --      3.1650                 5.8574                 3.9245

                     13                     14                     15
                      A                      A                      A
 Frequencies --    304.9780               309.3624               333.8360
 Red. masses --      2.3323                 1.6310                 4.4711
 Frc consts  --      0.1278                 0.0920                 0.2936
 IR Inten    --      1.8063                13.6777                 0.5111

                     16                     17                     18
                      A                      A                      A
 Frequencies --    356.6518               416.0004               467.1363
 Red. masses --      4.0972                 3.4651                 2.5959
 Frc consts  --      0.3071                 0.3533                 0.3338
 IR Inten    --      4.5871                 6.8805                26.1572

                     19                     20                     21
                      A                      A                      A
 Frequencies --    518.2937               590.2632               614.2687
 Red. masses --      3.2202                 1.4683                 3.5750
 Frc consts  --      0.5097                 0.3014                 0.7948
 IR Inten    --     38.5845                83.8190                 4.3860

                     22                     23                     24
                      A                      A                      A
 Frequencies --    637.8161               651.5907               678.3237
 Red. masses --      3.5302                 3.6917                 3.5083
 Frc consts  --      0.8461                 0.9235                 0.9511
 IR Inten    --     30.8900                 5.2944                45.6340

                     25                     26                     27
                      A                      A                      A
 Frequencies --    698.8728               720.9460               774.8600
 Red. masses --      3.4936                 3.2761                 3.9450
 Frc consts  --      1.0053                 1.0033                 1.3956
 IR Inten    --     18.6378                16.5771                 4.6274

                     28                     29                     30
                      A                      A                      A
 Frequencies --    792.5215               812.8427               818.2448
 Red. masses --      1.1093                 1.2626                 1.4363
 Frc consts  --      0.4105                 0.4915                 0.5666
 IR Inten    --     33.6393                45.2170                27.5758

                     31                     32                     33
                      A                      A                      A
 Frequencies --    838.7446               860.1862               861.6779
 Red. masses --      1.3946                 2.3269                 1.3332
 Frc consts  --      0.5780                 1.0144                 0.5832
 IR Inten    --     26.1427                 7.8456                93.5518

                     34                     35                     36
                      A                      A                      A
 Frequencies --    901.5462               915.4136               949.5591
 Red. masses --      2.3877                 1.9552                 5.6683
 Frc consts  --      1.1434                 0.9653                 3.0112
 IR Inten    --     15.8355                14.3926                23.9494

                     37                     38                     39
                      A                      A                      A
 Frequencies --    967.3875               986.4504              1011.3370
 Red. masses --      2.9442                 3.1600                 1.7472
 Frc consts  --      1.6234                 1.8117                 1.0529
 IR Inten    --     12.5461                 3.5808                 6.4657

                     40                     41                     42
                      A                      A                      A
 Frequencies --   1028.3193              1032.5430              1085.8929
 Red. masses --      3.5474                 2.7228                 2.6365
 Frc consts  --      2.2101                 1.7103                 1.8317
 IR Inten    --      0.8159                38.3445                 5.8001

                     43                     44                     45
                      A                      A                      A
 Frequencies --   1133.2680              1136.3650              1147.9690
 Red. masses --      2.3333                 2.1767                 1.9349
 Frc consts  --      1.7656                 1.6561                 1.5023
 IR Inten    --     53.7124                55.5038                 4.0880

                     46                     47                     48
                      A                      A                      A
 Frequencies --   1158.5968              1178.0186              1210.7564
 Red. masses --      1.4230                 2.5102                 1.3186
 Frc consts  --      1.1254                 2.0524                 1.1389
 IR Inten    --     32.2964               158.0194                 7.5553

                     49                     50                     51
                      A                      A                      A
 Frequencies --   1261.4688              1264.4472              1273.7039
 Red. masses --      2.0980                 1.5102                 1.3812
 Frc consts  --      1.9670                 1.4226                 1.3202
 IR Inten    --      3.2567                25.7706                13.3637

                     52                     53                     54
                      A                      A                      A
 Frequencies --   1289.3376              1310.3427              1313.3032
 Red. masses --      1.3087                 1.4946                 1.3457
 Frc consts  --      1.2818                 1.5120                 1.3676
 IR Inten    --     12.3116                 3.0613                 2.3632

                     55                     56                     57
                      A                      A                      A
 Frequencies --   1329.6752              1356.6907              1372.1290
 Red. masses --      1.4773                 1.3886                 1.4375
 Frc consts  --      1.5389                 1.5059                 1.5945
 IR Inten    --      4.5919                21.8863                 3.3569

                     58                     59                     60
                      A                      A                      A
 Frequencies --   1389.1034              1411.3862              1423.7194
 Red. masses --      4.3836                 2.1086                 1.5153
 Frc consts  --      4.9837                 2.4748                 1.8096
 IR Inten    --     17.3484                55.8874                30.4491

                     61                     62                     63
                      A                      A                      A
 Frequencies --   1448.4645              1467.1356              1478.3707
 Red. masses --      2.2803                 1.0819                 1.1752
 Frc consts  --      2.8188                 1.3721                 1.5133
 IR Inten    --     84.8830                12.3985                16.6355

                     64                     65                     66
                      A                      A                      A
 Frequencies --   1501.0975              1513.3527              1580.7245
 Red. masses --      3.2640                 1.0895                 2.0456
 Frc consts  --      4.3333                 1.4701                 3.0115
 IR Inten    --     21.6431                 6.1711               340.2408

                     67                     68                     69
                      A                      A                      A
 Frequencies --   1614.5253              1659.5637              1716.5438
 Red. masses --      4.1743                 1.0899                 8.1149
 Frc consts  --      6.4109                 1.7685                14.0878
 IR Inten    --     29.0234                39.4147               320.6382

                     70                     71                     72
                      A                      A                      A
 Frequencies --   1824.0253              2982.6902              3022.2980
 Red. masses --      9.8670                 1.0718                 1.0707
 Frc consts  --     19.3417                 5.6181                 5.7624
 IR Inten    --    277.5924                85.7762                 7.6048

                     73                     74                     75
                      A                      A                      A
 Frequencies --   3039.0494              3061.2763              3068.5131
 Red. masses --      1.0658                 1.0913                 1.0838
 Frc consts  --      5.7999                 6.0254                 6.0122
 IR Inten    --     22.5471                29.8200                12.9308

                     76                     77                     78
                      A                      A                      A
 Frequencies --   3096.3493              3106.1599              3226.9008
 Red. masses --      1.0972                 1.0923                 1.0960
 Frc consts  --      6.1980                 6.2091                 6.7241
 IR Inten    --     11.6427                 9.3970                10.9505

                     79                     80                     81
                      A                      A                      A
 Frequencies --   3237.8064              3354.6774              3463.6731
 Red. masses --      1.0979                 1.0822                 1.0857
 Frc consts  --      6.7811                 7.1759                 7.6746
 IR Inten    --      1.9230               416.5145               452.9530

                     82                     83                     84
                      A                      A                      A
 Frequencies --   3502.2208              3583.4854              3761.7064
 Red. masses --      1.0501                 1.0931                 1.0643
 Frc consts  --      7.5884                 8.2706                 8.8736
 IR Inten    --      0.4238                 3.3759                78.8620

 - Thermochemistry -
 -------------------
 Temperature   298.150 Kelvin.  Pressure   1.00000 Atm.
 Atom     1 has atomic number  8 and mass  15.99491

 Molecular mass:   226.10659 amu.
 Principal axes and moments of inertia in atomic units:
                           1         2         3
     Eigenvalues --  2342.050045346.489467174.36051
           X            0.94422   0.32545   0.05035
           Y           -0.26219   0.65037   0.71293
           Z           -0.19928   0.68636  -0.69942
 This molecule is an asymmetric top.
 Rotational symmetry number  1.
 Warning -- assumption of classical behavior for rotation
           may cause significant error
 Rotational temperatures (Kelvin)      0.03698     0.01620     0.01207
 Rotational constants (GHZ):           0.77058     0.33756     0.25155
 Zero-point vibrational energy     644285.5 (Joules/Mol)
                                  153.98794 (Kcal/Mol)
 Warning -- explicit consideration of  21 degrees of freedom as
           vibrations may cause significant error
 Vibrational temperatures:     24.10    65.62    74.96   100.37   107.55
          (Kelvin)            142.31   163.04   184.10   270.43   284.13
                              346.77   408.27   438.79   445.10   480.31
                              513.14   598.53   672.10   745.71   849.26
                              883.79   917.67   937.49   975.96  1005.52
                             1037.28  1114.85  1140.26  1169.50  1177.27
                             1206.76  1237.61  1239.76  1297.12  1317.07
                             1366.20  1391.85  1419.28  1455.09  1479.52
                             1485.60  1562.36  1630.52  1634.97  1651.67
                             1666.96  1694.90  1742.01  1814.97  1819.26
                             1832.57  1855.07  1885.29  1889.55  1913.10
                             1951.97  1974.19  1998.61  2030.67  2048.41
                             2084.01  2110.88  2127.04  2159.74  2177.37
                             2274.31  2322.94  2387.74  2469.72  2624.36
                             4291.42  4348.41  4372.51  4404.49  4414.90
                             4454.95  4469.07  4642.78  4658.48  4826.63
                             4983.45  5038.91  5155.83  5412.25

 Zero-point correction=                           0.245395 (Hartree/Particle)
 Thermal correction to Energy=                    0.260984
 Thermal correction to Enthalpy=                  0.261929
 Thermal correction to Gibbs Free Energy=         0.200071
 Sum of electronic and zero-point Energies=           -796.132072
 Sum of electronic and thermal Energies=              -796.116483
 Sum of electronic and thermal Enthalpies=            -796.115539
 Sum of electronic and thermal Free Energies=         -796.177397

                     E (Thermal)             CV                S
                      KCal/Mol        Cal/Mol-Kelvin    Cal/Mol-Kelvin
 Total                  163.770             57.209            130.190
 Electronic               0.000              0.000              0.000
 Translational            0.889              2.981             42.150
 Rotational               0.889              2.981             32.863
 Vibrational            161.993             51.247             55.178
 Vibration     1          0.593              1.986              6.986
 Vibration     2          0.595              1.979              4.999
 Vibration     3          0.596              1.977              4.736
 Vibration     4          0.598              1.969              4.160
 Vibration     5          0.599              1.966              4.024
 Vibration     6          0.604              1.950              3.476
 Vibration     7          0.607              1.938              3.211
 Vibration     8          0.611              1.925              2.977
 Vibration     9          0.633              1.856              2.248
 Vibration    10          0.637              1.843              2.156
 Vibration    11          0.658              1.778              1.795
 Vibration    12          0.682              1.704              1.511
 Vibration    13          0.696              1.664              1.389
 Vibration    14          0.699              1.656              1.366
 Vibration    15          0.715              1.608              1.241
 Vibration    16          0.732              1.562              1.137
 Vibration    17          0.779              1.435              0.906
 Vibration    18          0.824              1.323              0.746
 Vibration    19          0.873              1.209              0.614
 Vibration    20          0.948              1.053              0.467
 Vibration    21          0.974              1.002              0.426

 Optimization completed.
    -- Stationary point found.
 Normal termination of Gaussian 09 at Sat Jul 24 02:46:39 2021.
