 Gaussian 09, Revision D.01,
 Gaussian 09:  ES64L-G09RevD.01 24-Apr-2013

 ----------------------------------------------------------------------
 # B3LYP/6-311G(d,p) EmpiricalDispersion=GD3BJ opt=calcfc freq=noraman
 nosymm integral(ultrafinegrid)
 ----------------------------------------------------------------------

 ------------------------------------------------------------
 Candidate Structure: Conf:801 OPT and FREQ calc in gas phase
 ------------------------------------------------------------
 Symbolic Z-matrix:
 Charge =  0 Multiplicity = 1

 SCF Done:  E(RB3LYP) =  -796.357042660     A.U. after   14 cycles
 SCF Done:  E(RB3LYP) =  -796.359411013     A.U. after   14 cycles
 SCF Done:  E(RB3LYP) =  -796.341511680     A.U. after   14 cycles
 SCF Done:  E(RB3LYP) =  -796.359433861     A.U. after    8 cycles
 SCF Done:  E(RB3LYP) =  -796.360465152     A.U. after   14 cycles
 SCF Done:  E(RB3LYP) =  -796.359495285     A.U. after   12 cycles
 SCF Done:  E(RB3LYP) =  -796.360508013     A.U. after    9 cycles
 SCF Done:  E(RB3LYP) =  -796.360833502     A.U. after   12 cycles
 SCF Done:  E(RB3LYP) =  -796.360844699     A.U. after   12 cycles
 SCF Done:  E(RB3LYP) =  -796.361032591     A.U. after   11 cycles
 SCF Done:  E(RB3LYP) =  -796.361092054     A.U. after   11 cycles
 SCF Done:  E(RB3LYP) =  -796.361117188     A.U. after   10 cycles
 SCF Done:  E(RB3LYP) =  -796.361130999     A.U. after   10 cycles
 SCF Done:  E(RB3LYP) =  -796.361135564     A.U. after    9 cycles
 SCF Done:  E(RB3LYP) =  -796.361136222     A.U. after    8 cycles
 SCF Done:  E(RB3LYP) =  -796.361136401     A.U. after    8 cycles
 Optimization completed.
    -- Stationary point found.
 Normal termination of Gaussian 09 at Sat Jul 24 01:43:12 2021.

 ----------------------------------------------------------------------
 #N Geom=AllCheck Guess=TCheck SCRF=Check GenChk RB3LYP/6-311G(d,p) Fre
 q
 ----------------------------------------------------------------------

 Structure from the checkpoint file:  "conf-801.chk"
 ------------------------------------------------------------
 Candidate Structure: Conf:801 OPT and FREQ calc in gas phase
 ------------------------------------------------------------
 Charge =  0 Multiplicity = 1

                          Input orientation:
 ---------------------------------------------------------------------
 Center     Atomic      Atomic             Coordinates (Angstroms)
 Number     Number       Type             X           Y           Z
 ---------------------------------------------------------------------
      1          8           0        1.506083    0.916165   -1.035312
      2          6           0        1.762864    0.255522   -0.038561
      3          7           0        0.793669   -0.107241    0.848899
      4          6           0       -0.555754    0.390349    0.723881
      5          6           0       -1.236090    0.248517    2.086787
      6          8           0       -2.428754    0.850951    2.217279
      7          8           0       -0.750672   -0.374237    2.994478
      8          6           0       -1.329899   -0.362035   -0.397836
      9          6           0       -2.717934    0.148411   -0.603354
     10          6           0       -3.203086    1.374827   -1.004842
     11          7           0       -4.581751    1.396393   -0.962671
     12          6           0       -4.938303    0.206309   -0.542043
     13          7           0       -3.849421   -0.587399   -0.306673
     14          6           0        3.168562   -0.205412    0.304380
     15          6           0        3.991523   -0.511840   -0.944788
     16          7           0        5.388894   -0.752963   -0.574798
     17          1           0        1.015342   -0.570742    1.719425
     18          1           0       -0.523377    1.448498    0.442776
     19          1           0       -2.697624    1.260321    1.377114
     20          1           0       -1.339821   -1.428242   -0.155363
     21          1           0       -0.737104   -0.234981   -1.304573
     22          1           0       -2.635259    2.227929   -1.343576
     23          1           0       -5.949535   -0.137316   -0.389768
     24          1           0       -3.859169   -1.530711    0.048340
     25          1           0        3.134911   -1.073302    0.971796
     26          1           0        3.666781    0.600080    0.854513
     27          1           0        3.946266    0.359523   -1.599579
     28          1           0        3.519383   -1.343101   -1.492466
     29          1           0        5.476653   -1.642927   -0.092696
     30          1           0        5.962389   -0.821447   -1.409058
 ---------------------------------------------------------------------

 SCF Done:  E(RB3LYP) =  -796.361136401     A.U. after    1 cycles

 Alpha  occ. eigenvalues --  -19.17836 -19.12445 -19.09165 -14.38754 -14.34650
 Alpha  occ. eigenvalues --  -14.30599 -14.29092 -10.32126 -10.27951 -10.24801
 Alpha  occ. eigenvalues --  -10.23992 -10.22836 -10.21053 -10.19972 -10.19640
 Alpha  occ. eigenvalues --  -10.18245  -1.12419  -1.05100  -1.04384  -1.03637
 Alpha  occ. eigenvalues --   -0.94272  -0.89219  -0.88720  -0.82321  -0.77417
 Alpha  occ. eigenvalues --   -0.74538  -0.69257  -0.64377  -0.63602  -0.62428
 Alpha  occ. eigenvalues --   -0.61394  -0.59654  -0.57011  -0.54949  -0.50974
 Alpha  occ. eigenvalues --   -0.50635  -0.49105  -0.48845  -0.47342  -0.46570
 Alpha  occ. eigenvalues --   -0.45961  -0.44798  -0.43831  -0.43051  -0.42834
 Alpha  occ. eigenvalues --   -0.42570  -0.41904  -0.40046  -0.39515  -0.39254
 Alpha  occ. eigenvalues --   -0.36028  -0.35258  -0.34045  -0.30517  -0.30025
 Alpha  occ. eigenvalues --   -0.28621  -0.27787  -0.26617  -0.24827  -0.24510
 Alpha virt. eigenvalues --   -0.01909   0.00202   0.01144   0.01901   0.02827
 Alpha virt. eigenvalues --    0.03323   0.04753   0.05080   0.06643   0.07776
 Alpha virt. eigenvalues --    0.08569   0.08697   0.09104   0.10105   0.10831

 Mulliken charges:
               1
     1  O   -0.393427
     2  C    0.372467
     3  N   -0.418133
     4  C   -0.146114
     5  C    0.395569
     6  O   -0.283844
     7  O   -0.327981
     8  C   -0.114594
     9  C   -0.023015
    10  C   -0.086482
    11  N   -0.281780
    12  C    0.153620
    13  N   -0.341222
    14  C   -0.242363
    15  C   -0.104275
    16  N   -0.458453
    17  H    0.241778
    18  H    0.168930
    19  H    0.266315
    20  H    0.118358
    21  H    0.177700
    22  H    0.117268
    23  H    0.118191
    24  H    0.233582
    25  H    0.107503
    26  H    0.149404
    27  H    0.133955
    28  H    0.092556
    29  H    0.182436
    30  H    0.192049
 Sum of Mulliken charges =   0.00000

 Dipole moment (field-independent basis, Debye):
    X=              0.1786    Y=             -4.4064    Z=             -0.7753  Tot=              4.4777
 Quadrupole moment (field-independent basis, Debye-Ang):
   XX=            -91.4747   YY=            -90.8191   ZZ=           -109.6550
   XY=              5.5369   XZ=             -2.2965   YZ=              4.9010

  Exact polarizability: 175.970 -10.703 107.644   0.837 -12.263 110.648
 Approx polarizability: 214.668 -12.282 185.835   3.476 -32.898 174.329

                      1                      2                      3
                      A                      A                      A
 Frequencies --     15.6612                29.9395                45.3375
 Red. masses --      3.6012                 5.1662                 4.9703
 Frc consts  --      0.0005                 0.0027                 0.0060
 IR Inten    --      0.2520                 1.1488                 2.1810

                      4                      5                      6
                      A                      A                      A
 Frequencies --     54.5686                73.5996                80.0266
 Red. masses --      2.3316                 5.9070                 5.3689
 Frc consts  --      0.0041                 0.0189                 0.0203
 IR Inten    --      5.9661                11.2380                 5.6169

                      7                      8                      9
                      A                      A                      A
 Frequencies --     93.0200               104.1643               155.6872
 Red. masses --      4.3143                 6.9964                 4.0933
 Frc consts  --      0.0220                 0.0447                 0.0585
 IR Inten    --      1.2301                 1.3260                 7.0326

                     10                     11                     12
                      A                      A                      A
 Frequencies --    185.8328               213.6688               254.4779
 Red. masses --      4.5384                 4.4911                 1.2483
 Frc consts  --      0.0923                 0.1208                 0.0476
 IR Inten    --      7.6065                13.0946                49.0026

                     13                     14                     15
                      A                      A                      A
 Frequencies --    281.9843               326.3104               334.2099
 Red. masses --      5.3887                 6.8653                 2.3485
 Frc consts  --      0.2525                 0.4307                 0.1546
 IR Inten    --      2.9975                 2.2788                 3.7680

                     16                     17                     18
                      A                      A                      A
 Frequencies --    347.0292               391.1705               402.2160
 Red. masses --      5.8302                 4.3425                 3.9682
 Frc consts  --      0.4137                 0.3915                 0.3782
 IR Inten    --      7.4117                16.7569                 3.3661

                     19                     20                     21
                      A                      A                      A
 Frequencies --    528.3612               549.8775               557.9189
 Red. masses --      1.6069                 1.5594                 2.0184
 Frc consts  --      0.2643                 0.2778                 0.3702
 IR Inten    --     62.4726                53.8906                49.4171

                     22                     23                     24
                      A                      A                      A
 Frequencies --    614.4600               642.1670               645.5040
 Red. masses --      1.8249                 2.0743                 2.3723
 Frc consts  --      0.4060                 0.5040                 0.5824
 IR Inten    --     76.3498                23.8383                 3.8859

                     25                     26                     27
                      A                      A                      A
 Frequencies --    675.5864               683.1934               735.6917
 Red. masses --      2.7063                 3.3339                 3.3120
 Frc consts  --      0.7278                 0.9168                 1.0562
 IR Inten    --     12.2602                20.3093                13.2824

                     28                     29                     30
                      A                      A                      A
 Frequencies --    749.1292               768.3775               806.0391
 Red. masses --      3.4880                 3.8287                 1.4837
 Frc consts  --      1.1533                 1.3318                 0.5679
 IR Inten    --     11.3937                 7.4525                13.6614

                     31                     32                     33
                      A                      A                      A
 Frequencies --    821.4640               829.0275               857.2151
 Red. masses --      1.4805                 2.2052                 1.3673
 Frc consts  --      0.5886                 0.8930                 0.5919
 IR Inten    --     22.5375                 4.0433                40.0193

                     34                     35                     36
                      A                      A                      A
 Frequencies --    859.1447               944.8089               952.2334
 Red. masses --      1.3879                 5.7257                 3.0936
 Frc consts  --      0.6036                 3.0114                 1.6527
 IR Inten    --    107.3678                16.1686                21.2454

                     37                     38                     39
                      A                      A                      A
 Frequencies --    985.6906              1010.2540              1030.7717
 Red. masses --      2.1518                 3.3570                 3.5416
 Frc consts  --      1.2318                 2.0187                 2.2170
 IR Inten    --      3.6963                 4.0718                10.3554

                     40                     41                     42
                      A                      A                      A
 Frequencies --   1038.3216              1064.2074              1098.1852
 Red. masses --      3.4804                 2.7831                 2.0749
 Frc consts  --      2.2108                 1.8571                 1.4744
 IR Inten    --      7.1392                22.1041                20.7640

                     43                     44                     45
                      A                      A                      A
 Frequencies --   1108.0504              1129.4122              1143.0103
 Red. masses --      1.6096                 2.2122                 2.3232
 Frc consts  --      1.1644                 1.6625                 1.7883
 IR Inten    --     14.6419                17.0710                11.3284

                     46                     47                     48
                      A                      A                      A
 Frequencies --   1161.8026              1173.2566              1208.8164
 Red. masses --      1.3741                 1.8000                 1.9924
 Frc consts  --      1.0928                 1.4599                 1.7154
 IR Inten    --      3.4847                19.7191                39.0065

                     49                     50                     51
                      A                      A                      A
 Frequencies --   1224.2481              1253.7317              1264.3042
 Red. masses --      1.6874                 1.9988                 1.4471
 Frc consts  --      1.4900                 1.8511                 1.3628
 IR Inten    --     19.4608                18.1110                 9.6100

                     52                     53                     54
                      A                      A                      A
 Frequencies --   1276.1781              1308.0602              1323.9302
 Red. masses --      1.4210                 1.4435                 1.3727
 Frc consts  --      1.3636                 1.4552                 1.4176
 IR Inten    --      1.9557                11.6238                75.4791

                     55                     56                     57
                      A                      A                      A
 Frequencies --   1338.1943              1360.7044              1362.7763
 Red. masses --      1.1132                 1.3373                 1.5268
 Frc consts  --      1.1745                 1.4588                 1.6707
 IR Inten    --     17.1582                84.6374                74.8436

                     58                     59                     60
                      A                      A                      A
 Frequencies --   1398.8680              1406.4719              1429.4555
 Red. masses --      2.5511                 2.0068                 2.8177
 Frc consts  --      2.9412                 2.3389                 3.3923
 IR Inten    --     39.1515               124.6839                 4.2540

                     61                     62                     63
                      A                      A                      A
 Frequencies --   1430.2934              1470.4628              1488.9597
 Red. masses --      1.6251                 1.0926                 1.6624
 Frc consts  --      1.9587                 1.3919                 2.1715
 IR Inten    --     59.9785                 7.9292                14.1840

                     64                     65                     66
                      A                      A                      A
 Frequencies --   1491.6048              1520.2450              1525.3556
 Red. masses --      1.8640                 1.0836                 2.2973
 Frc consts  --      2.4434                 1.4756                 3.1493
 IR Inten    --     18.0274                 1.5512               341.8855

                     67                     68                     69
                      A                      A                      A
 Frequencies --   1598.3954              1664.2642              1739.6142
 Red. masses --      4.1963                 1.0898                 9.5628
 Frc consts  --      6.3167                 1.7785                17.0507
 IR Inten    --     10.8779                25.5042               211.8788

                     70                     71                     72
                      A                      A                      A
 Frequencies --   1837.7845              2945.8937              3025.4968
 Red. masses --      9.6118                 1.0743                 1.0599
 Frc consts  --     19.1269                 5.4932                 5.7160
 IR Inten    --    281.9915                74.5594                17.7819

                     73                     74                     75
                      A                      A                      A
 Frequencies --   3034.5910              3052.7935              3062.7823
 Red. masses --      1.0806                 1.0650                 1.0989
 Frc consts  --      5.8627                 5.8479                 6.0735
 IR Inten    --      7.4485                19.6878                10.4948

                     76                     77                     78
                      A                      A                      A
 Frequencies --   3096.0256              3105.9779              3232.7822
 Red. masses --      1.0903                 1.1016                 1.0964
 Frc consts  --      6.1573                 6.2615                 6.7511
 IR Inten    --     18.2304                 2.3384                 3.5924

                     79                     80                     81
                      A                      A                      A
 Frequencies --   3245.4052              3486.7920              3563.7598
 Red. masses --      1.0986                 1.0500                 1.0921
 Frc consts  --      6.8175                 7.5215                 8.1717
 IR Inten    --      0.7786                 1.2658                 0.0644

                     82                     83                     84
                      A                      A                      A
 Frequencies --   3592.7213              3646.5150              3651.6901
 Red. masses --      1.0777                 1.0807                 1.0675
 Frc consts  --      8.1960                 8.4668                 8.3867
 IR Inten    --     74.1082                50.2951               260.6333

 - Thermochemistry -
 -------------------
 Temperature   298.150 Kelvin.  Pressure   1.00000 Atm.
 Atom     1 has atomic number  8 and mass  15.99491

 Molecular mass:   226.10659 amu.
 Principal axes and moments of inertia in atomic units:
                           1         2         3
     Eigenvalues --  1627.317657852.075498866.33388
           X            0.99333   0.02260   0.11307
           Y           -0.10991  -0.11080   0.98775
           Z           -0.03486   0.99359   0.10758
 This molecule is an asymmetric top.
 Rotational symmetry number  1.
 Warning -- assumption of classical behavior for rotation
           may cause significant error
 Rotational temperatures (Kelvin)      0.05322     0.01103     0.00977
 Rotational constants (GHZ):           1.10903     0.22984     0.20355
 Zero-point vibrational energy     641306.1 (Joules/Mol)
                                  153.27584 (Kcal/Mol)
 Warning -- explicit consideration of  22 degrees of freedom as
           vibrations may cause significant error
 Vibrational temperatures:     22.53    43.08    65.23    78.51   105.89
          (Kelvin)            115.14   133.83   149.87   224.00   267.37
                              307.42   366.14   405.71   469.49   480.85
                              499.30   562.81   578.70   760.19   791.15
                              802.72   884.07   923.93   928.74   972.02
                              982.96  1058.49  1077.83  1105.52  1159.71
                             1181.90  1192.78  1233.34  1236.12  1359.37
                             1370.05  1418.19  1453.53  1483.05  1493.91
                             1531.16  1580.04  1594.24  1624.97  1644.53
                             1671.57  1688.05  1739.22  1761.42  1803.84
                             1819.05  1836.13  1882.00  1904.84  1925.36
                             1957.75  1960.73  2012.66  2023.60  2056.67
                             2057.87  2115.67  2142.28  2146.08  2187.29
                             2194.64  2299.73  2394.50  2502.91  2644.16
                             4238.48  4353.01  4366.09  4392.28  4406.66
                             4454.48  4468.80  4651.25  4669.41  5016.71
                             5127.45  5169.12  5246.52  5253.96

 Zero-point correction=                           0.244261 (Hartree/Particle)
 Thermal correction to Energy=                    0.260464
 Thermal correction to Enthalpy=                  0.261408
 Thermal correction to Gibbs Free Energy=         0.197214
 Sum of electronic and zero-point Energies=           -796.116876
 Sum of electronic and thermal Energies=              -796.100672
 Sum of electronic and thermal Enthalpies=            -796.099728
 Sum of electronic and thermal Free Energies=         -796.163922

                     E (Thermal)             CV                S
                      KCal/Mol        Cal/Mol-Kelvin    Cal/Mol-Kelvin
 Total                  163.444             58.379            135.108
 Electronic               0.000              0.000              0.000
 Translational            0.889              2.981             42.150
 Rotational               0.889              2.981             33.093
 Vibrational            161.666             52.417             59.864
 Vibration     1          0.593              1.986              7.120
 Vibration     2          0.594              1.984              5.833
 Vibration     3          0.595              1.979              5.011
 Vibration     4          0.596              1.976              4.645
 Vibration     5          0.599              1.966              4.055
 Vibration     6          0.600              1.963              3.890
 Vibration     7          0.602              1.954              3.596
 Vibration     8          0.605              1.946              3.375
 Vibration     9          0.620              1.896              2.602
 Vibration    10          0.632              1.859              2.269
 Vibration    11          0.644              1.820              2.012
 Vibration    12          0.665              1.755              1.699
 Vibration    13          0.681              1.707              1.522
 Vibration    14          0.710              1.623              1.278
 Vibration    15          0.716              1.607              1.240
 Vibration    16          0.725              1.581              1.180
 Vibration    17          0.759              1.489              0.996
 Vibration    18          0.768              1.465              0.955
 Vibration    19          0.883              1.187              0.591
 Vibration    20          0.905              1.140              0.544
 Vibration    21          0.913              1.122              0.528
 Vibration    22          0.974              1.001              0.425

 Normal termination of Gaussian 09 at Sat Jul 24 02:13:27 2021.
