 Gaussian 09, Revision D.01,
 Gaussian 09:  ES64L-G09RevD.01 24-Apr-2013

 ----------------------------------------------------------------------
 # B3LYP/6-311G(d,p) EmpiricalDispersion=GD3BJ opt=calcfc freq=noraman
 nosymm integral(ultrafinegrid)
 ----------------------------------------------------------------------

 ------------------------------------------------------------
 Candidate Structure: Conf:118 OPT and FREQ calc in gas phase
 ------------------------------------------------------------
 Symbolic Z-matrix:
 Charge =  0 Multiplicity = 1

 SCF Done:  E(RB3LYP) =  -796.374005229     A.U. after   14 cycles
 SCF Done:  E(RB3LYP) =  -796.376153919     A.U. after   14 cycles
 SCF Done:  E(RB3LYP) =  -796.376536673     A.U. after   14 cycles
 SCF Done:  E(RB3LYP) =  -796.377022549     A.U. after   11 cycles
 SCF Done:  E(RB3LYP) =  -796.377189605     A.U. after   12 cycles
 SCF Done:  E(RB3LYP) =  -796.377219102     A.U. after   10 cycles
 SCF Done:  E(RB3LYP) =  -796.377232587     A.U. after   10 cycles
 SCF Done:  E(RB3LYP) =  -796.377234955     A.U. after    9 cycles
 SCF Done:  E(RB3LYP) =  -796.377235130     A.U. after    7 cycles
 Optimization completed.
    -- Stationary point found.
 Normal termination of Gaussian 09 at Sat Jul 24 01:28:59 2021.

 ----------------------------------------------------------------------
 #N Geom=AllCheck Guess=TCheck SCRF=Check GenChk RB3LYP/6-311G(d,p) Fre
 q
 ----------------------------------------------------------------------

 Structure from the checkpoint file:  "conf-118.chk"
 ------------------------------------------------------------
 Candidate Structure: Conf:118 OPT and FREQ calc in gas phase
 ------------------------------------------------------------
 Charge =  0 Multiplicity = 1

                          Input orientation:
 ---------------------------------------------------------------------
 Center     Atomic      Atomic             Coordinates (Angstroms)
 Number     Number       Type             X           Y           Z
 ---------------------------------------------------------------------
      1          8           0       -0.991396   -1.927392    1.752089
      2          6           0       -1.009510   -1.294755    0.688843
      3          7           0        0.104130   -0.712664    0.195538
      4          6           0        1.426816   -0.884389    0.793949
      5          6           0        1.570658   -0.066636    2.099006
      6          8           0        0.730591   -0.405950    3.066979
      7          8           0        2.399950    0.801669    2.245965
      8          6           0        2.507880   -0.535822   -0.244596
      9          6           0        2.278411    0.768127   -0.934512
     10          6           0        1.857157    1.071111   -2.210874
     11          7           0        1.740693    2.433398   -2.377317
     12          6           0        2.081823    2.952597   -1.217861
     13          7           0        2.417271    1.990669   -0.311711
     14          6           0       -2.286730   -1.108918   -0.093791
     15          6           0       -3.366933   -0.401546    0.759072
     16          7           0       -4.662613   -0.239508    0.115068
     17          1           0        0.056055   -0.122631   -0.625835
     18          1           0        1.522625   -1.937837    1.077940
     19          1           0        0.100776   -1.105123    2.749155
     20          1           0        2.518900   -1.323914   -1.000518
     21          1           0        3.476589   -0.547981    0.258797
     22          1           0        1.661853    0.383970   -3.020966
     23          1           0        2.104944    4.004804   -0.979970
     24          1           0        2.654208    2.085232    0.668811
     25          1           0       -2.646664   -2.105228   -0.368754
     26          1           0       -2.109492   -0.551333   -1.018444
     27          1           0       -3.498886   -0.967950    1.682687
     28          1           0       -3.001013    0.588540    1.047873
     29          1           0       -4.580555    0.300132   -0.740650
     30          1           0       -5.057438   -1.140667   -0.134485
 ---------------------------------------------------------------------

 SCF Done:  E(RB3LYP) =  -796.377235130     A.U. after    1 cycles

 Alpha  occ. eigenvalues --  -19.16143 -19.12148 -19.12037 -14.37365 -14.36637
 Alpha  occ. eigenvalues --  -14.30191 -14.29359 -10.31734 -10.30544 -10.25480
 Alpha  occ. eigenvalues --  -10.22741 -10.21509 -10.21234 -10.21140 -10.20104
 Alpha  occ. eigenvalues --  -10.19056  -1.11651  -1.07540  -1.03404  -1.02161
 Alpha  occ. eigenvalues --   -0.96475  -0.90034  -0.87759  -0.82532  -0.78116
 Alpha  occ. eigenvalues --   -0.74904  -0.68757  -0.65680  -0.62682  -0.62452
 Alpha  occ. eigenvalues --   -0.61204  -0.60021  -0.56710  -0.55584  -0.52883
 Alpha  occ. eigenvalues --   -0.51647  -0.51114  -0.48099  -0.46894  -0.46597
 Alpha  occ. eigenvalues --   -0.45760  -0.45128  -0.44370  -0.43732  -0.42856
 Alpha  occ. eigenvalues --   -0.41822  -0.41797  -0.41264  -0.40198  -0.39361
 Alpha  occ. eigenvalues --   -0.38192  -0.36597  -0.33142  -0.32035  -0.29876
 Alpha  occ. eigenvalues --   -0.29063  -0.28097  -0.27492  -0.25312  -0.24088
 Alpha virt. eigenvalues --   -0.02400  -0.01184   0.00918   0.01977   0.03214
 Alpha virt. eigenvalues --    0.03786   0.05911   0.06530   0.06656   0.06738
 Alpha virt. eigenvalues --    0.08195   0.08726   0.10381   0.10984   0.11164

 Mulliken charges:
               1
     1  O   -0.443446
     2  C    0.381923
     3  N   -0.390075
     4  C   -0.173387
     5  C    0.446668
     6  O   -0.297443
     7  O   -0.364122
     8  C   -0.175301
     9  C    0.031857
    10  C   -0.082317
    11  N   -0.295432
    12  C    0.153167
    13  N   -0.351069
    14  C   -0.239816
    15  C   -0.104873
    16  N   -0.439843
    17  H    0.257815
    18  H    0.174020
    19  H    0.272619
    20  H    0.135139
    21  H    0.155119
    22  H    0.097358
    23  H    0.113212
    24  H    0.256815
    25  H    0.135583
    26  H    0.106748
    27  H    0.141819
    28  H    0.122491
    29  H    0.186604
    30  H    0.188167
 Sum of Mulliken charges =   0.00000

 Dipole moment (field-independent basis, Debye):
    X=             -0.6624    Y=             -2.4182    Z=             -2.2815  Tot=              3.3899
 Quadrupole moment (field-independent basis, Debye-Ang):
   XX=            -96.1244   YY=            -93.8155   ZZ=           -114.0832
   XY=             -1.1097   XZ=              6.9243   YZ=              8.9950

  Exact polarizability: 135.775  14.770 128.868   3.147 -12.184 126.627
 Approx polarizability: 179.041  18.968 200.591  10.159 -15.581 200.865

                      1                      2                      3
                      A                      A                      A
 Frequencies --     13.5656                43.7433                55.9210
 Red. masses --      4.2658                 7.1945                 2.8593
 Frc consts  --      0.0005                 0.0081                 0.0053
 IR Inten    --      0.2282                 1.3275                 4.1960

                      4                      5                      6
                      A                      A                      A
 Frequencies --     74.3944                84.8416                95.0576
 Red. masses --      4.0700                 2.9670                 5.1264
 Frc consts  --      0.0133                 0.0126                 0.0273
 IR Inten    --      5.9409                 0.2014                 4.9000

                      7                      8                      9
                      A                      A                      A
 Frequencies --    136.5271               157.4558               194.0293
 Red. masses --      8.7513                 5.3917                 4.2735
 Frc consts  --      0.0961                 0.0788                 0.0948
 IR Inten    --      8.5160                 9.2162                 9.5988

                     10                     11                     12
                      A                      A                      A
 Frequencies --    213.9829               234.7704               275.8284
 Red. masses --      4.7729                 7.1273                 6.8013
 Frc consts  --      0.1288                 0.2315                 0.3049
 IR Inten    --      4.9979                14.4809                 0.6801

                     13                     14                     15
                      A                      A                      A
 Frequencies --    304.2928               308.7619               346.2515
 Red. masses --      5.6861                 1.1128                 4.4887
 Frc consts  --      0.3102                 0.0625                 0.3171
 IR Inten    --      2.2991                42.1120                 4.3308

                     16                     17                     18
                      A                      A                      A
 Frequencies --    362.1159               382.9835               442.5867
 Red. masses --      2.4831                 4.0197                 3.4095
 Frc consts  --      0.1918                 0.3474                 0.3935
 IR Inten    --      6.3750                 4.9438                23.5621

                     19                     20                     21
                      A                      A                      A
 Frequencies --    561.2147               576.6522               609.3054
 Red. masses --      1.4253                 3.9047                 3.7493
 Frc consts  --      0.2645                 0.7650                 0.8201
 IR Inten    --     38.3699                17.8678                10.5161

                     22                     23                     24
                      A                      A                      A
 Frequencies --    637.8134               662.6355               675.5080
 Red. masses --      3.5226                 2.7103                 3.5554
 Frc consts  --      0.8443                 0.7012                 0.9559
 IR Inten    --      9.4286                 9.5569                33.9409

                     25                     26                     27
                      A                      A                      A
 Frequencies --    733.6295               746.4833               764.4839
 Red. masses --      2.7571                 1.3475                 5.2046
 Frc consts  --      0.8743                 0.4424                 1.7922
 IR Inten    --      4.3242                73.8467                 8.0592

                     28                     29                     30
                      A                      A                      A
 Frequencies --    773.5742               788.4306               829.9109
 Red. masses --      1.3736                 3.9034                 1.4731
 Frc consts  --      0.4843                 1.4296                 0.5978
 IR Inten    --      5.6558                 2.4185               303.4908

                     31                     32                     33
                      A                      A                      A
 Frequencies --    830.5947               842.8937               858.3120
 Red. masses --      1.4252                 1.5459                 2.4295
 Frc consts  --      0.5793                 0.6471                 1.0545
 IR Inten    --     12.9886                10.0681                15.0281

                     34                     35                     36
                      A                      A                      A
 Frequencies --    926.7635               947.5049               949.5744
 Red. masses --      1.2201                 3.8928                 2.7077
 Frc consts  --      0.6174                 2.0591                 1.4385
 IR Inten    --     70.1274                 6.3434                21.3169

                     37                     38                     39
                      A                      A                      A
 Frequencies --    980.3049               991.1432              1012.6926
 Red. masses --      1.3915                 4.3326                 4.2366
 Frc consts  --      0.7879                 2.5077                 2.5599
 IR Inten    --      1.2674                 6.4017                60.4768

                     40                     41                     42
                      A                      A                      A
 Frequencies --   1016.8771              1059.5776              1094.4055
 Red. masses --      4.1737                 2.3535                 2.2505
 Frc consts  --      2.5428                 1.5568                 1.5881
 IR Inten    --     19.3639                10.6627                 5.7364

                     43                     44                     45
                      A                      A                      A
 Frequencies --   1109.8717              1118.6660              1141.7650
 Red. masses --      3.5060                 1.5701                 1.4208
 Frc consts  --      2.5446                 1.1577                 1.0913
 IR Inten    --     11.4235                49.0740                 4.5154

                     46                     47                     48
                      A                      A                      A
 Frequencies --   1146.2782              1221.5500              1239.6273
 Red. masses --      2.1397                 1.5757                 2.3081
 Frc consts  --      1.6565                 1.3853                 2.0897
 IR Inten    --      6.1995                10.2694                36.9068

                     49                     50                     51
                      A                      A                      A
 Frequencies --   1255.0593              1261.7177              1284.0101
 Red. masses --      1.6056                 2.2815                 1.3116
 Frc consts  --      1.4901                 2.1400                 1.2740
 IR Inten    --     26.6307                 4.2487                 5.4196

                     52                     53                     54
                      A                      A                      A
 Frequencies --   1293.6319              1308.0775              1352.2924
 Red. masses --      1.3378                 1.4918                 1.6474
 Frc consts  --      1.3190                 1.5040                 1.7750
 IR Inten    --      1.9195                24.0235                 5.4764

                     55                     56                     57
                      A                      A                      A
 Frequencies --   1368.9590              1383.5391              1386.9093
 Red. masses --      1.6015                 1.4780                 1.2518
 Frc consts  --      1.7683                 1.6669                 1.4187
 IR Inten    --     13.6824                 2.4397                21.2283

                     58                     59                     60
                      A                      A                      A
 Frequencies --   1394.8916              1398.5788              1427.7859
 Red. masses --      1.1992                 3.1304                 2.6999
 Frc consts  --      1.3747                 3.6076                 3.2429
 IR Inten    --      9.4288                26.2969                61.2843

                     61                     62                     63
                      A                      A                      A
 Frequencies --   1467.8281              1473.8998              1477.4219
 Red. masses --      1.3751                 1.1478                 1.1311
 Frc consts  --      1.7456                 1.4691                 1.4546
 IR Inten    --    236.5499                11.7111                 1.2630

                     64                     65                     66
                      A                      A                      A
 Frequencies --   1500.8692              1503.6956              1542.2024
 Red. masses --      3.3792                 1.0900                 2.4273
 Frc consts  --      4.4849                 1.4521                 3.4013
 IR Inten    --     17.4214                 6.6902               462.9589

                     67                     68                     69
                      A                      A                      A
 Frequencies --   1602.3831              1666.6359              1684.7974
 Red. masses --      4.3946                 1.1125                 6.6797
 Frc consts  --      6.6481                 1.8206                11.1713
 IR Inten    --     15.7667                48.3651               198.5560

                     70                     71                     72
                      A                      A                      A
 Frequencies --   1812.3058              3031.1200              3036.4903
 Red. masses --      8.1920                 1.0590                 1.0825
 Frc consts  --     15.8527                 5.7325                 5.8804
 IR Inten    --    346.8398                 3.0825                 5.3434

                     73                     74                     75
                      A                      A                      A
 Frequencies --   3040.8755              3061.4908              3072.9522
 Red. masses --      1.0663                 1.0609                 1.0999
 Frc consts  --      5.8092                 5.8586                 6.1193
 IR Inten    --     32.5430                19.9077                 4.8452

                     76                     77                     78
                      A                      A                      A
 Frequencies --   3099.9826              3102.8657              3221.7809
 Red. masses --      1.1035                 1.1043                 1.0963
 Frc consts  --      6.2482                 6.2642                 6.7048
 IR Inten    --     23.0804                 5.6469                 5.9814

                     79                     80                     81
                      A                      A                      A
 Frequencies --   3242.2335              3244.5385              3491.9827
 Red. masses --      1.0978                 1.0746                 1.0483
 Frc consts  --      6.7995                 6.6649                 7.5317
 IR Inten    --     10.5284               680.8304                 0.3864

                     82                     83                     84
                      A                      A                      A
 Frequencies --   3555.5997              3570.5003              3570.8370
 Red. masses --      1.0789                 1.0938                 1.0828
 Frc consts  --      8.0366                 8.2159                 8.1346
 IR Inten    --    124.7683                 0.1477               210.6534

 - Thermochemistry -
 -------------------
 Temperature   298.150 Kelvin.  Pressure   1.00000 Atm.
 Atom     1 has atomic number  8 and mass  15.99491

 Molecular mass:   226.10659 amu.
 Principal axes and moments of inertia in atomic units:
                           1         2         3
     Eigenvalues --  2671.547895323.730276833.15301
           X            0.87345   0.42040  -0.24564
           Y            0.41579  -0.38147   0.82559
           Z           -0.25338   0.82325   0.50800
 This molecule is an asymmetric top.
 Rotational symmetry number  1.
 Warning -- assumption of classical behavior for rotation
           may cause significant error
 Rotational temperatures (Kelvin)      0.03242     0.01627     0.01268
 Rotational constants (GHZ):           0.67554     0.33900     0.26412
 Zero-point vibrational energy     644583.2 (Joules/Mol)
                                  154.05908 (Kcal/Mol)
 Warning -- explicit consideration of  21 degrees of freedom as
           vibrations may cause significant error
 Vibrational temperatures:     19.52    62.94    80.46   107.04   122.07
          (Kelvin)            136.77   196.43   226.54   279.16   307.87
                              337.78   396.86   437.81   444.24   498.18
                              521.00   551.03   636.78   807.46   829.67
                              876.65   917.67   953.38   971.90  1055.53
                             1074.02  1099.92  1113.00  1134.37  1194.06
                             1195.04  1212.73  1234.92  1333.40  1363.25
                             1366.22  1410.44  1426.03  1457.04  1463.06
                             1524.49  1574.60  1596.86  1609.51  1642.74
                             1649.24  1757.54  1783.55  1805.75  1815.33
                             1847.40  1861.25  1882.03  1945.64  1969.62
                             1990.60  1995.45  2006.94  2012.24  2054.26
                             2111.87  2120.61  2125.68  2159.41  2163.48
                             2218.88  2305.47  2397.91  2424.04  2607.50
                             4361.10  4368.83  4375.14  4404.80  4421.29
                             4460.18  4464.33  4635.42  4664.85  4668.16
                             5024.18  5115.71  5137.15  5137.63

 Zero-point correction=                           0.245509 (Hartree/Particle)
 Thermal correction to Energy=                    0.260959
 Thermal correction to Enthalpy=                  0.261903
 Thermal correction to Gibbs Free Energy=         0.200395
 Sum of electronic and zero-point Energies=           -796.131726
 Sum of electronic and thermal Energies=              -796.116276
 Sum of electronic and thermal Enthalpies=            -796.115332
 Sum of electronic and thermal Free Energies=         -796.176840

                     E (Thermal)             CV                S
                      KCal/Mol        Cal/Mol-Kelvin    Cal/Mol-Kelvin
 Total                  163.754             57.007            129.455
 Electronic               0.000              0.000              0.000
 Translational            0.889              2.981             42.150
 Rotational               0.889              2.981             32.941
 Vibrational            161.977             51.046             54.364
 Vibration     1          0.593              1.986              7.405
 Vibration     2          0.595              1.980              5.082
 Vibration     3          0.596              1.975              4.596
 Vibration     4          0.599              1.966              4.034
 Vibration     5          0.601              1.960              3.776
 Vibration     6          0.603              1.953              3.553
 Vibration     7          0.614              1.917              2.852
 Vibration     8          0.621              1.894              2.580
 Vibration     9          0.635              1.848              2.189
 Vibration    10          0.644              1.820              2.009
 Vibration    11          0.655              1.788              1.842
 Vibration    12          0.677              1.718              1.559
 Vibration    13          0.695              1.666              1.393
 Vibration    14          0.698              1.657              1.369
 Vibration    15          0.724              1.583              1.183
 Vibration    16          0.736              1.550              1.113
 Vibration    17          0.752              1.506              1.027
 Vibration    18          0.802              1.377              0.819
 Vibration    19          0.917              1.115              0.521
 Vibration    20          0.933              1.082              0.492
 Vibration    21          0.968              1.012              0.434

 Normal termination of Gaussian 09 at Sat Jul 24 02:02:00 2021.
