 Gaussian 09, Revision D.01,
 Gaussian 09:  ES64L-G09RevD.01 24-Apr-2013

 ----------------------------------------------------------------------
 # B3LYP/6-311G(d,p) EmpiricalDispersion=GD3BJ opt=calcfc freq=noraman
 nosymm integral(ultrafinegrid)
 ----------------------------------------------------------------------

 ------------------------------------------------------------
 Candidate Structure: Conf:422 OPT and FREQ calc in gas phase
 ------------------------------------------------------------
 Symbolic Z-matrix:
 Charge =  0 Multiplicity = 1

 SCF Done:  E(RB3LYP) =  -796.359583864     A.U. after   14 cycles
 SCF Done:  E(RB3LYP) =  -796.360907465     A.U. after   12 cycles
 SCF Done:  E(RB3LYP) =  -796.361024227     A.U. after   13 cycles
 SCF Done:  E(RB3LYP) =  -796.346787929     A.U. after   13 cycles
 SCF Done:  E(RB3LYP) =  -796.361057930     A.U. after    8 cycles
 SCF Done:  E(RB3LYP) =  -796.361089361     A.U. after   10 cycles
 SCF Done:  E(RB3LYP) =  -796.361090634     A.U. after    9 cycles
 SCF Done:  E(RB3LYP) =  -796.361091527     A.U. after    8 cycles
 SCF Done:  E(RB3LYP) =  -796.361093499     A.U. after    9 cycles
 SCF Done:  E(RB3LYP) =  -796.361093965     A.U. after    9 cycles
 Optimization completed.
    -- Stationary point found.
 Normal termination of Gaussian 09 at Sat Jul 24 01:28:25 2021.

 ----------------------------------------------------------------------
 #N Geom=AllCheck Guess=TCheck SCRF=Check GenChk RB3LYP/6-311G(d,p) Fre
 q
 ----------------------------------------------------------------------

 Structure from the checkpoint file:  "conf-422.chk"
 ------------------------------------------------------------
 Candidate Structure: Conf:422 OPT and FREQ calc in gas phase
 ------------------------------------------------------------
 Charge =  0 Multiplicity = 1

                          Input orientation:
 ---------------------------------------------------------------------
 Center     Atomic      Atomic             Coordinates (Angstroms)
 Number     Number       Type             X           Y           Z
 ---------------------------------------------------------------------
      1          8           0        0.769714    0.633590    1.548902
      2          6           0        1.110529    0.067655    0.522657
      3          7           0        0.295543   -0.815458   -0.134367
      4          6           0       -0.966305   -1.244024    0.420116
      5          6           0       -0.930404   -2.749203    0.641724
      6          8           0       -1.953344   -3.162751    1.416191
      7          8           0       -0.117397   -3.497638    0.162784
      8          6           0       -2.174548   -0.894642   -0.476436
      9          6           0       -2.366353    0.575524   -0.661299
     10          6           0       -1.908822    1.686744    0.004800
     11          7           0       -2.426015    2.838215   -0.555281
     12          6           0       -3.187233    2.440707   -1.544659
     13          7           0       -3.187353    1.076296   -1.657595
     14          6           0        2.442070    0.331796   -0.157330
     15          6           0        3.506189    0.821219    0.820595
     16          7           0        4.710644    1.218951    0.084673
     17          1           0        0.699481   -1.405920   -0.845666
     18          1           0       -1.076869   -0.749445    1.386885
     19          1           0       -1.883166   -4.126575    1.489774
     20          1           0       -3.066184   -1.346743   -0.029281
     21          1           0       -2.029383   -1.378912   -1.450874
     22          1           0       -1.222272    1.721328    0.835391
     23          1           0       -3.753937    3.075690   -2.208325
     24          1           0       -3.695338    0.530965   -2.335329
     25          1           0        2.783498   -0.566183   -0.685232
     26          1           0        2.285624    1.103232   -0.918862
     27          1           0        3.678663    0.047446    1.584531
     28          1           0        3.110646    1.692458    1.344310
     29          1           0        5.189052    0.397626   -0.274325
     30          1           0        5.363293    1.677963    0.711527
 ---------------------------------------------------------------------

 SCF Done:  E(RB3LYP) =  -796.361093965     A.U. after    1 cycles

 Alpha  occ. eigenvalues --  -19.18855 -19.13233 -19.08858 -14.36463 -14.34249
 Alpha  occ. eigenvalues --  -14.28582 -14.28096 -10.32399 -10.27565 -10.24055
 Alpha  occ. eigenvalues --  -10.21727 -10.20517 -10.20363 -10.19025 -10.17765
 Alpha  occ. eigenvalues --  -10.16987  -1.13495  -1.04869  -1.04384  -1.01210
 Alpha  occ. eigenvalues --   -0.94004  -0.88187  -0.86832  -0.81584  -0.76355
 Alpha  occ. eigenvalues --   -0.74119  -0.68568  -0.65068  -0.61428  -0.61055
 Alpha  occ. eigenvalues --   -0.59558  -0.58234  -0.54812  -0.52522  -0.51438
 Alpha  occ. eigenvalues --   -0.50382  -0.48730  -0.48568  -0.47756  -0.45786
 Alpha  occ. eigenvalues --   -0.45199  -0.44296  -0.43472  -0.42426  -0.41794
 Alpha  occ. eigenvalues --   -0.41077  -0.40353  -0.39895  -0.38843  -0.38236
 Alpha  occ. eigenvalues --   -0.35874  -0.34803  -0.34713  -0.30600  -0.27918
 Alpha  occ. eigenvalues --   -0.27264  -0.26312  -0.26131  -0.23996  -0.22437
 Alpha virt. eigenvalues --   -0.01626   0.00966   0.02156   0.02351   0.03121
 Alpha virt. eigenvalues --    0.03707   0.04713   0.06304   0.07087   0.08498
 Alpha virt. eigenvalues --    0.09177   0.09466   0.09997   0.10999   0.11731

 Mulliken charges:
               1
     1  O   -0.391274
     2  C    0.401397
     3  N   -0.382806
     4  C   -0.119943
     5  C    0.365701
     6  O   -0.315960
     7  O   -0.332743
     8  C   -0.136174
     9  C    0.083801
    10  C   -0.068476
    11  N   -0.300699
    12  C    0.146458
    13  N   -0.378729
    14  C   -0.253843
    15  C   -0.101709
    16  N   -0.459819
    17  H    0.226138
    18  H    0.182499
    19  H    0.258621
    20  H    0.145998
    21  H    0.112852
    22  H    0.128813
    23  H    0.106449
    24  H    0.221879
    25  H    0.105436
    26  H    0.153238
    27  H    0.095855
    28  H    0.133916
    29  H    0.181380
    30  H    0.191742
 Sum of Mulliken charges =   0.00000

 Dipole moment (field-independent basis, Debye):
    X=             -1.1917    Y=             -5.0695    Z=             -2.6392  Tot=              5.8383
 Quadrupole moment (field-independent basis, Debye-Ang):
   XX=            -74.4520   YY=           -102.5637   ZZ=            -89.6462
   XY=              7.9375   XZ=             11.8629   YZ=             -4.1916

  Exact polarizability: 139.166   1.962 141.847  11.632  -3.305 108.736
 Approx polarizability: 179.092   0.686 208.464  11.068  16.287 182.310

                      1                      2                      3
                      A                      A                      A
 Frequencies --     11.0941                28.9235                47.8804
 Red. masses --      3.1290                 2.8765                 8.6426
 Frc consts  --      0.0002                 0.0014                 0.0117
 IR Inten    --      1.5209                 2.2824                 3.3646

                      4                      5                      6
                      A                      A                      A
 Frequencies --     50.4708                61.3654                80.5959
 Red. masses --      4.0946                 3.9965                 7.2539
 Frc consts  --      0.0061                 0.0089                 0.0278
 IR Inten    --      2.7170                 4.8633                 8.1472

                      7                      8                      9
                      A                      A                      A
 Frequencies --     91.1144               103.0493               136.2684
 Red. masses --      4.8015                 3.7999                 4.1035
 Frc consts  --      0.0235                 0.0238                 0.0449
 IR Inten    --      0.8002                 3.5931                 3.5154

                     10                     11                     12
                      A                      A                      A
 Frequencies --    179.6427               220.7134               243.9510
 Red. masses --      6.4189                 3.1400                 2.5420
 Frc consts  --      0.1220                 0.0901                 0.0891
 IR Inten    --      2.1721                 9.3831                 9.7673

                     13                     14                     15
                      A                      A                      A
 Frequencies --    258.4206               282.4211               311.8715
 Red. masses --      1.6296                 3.3482                 4.0312
 Frc consts  --      0.0641                 0.1573                 0.2310
 IR Inten    --     43.5435                 1.4267                 7.5429

                     16                     17                     18
                      A                      A                      A
 Frequencies --    350.7446               399.1924               447.9327
 Red. masses --      4.5969                 3.8838                 3.1356
 Frc consts  --      0.3332                 0.3646                 0.3707
 IR Inten    --      3.3249                13.3333                19.1571

                     19                     20                     21
                      A                      A                      A
 Frequencies --    484.7610               494.3662               532.7621
 Red. masses --      1.5507                 1.4367                 3.3350
 Frc consts  --      0.2147                 0.2069                 0.5577
 IR Inten    --     57.4339                85.6980                14.9965

                     22                     23                     24
                      A                      A                      A
 Frequencies --    599.2496               617.4255               648.9054
 Red. masses --      1.3750                 2.3714                 2.7264
 Frc consts  --      0.2909                 0.5326                 0.6764
 IR Inten    --     90.0653                 4.6052                36.2336

                     25                     26                     27
                      A                      A                      A
 Frequencies --    653.7857               682.0499               696.9073
 Red. masses --      4.0831                 3.3896                 3.1834
 Frc consts  --      1.0283                 0.9290                 0.9109
 IR Inten    --     34.3447                 9.1962                26.4245

                     28                     29                     30
                      A                      A                      A
 Frequencies --    732.4180               785.9122               803.6089
 Red. masses --      4.2794                 4.0838                 1.4006
 Frc consts  --      1.3526                 1.4861                 0.5329
 IR Inten    --      9.6134                20.7248                12.4359

                     31                     32                     33
                      A                      A                      A
 Frequencies --    805.6575               859.4293               882.8364
 Red. masses --      1.3543                 1.3419                 1.4967
 Frc consts  --      0.5179                 0.5840                 0.6873
 IR Inten    --     19.8317               119.0847                13.5384

                     34                     35                     36
                      A                      A                      A
 Frequencies --    910.1809               921.9079               945.8377
 Red. masses --      1.6747                 4.1754                 5.7623
 Frc consts  --      0.8174                 2.0909                 3.0373
 IR Inten    --     18.0914                10.6910                11.2742

                     37                     38                     39
                      A                      A                      A
 Frequencies --    982.0539              1001.1273              1029.4839
 Red. masses --      2.5374                 2.6611                 3.5912
 Frc consts  --      1.4418                 1.5714                 2.2425
 IR Inten    --      6.9359                10.9197                12.5365

                     40                     41                     42
                      A                      A                      A
 Frequencies --   1061.8803              1063.9205              1099.0927
 Red. masses --      2.9749                 2.9997                 2.0578
 Frc consts  --      1.9764                 2.0006                 1.4646
 IR Inten    --     28.8089                 1.7352                29.2033

                     43                     44                     45
                      A                      A                      A
 Frequencies --   1106.1782              1123.7070              1146.2253
 Red. masses --      1.6064                 2.5658                 2.6417
 Frc consts  --      1.1581                 1.9089                 2.0449
 IR Inten    --     14.1109                77.6105                21.3300

                     46                     47                     48
                      A                      A                      A
 Frequencies --   1161.7156              1180.8794              1203.6837
 Red. masses --      1.6067                 2.0806                 1.9190
 Frc consts  --      1.2775                 1.7094                 1.6381
 IR Inten    --    110.0999                78.8965                41.5520

                     49                     50                     51
                      A                      A                      A
 Frequencies --   1226.1878              1255.4880              1268.4018
 Red. masses --      1.6401                 1.4244                 1.4627
 Frc consts  --      1.4529                 1.3228                 1.3865
 IR Inten    --     32.9090                21.2433                24.0676

                     52                     53                     54
                      A                      A                      A
 Frequencies --   1284.5842              1294.5165              1337.9952
 Red. masses --      1.3145                 1.4499                 1.1225
 Frc consts  --      1.2780                 1.4315                 1.1840
 IR Inten    --     16.1042                 6.2145                 4.6098

                     55                     56                     57
                      A                      A                      A
 Frequencies --   1340.3050              1354.5353              1372.4341
 Red. masses --      1.6589                 1.5266                 1.6579
 Frc consts  --      1.7558                 1.6503                 1.8398
 IR Inten    --      2.0472                 2.6226                11.4538

                     58                     59                     60
                      A                      A                      A
 Frequencies --   1397.9892              1412.1054              1427.5093
 Red. masses --      2.2453                 2.2579                 2.7295
 Frc consts  --      2.5854                 2.6527                 3.2771
 IR Inten    --    115.2527                22.8894                19.1175

                     61                     62                     63
                      A                      A                      A
 Frequencies --   1432.2754              1467.4978              1485.2234
 Red. masses --      1.5323                 1.0885                 1.3549
 Frc consts  --      1.8520                 1.3812                 1.7609
 IR Inten    --     41.5397                 8.7740                25.7070

                     64                     65                     66
                      A                      A                      A
 Frequencies --   1502.1739              1518.6920              1542.8821
 Red. masses --      2.5647                 1.0836                 1.8750
 Frc consts  --      3.4097                 1.4726                 2.6298
 IR Inten    --      6.8615                 1.4614               247.7848

                     67                     68                     69
                      A                      A                      A
 Frequencies --   1609.7492              1664.1227              1751.9407
 Red. masses --      4.2724                 1.0894                 8.8963
 Frc consts  --      6.5228                 1.7775                16.0878
 IR Inten    --     13.7498                25.5617               192.0869

                     70                     71                     72
                      A                      A                      A
 Frequencies --   1825.8478              2955.6097              3001.0699
 Red. masses --     10.0271                 1.0744                 1.0647
 Frc consts  --     19.6950                 5.5299                 5.6496
 IR Inten    --    264.0982                69.5538                35.6653

                     73                     74                     75
                      A                      A                      A
 Frequencies --   3020.3012              3043.4063              3060.6381
 Red. masses --      1.0622                 1.0951                 1.0964
 Frc consts  --      5.7090                 5.9762                 6.0513
 IR Inten    --     20.2483                12.9998                 9.6372

                     76                     77                     78
                      A                      A                      A
 Frequencies --   3093.3237              3097.2232              3236.6942
 Red. masses --      1.0836                 1.0902                 1.0963
 Frc consts  --      6.1088                 6.1617                 6.7667
 IR Inten    --     11.0752                16.5922                 2.2346

                     79                     80                     81
                      A                      A                      A
 Frequencies --   3248.2096              3485.7822              3562.8321
 Red. masses --      1.0995                 1.0501                 1.0919
 Frc consts  --      6.8351                 7.5178                 8.1663
 IR Inten    --      4.3891                 1.5256                 0.0414

                     82                     83                     84
                      A                      A                      A
 Frequencies --   3620.7145              3649.3326              3752.9077
 Red. masses --      1.0767                 1.0809                 1.0643
 Frc consts  --      8.3167                 8.4815                 8.8318
 IR Inten    --     35.2292                41.9024                73.1582

 - Thermochemistry -
 -------------------
 Temperature   298.150 Kelvin.  Pressure   1.00000 Atm.
 Atom     1 has atomic number  8 and mass  15.99491

 Molecular mass:   226.10659 amu.
 Principal axes and moments of inertia in atomic units:
                           1         2         3
     Eigenvalues --  3400.349545049.924057698.65985
           X            0.98075   0.07704  -0.17945
           Y           -0.03003   0.96747   0.25119
           Z            0.19296  -0.24097   0.95116
 This molecule is an asymmetric top.
 Rotational symmetry number  1.
 Warning -- assumption of classical behavior for rotation
           may cause significant error
 Rotational temperatures (Kelvin)      0.02547     0.01715     0.01125
 Rotational constants (GHZ):           0.53075     0.35738     0.23442
 Zero-point vibrational energy     640744.4 (Joules/Mol)
                                  153.14159 (Kcal/Mol)
 Warning -- explicit consideration of  23 degrees of freedom as
           vibrations may cause significant error
 Vibrational temperatures:     15.96    41.61    68.89    72.62    88.29
          (Kelvin)            115.96   131.09   148.26   196.06   258.47
                              317.56   350.99   371.81   406.34   448.71
                              504.64   574.35   644.47   697.46   711.28
                              766.52   862.19   888.34   933.63   940.65
                              981.32  1002.69  1053.78  1130.75  1156.21
                             1159.16  1236.53  1270.20  1309.55  1326.42
                             1360.85  1412.95  1440.40  1481.20  1527.81
                             1530.74  1581.35  1591.54  1616.76  1649.16
                             1671.45  1699.02  1731.83  1764.21  1806.36
                             1824.95  1848.23  1862.52  1925.07  1928.40
                             1948.87  1974.62  2011.39  2031.70  2053.86
                             2060.72  2111.40  2136.90  2161.29  2185.06
                             2219.86  2316.07  2394.30  2520.65  2626.98
                             4252.46  4317.86  4345.53  4378.78  4403.57
                             4450.60  4456.21  4656.88  4673.44  5015.26
                             5126.11  5209.39  5250.57  5399.59

 Zero-point correction=                           0.244047 (Hartree/Particle)
 Thermal correction to Energy=                    0.260517
 Thermal correction to Enthalpy=                  0.261461
 Thermal correction to Gibbs Free Energy=         0.196139
 Sum of electronic and zero-point Energies=           -796.117047
 Sum of electronic and thermal Energies=              -796.100577
 Sum of electronic and thermal Enthalpies=            -796.099633
 Sum of electronic and thermal Free Energies=         -796.164955

                     E (Thermal)             CV                S
                      KCal/Mol        Cal/Mol-Kelvin    Cal/Mol-Kelvin
 Total                  163.477             58.823            137.481
 Electronic               0.000              0.000              0.000
 Translational            0.889              2.981             42.150
 Rotational               0.889              2.981             33.247
 Vibrational            161.699             52.861             62.085
 Vibration     1          0.593              1.987              7.805
 Vibration     2          0.593              1.984              5.902
 Vibration     3          0.595              1.978              4.903
 Vibration     4          0.595              1.977              4.799
 Vibration     5          0.597              1.973              4.413
 Vibration     6          0.600              1.962              3.876
 Vibration     7          0.602              1.955              3.636
 Vibration     8          0.605              1.947              3.396
 Vibration     9          0.614              1.917              2.856
 Vibration    10          0.629              1.867              2.332
 Vibration    11          0.647              1.810              1.953
 Vibration    12          0.659              1.773              1.774
 Vibration    13          0.667              1.749              1.672
 Vibration    14          0.681              1.706              1.519
 Vibration    15          0.700              1.651              1.352
 Vibration    16          0.728              1.574              1.163
 Vibration    17          0.765              1.472              0.966
 Vibration    18          0.807              1.365              0.802
 Vibration    19          0.841              1.284              0.697
 Vibration    20          0.850              1.263              0.672
 Vibration    21          0.888              1.178              0.581
 Vibration    22          0.957              1.033              0.451
 Vibration    23          0.977              0.995              0.421

 Normal termination of Gaussian 09 at Sat Jul 24 01:59:37 2021.
