 Gaussian 09, Revision D.01,
 Gaussian 09:  ES64L-G09RevD.01 24-Apr-2013

 ----------------------------------------------------------------------
 # B3LYP/6-311G(d,p) EmpiricalDispersion=GD3BJ opt=calcfc freq=noraman
 nosymm integral(ultrafinegrid)
 ----------------------------------------------------------------------

 ------------------------------------------------------------
 Candidate Structure: Conf:273 OPT and FREQ calc in gas phase
 ------------------------------------------------------------
 Symbolic Z-matrix:
 Charge =  0 Multiplicity = 1

 SCF Done:  E(RB3LYP) =  -796.361915930     A.U. after   14 cycles
 SCF Done:  E(RB3LYP) =  -796.364813316     A.U. after   14 cycles
 SCF Done:  E(RB3LYP) =  -796.364276470     A.U. after   14 cycles
 SCF Done:  E(RB3LYP) =  -796.364826369     A.U. after    9 cycles
 SCF Done:  E(RB3LYP) =  -796.365031321     A.U. after   11 cycles
 SCF Done:  E(RB3LYP) =  -796.365043716     A.U. after   10 cycles
 SCF Done:  E(RB3LYP) =  -796.365047059     A.U. after   10 cycles
 SCF Done:  E(RB3LYP) =  -796.365047520     A.U. after   10 cycles
 SCF Done:  E(RB3LYP) =  -796.365047748     A.U. after    8 cycles
 Optimization completed.
    -- Stationary point found.
 Normal termination of Gaussian 09 at Sat Jul 24 01:27:18 2021.

 ----------------------------------------------------------------------
 #N Geom=AllCheck Guess=TCheck SCRF=Check GenChk RB3LYP/6-311G(d,p) Fre
 q
 ----------------------------------------------------------------------

 Structure from the checkpoint file:  "conf-273.chk"
 ------------------------------------------------------------
 Candidate Structure: Conf:273 OPT and FREQ calc in gas phase
 ------------------------------------------------------------
 Charge =  0 Multiplicity = 1

                          Input orientation:
 ---------------------------------------------------------------------
 Center     Atomic      Atomic             Coordinates (Angstroms)
 Number     Number       Type             X           Y           Z
 ---------------------------------------------------------------------
      1          8           0        0.674728   -1.690511    1.598153
      2          6           0        0.885699   -0.663743    0.946217
      3          7           0        0.308774   -0.464223   -0.261807
      4          6           0       -0.803686   -1.287510   -0.752056
      5          6           0       -0.307304   -2.655636   -1.281699
      6          8           0        0.322196   -3.412641   -0.386130
      7          8           0       -0.498884   -3.012625   -2.414615
      8          6           0       -1.566597   -0.544574   -1.843660
      9          6           0       -2.137027    0.759153   -1.384452
     10          6           0       -2.248001    1.369557   -0.156735
     11          7           0       -2.894204    2.583136   -0.264652
     12          6           0       -3.176128    2.717464   -1.537370
     13          7           0       -2.736577    1.643155   -2.263120
     14          6           0        1.782307    0.440002    1.459642
     15          6           0        2.963482   -0.100137    2.265558
     16          7           0        3.689181    1.012896    2.880684
     17          1           0        0.445203    0.427510   -0.713534
     18          1           0       -1.465341   -1.488931    0.098880
     19          1           0        0.401565   -2.932117    0.475922
     20          1           0       -2.353827   -1.212634   -2.202393
     21          1           0       -0.897239   -0.401457   -2.699570
     22          1           0       -1.903994    1.004815    0.797946
     23          1           0       -3.684751    3.553653   -1.991726
     24          1           0       -2.845003    1.503732   -3.255404
     25          1           0        2.129832    1.065821    0.630897
     26          1           0        1.183622    1.084434    2.112518
     27          1           0        2.568671   -0.741027    3.055002
     28          1           0        3.580391   -0.740745    1.616078
     29          1           0        4.366053    0.660427    3.548996
     30          1           0        4.216822    1.523059    2.178466
 ---------------------------------------------------------------------

 SCF Done:  E(RB3LYP) =  -796.365047748     A.U. after    1 cycles

 Alpha  occ. eigenvalues --  -19.14756 -19.11990 -19.10298 -14.38012 -14.37027
 Alpha  occ. eigenvalues --  -14.29858 -14.29835 -10.30223 -10.30165 -10.24938
 Alpha  occ. eigenvalues --  -10.23372 -10.22140 -10.20929 -10.20631 -10.19692
 Alpha  occ. eigenvalues --  -10.19266  -1.10206  -1.07254  -1.02921  -1.01935
 Alpha  occ. eigenvalues --   -0.96134  -0.89576  -0.88542  -0.82580  -0.78026
 Alpha  occ. eigenvalues --   -0.74923  -0.68740  -0.65025  -0.62957  -0.61757
 Alpha  occ. eigenvalues --   -0.60791  -0.60002  -0.56679  -0.53860  -0.53405
 Alpha  occ. eigenvalues --   -0.52100  -0.50427  -0.47767  -0.46817  -0.46318
 Alpha  occ. eigenvalues --   -0.45143  -0.44732  -0.44014  -0.43282  -0.43148
 Alpha  occ. eigenvalues --   -0.42288  -0.42050  -0.40424  -0.39732  -0.37797
 Alpha  occ. eigenvalues --   -0.37532  -0.36433  -0.31634  -0.31099  -0.29716
 Alpha  occ. eigenvalues --   -0.29258  -0.28062  -0.26882  -0.25280  -0.24191
 Alpha virt. eigenvalues --   -0.01619   0.00133   0.00533   0.01905   0.02514
 Alpha virt. eigenvalues --    0.03275   0.04378   0.05261   0.05969   0.07777
 Alpha virt. eigenvalues --    0.07928   0.08274   0.10120   0.10804   0.11869

 Mulliken charges:
               1
     1  O   -0.437830
     2  C    0.399272
     3  N   -0.390124
     4  C   -0.217695
     5  C    0.441339
     6  O   -0.309704
     7  O   -0.325971
     8  C   -0.163966
     9  C    0.061988
    10  C   -0.065061
    11  N   -0.295639
    12  C    0.152585
    13  N   -0.371777
    14  C   -0.236407
    15  C   -0.106905
    16  N   -0.457863
    17  H    0.246606
    18  H    0.175937
    19  H    0.268552
    20  H    0.155612
    21  H    0.138522
    22  H    0.103400
    23  H    0.113530
    24  H    0.231297
    25  H    0.112147
    26  H    0.159089
    27  H    0.137255
    28  H    0.101040
    29  H    0.196001
    30  H    0.184769
 Sum of Mulliken charges =   0.00000

 Dipole moment (field-independent basis, Debye):
    X=              1.3656    Y=              3.7196    Z=             -2.1869  Tot=              4.5258
 Quadrupole moment (field-independent basis, Debye-Ang):
   XX=            -81.4245   YY=           -117.4889   ZZ=            -91.5648
   XY=              4.2959   XZ=             13.9988   YZ=            -17.9220

  Exact polarizability: 118.392 -14.134 135.503  27.888   3.126 135.686
 Approx polarizability: 153.473 -15.482 195.326  21.835   1.043 223.477

                      1                      2                      3
                      A                      A                      A
 Frequencies --     18.6917                27.8229                46.8745
 Red. masses --      3.7387                 3.3640                 3.2456
 Frc consts  --      0.0008                 0.0015                 0.0042
 IR Inten    --      0.6372                 1.9739                 4.5571

                      4                      5                      6
                      A                      A                      A
 Frequencies --     63.0943                69.1132                83.8591
 Red. masses --      5.8601                 3.8650                 4.3941
 Frc consts  --      0.0137                 0.0109                 0.0182
 IR Inten    --      7.9873                 7.6647                 0.4237

                      7                      8                      9
                      A                      A                      A
 Frequencies --     88.0663               159.3983               171.6650
 Red. masses --      5.3225                 4.3705                 4.3590
 Frc consts  --      0.0243                 0.0654                 0.0757
 IR Inten    --      1.2411                10.7329                 5.8170

                     10                     11                     12
                      A                      A                      A
 Frequencies --    215.0872               228.1985               241.8727
 Red. masses --      6.5612                 3.0648                 1.7382
 Frc consts  --      0.1788                 0.0940                 0.0599
 IR Inten    --      5.0642                15.4930                14.9588

                     13                     14                     15
                      A                      A                      A
 Frequencies --    261.9295               283.6185               315.7427
 Red. masses --      2.2189                 3.8752                 6.2323
 Frc consts  --      0.0897                 0.1837                 0.3661
 IR Inten    --     19.7246                22.1582                 6.3793

                     16                     17                     18
                      A                      A                      A
 Frequencies --    359.9087               387.8349               439.6617
 Red. masses --      5.7923                 4.5539                 3.0007
 Frc consts  --      0.4421                 0.4036                 0.3418
 IR Inten    --      2.0811                 1.6271                 4.9453

                     19                     20                     21
                      A                      A                      A
 Frequencies --    484.2104               524.4246               547.2137
 Red. masses --      1.2787                 1.4679                 4.3310
 Frc consts  --      0.1766                 0.2379                 0.7641
 IR Inten    --     89.7095                74.1772                19.5224

                     22                     23                     24
                      A                      A                      A
 Frequencies --    625.2017               629.4025               649.9600
 Red. masses --      4.6104                 2.9164                 2.3649
 Frc consts  --      1.0618                 0.6807                 0.5886
 IR Inten    --     15.3369                12.4980                17.4158

                     25                     26                     27
                      A                      A                      A
 Frequencies --    680.8870               731.4403               754.2217
 Red. masses --      3.0447                 4.5243                 3.7799
 Frc consts  --      0.8317                 1.4261                 1.2669
 IR Inten    --      4.8877                 2.0881                 9.6031

                     28                     29                     30
                      A                      A                      A
 Frequencies --    774.9537               806.4112               813.8301
 Red. masses --      4.6766                 1.4781                 1.4046
 Frc consts  --      1.6548                 0.5663                 0.5481
 IR Inten    --     28.4456                 9.5617                18.6441

                     31                     32                     33
                      A                      A                      A
 Frequencies --    841.0095               854.3495               876.2800
 Red. masses --      1.3318                 1.3313                 2.3689
 Frc consts  --      0.5550                 0.5725                 1.0717
 IR Inten    --     12.4816               106.3838                13.8762

                     34                     35                     36
                      A                      A                      A
 Frequencies --    902.6440               941.1454               949.6983
 Red. masses --      1.1457                 4.8826                 3.8046
 Frc consts  --      0.5500                 2.5481                 2.0218
 IR Inten    --     91.4136                14.4131                 5.9465

                     37                     38                     39
                      A                      A                      A
 Frequencies --    968.4134              1003.3375              1028.4445
 Red. masses --      2.6856                 2.5996                 3.7011
 Frc consts  --      1.4839                 1.5419                 2.3064
 IR Inten    --      4.4102                 2.3442                 9.6339

                     40                     41                     42
                      A                      A                      A
 Frequencies --   1064.3885              1085.1519              1100.7140
 Red. masses --      2.8565                 2.4193                 2.2380
 Frc consts  --      1.9067                 1.6785                 1.5976
 IR Inten    --     23.1204                10.6320                21.5964

                     43                     44                     45
                      A                      A                      A
 Frequencies --   1107.8677              1121.0857              1150.5111
 Red. masses --      1.6159                 2.8696                 2.4741
 Frc consts  --      1.1685                 2.1249                 1.9295
 IR Inten    --     16.4441                 7.5119                15.4090

                     46                     47                     48
                      A                      A                      A
 Frequencies --   1164.0945              1199.8598              1220.7134
 Red. masses --      1.3548                 1.6677                 2.3789
 Frc consts  --      1.0817                 1.4146                 2.0886
 IR Inten    --      2.9642                18.9349                19.4407

                     49                     50                     51
                      A                      A                      A
 Frequencies --   1237.6069              1264.6676              1276.8063
 Red. masses --      1.6015                 1.5356                 1.4779
 Frc consts  --      1.4452                 1.4470                 1.4195
 IR Inten    --     23.3084                 9.2505                 0.4830

                     52                     53                     54
                      A                      A                      A
 Frequencies --   1284.1961              1314.6891              1341.0726
 Red. masses --      1.4893                 1.7681                 1.1203
 Frc consts  --      1.4471                 1.8005                 1.1871
 IR Inten    --     49.0870                15.9974                 6.3556

                     55                     56                     57
                      A                      A                      A
 Frequencies --   1354.6575              1371.7431              1384.7746
 Red. masses --      1.7434                 1.5095                 1.5289
 Frc consts  --      1.8850                 1.6736                 1.7273
 IR Inten    --      1.7672                 8.4539                10.7199

                     58                     59                     60
                      A                      A                      A
 Frequencies --   1421.1928              1425.6022              1431.3890
 Red. masses --      2.3778                 2.7137                 1.5013
 Frc consts  --      2.8297                 3.2494                 1.8124
 IR Inten    --      7.0431                19.6032                27.3451

                     61                     62                     63
                      A                      A                      A
 Frequencies --   1464.3426              1466.3168              1483.4083
 Red. masses --      1.3558                 1.1007                 1.1731
 Frc consts  --      1.7130                 1.3944                 1.5209
 IR Inten    --    264.0978                 5.6515                25.2963

                     64                     65                     66
                      A                      A                      A
 Frequencies --   1501.1847              1519.9081              1542.5093
 Red. masses --      3.3873                 1.0834                 2.2192
 Frc consts  --      4.4976                 1.4745                 3.1110
 IR Inten    --     15.7099                 2.0574               340.7238

                     67                     68                     69
                      A                      A                      A
 Frequencies --   1607.9938              1665.9939              1699.7404
 Red. masses --      4.3073                 1.0929                 7.4114
 Frc consts  --      6.5618                 1.7872                12.6157
 IR Inten    --     10.2398                24.3972               230.7062

                     70                     71                     72
                      A                      A                      A
 Frequencies --   1839.4575              2952.9313              3019.7947
 Red. masses --      9.0196                 1.0742                 1.0797
 Frc consts  --     17.9811                 5.5189                 5.8013
 IR Inten    --    344.8408                66.2585                 3.6239

                     73                     74                     75
                      A                      A                      A
 Frequencies --   3028.3532              3033.0905              3064.1892
 Red. masses --      1.0596                 1.0697                 1.0993
 Frc consts  --      5.7255                 5.7978                 6.0813
 IR Inten    --     15.0753                17.5586                 7.4030

                     76                     77                     78
                      A                      A                      A
 Frequencies --   3070.6464              3098.0176              3238.6400
 Red. masses --      1.0947                 1.0907                 1.0946
 Frc consts  --      6.0813                 6.1679                 6.7646
 IR Inten    --      7.4311                16.1324                 8.5071

                     79                     80                     81
                      A                      A                      A
 Frequencies --   3242.7313              3299.3737              3490.6794
 Red. masses --      1.0998                 1.0731                 1.0502
 Frc consts  --      6.8137                 6.8826                 7.5396
 IR Inten    --      0.9759               691.8745                 0.6425

                     82                     83                     84
                      A                      A                      A
 Frequencies --   3568.1223              3617.3007              3645.5537
 Red. masses --      1.0921                 1.0780                 1.0812
 Frc consts  --      8.1919                 8.3108                 8.4659
 IR Inten    --      0.2145                41.7038                52.9943

 - Thermochemistry -
 -------------------
 Temperature   298.150 Kelvin.  Pressure   1.00000 Atm.
 Atom     1 has atomic number  8 and mass  15.99491

 Molecular mass:   226.10659 amu.
 Principal axes and moments of inertia in atomic units:
                           1         2         3
     Eigenvalues --  3089.660005429.524337985.22818
           X            0.79073   0.04709  -0.61035
           Y           -0.28779   0.90858  -0.30276
           Z            0.54029   0.41505   0.73199
 This molecule is an asymmetric top.
 Rotational symmetry number  1.
 Warning -- assumption of classical behavior for rotation
           may cause significant error
 Rotational temperatures (Kelvin)      0.02803     0.01595     0.01085
 Rotational constants (GHZ):           0.58412     0.33239     0.22601
 Zero-point vibrational energy     641993.8 (Joules/Mol)
                                  153.44020 (Kcal/Mol)
 Warning -- explicit consideration of  21 degrees of freedom as
           vibrations may cause significant error
 Vibrational temperatures:     26.89    40.03    67.44    90.78    99.44
          (Kelvin)            120.65   126.71   229.34   246.99   309.46
                              328.33   348.00   376.86   408.06   454.28
                              517.83   558.01   632.57   696.67   754.53
                              787.32   899.52   905.57   935.15   979.64
                             1052.38  1085.16  1114.98  1160.24  1170.92
                             1210.02  1229.22  1260.77  1298.70  1354.10
                             1366.40  1393.33  1443.58  1479.70  1531.42
                             1561.29  1583.68  1593.97  1612.99  1655.33
                             1674.87  1726.33  1756.33  1780.64  1819.57
                             1837.04  1847.67  1891.54  1929.50  1949.05
                             1973.63  1992.38  2044.78  2051.12  2059.45
                             2106.86  2109.70  2134.29  2159.87  2186.81
                             2219.32  2313.54  2396.99  2445.54  2646.57
                             4248.60  4344.81  4357.12  4363.94  4408.68
                             4417.97  4457.35  4659.67  4665.56  4747.06
                             5022.30  5133.73  5204.48  5245.13

 Zero-point correction=                           0.244523 (Hartree/Particle)
 Thermal correction to Energy=                    0.260563
 Thermal correction to Enthalpy=                  0.261507
 Thermal correction to Gibbs Free Energy=         0.197945
 Sum of electronic and zero-point Energies=           -796.120525
 Sum of electronic and thermal Energies=              -796.104485
 Sum of electronic and thermal Enthalpies=            -796.103541
 Sum of electronic and thermal Free Energies=         -796.167103

                     E (Thermal)             CV                S
                      KCal/Mol        Cal/Mol-Kelvin    Cal/Mol-Kelvin
 Total                  163.506             57.954            133.777
 Electronic               0.000              0.000              0.000
 Translational            0.889              2.981             42.150
 Rotational               0.889              2.981             33.260
 Vibrational            161.728             51.992             58.367
 Vibration     1          0.593              1.986              6.769
 Vibration     2          0.593              1.984              5.979
 Vibration     3          0.595              1.979              4.945
 Vibration     4          0.597              1.972              4.358
 Vibration     5          0.598              1.969              4.178
 Vibration     6          0.601              1.960              3.798
 Vibration     7          0.601              1.958              3.703
 Vibration     8          0.621              1.892              2.557
 Vibration     9          0.626              1.877              2.417
 Vibration    10          0.645              1.818              2.000
 Vibration    11          0.651              1.798              1.893
 Vibration    12          0.658              1.776              1.789
 Vibration    13          0.669              1.742              1.649
 Vibration    14          0.682              1.704              1.512
 Vibration    15          0.703              1.644              1.332
 Vibration    16          0.734              1.555              1.123
 Vibration    17          0.756              1.496              1.008
 Vibration    18          0.800              1.384              0.828
 Vibration    19          0.840              1.285              0.699
 Vibration    20          0.879              1.196              0.600
 Vibration    21          0.902              1.146              0.550

 Optimization completed.
    -- Stationary point found.
 Normal termination of Gaussian 09 at Sat Jul 24 01:59:01 2021.
