 Gaussian 09, Revision D.01,
 Gaussian 09:  ES64L-G09RevD.01 24-Apr-2013

 ----------------------------------------------------------------------
 # B3LYP/6-311G(d,p) EmpiricalDispersion=GD3BJ opt=calcfc freq=noraman
 nosymm integral(ultrafinegrid)
 ----------------------------------------------------------------------

 ------------------------------------------------------------
 Candidate Structure: Conf:599 OPT and FREQ calc in gas phase
 ------------------------------------------------------------
 Symbolic Z-matrix:
 Charge =  0 Multiplicity = 1

 SCF Done:  E(RB3LYP) =  -796.359187780     A.U. after   14 cycles
 SCF Done:  E(RB3LYP) =  -796.360451813     A.U. after   15 cycles
 SCF Done:  E(RB3LYP) =  -796.356082329     A.U. after   15 cycles
 SCF Done:  E(RB3LYP) =  -796.360731243     A.U. after   11 cycles
 SCF Done:  E(RB3LYP) =  -796.361032892     A.U. after   12 cycles
 SCF Done:  E(RB3LYP) =  -796.361076986     A.U. after   11 cycles
 SCF Done:  E(RB3LYP) =  -796.361082750     A.U. after   10 cycles
 SCF Done:  E(RB3LYP) =  -796.361083151     A.U. after    9 cycles
 SCF Done:  E(RB3LYP) =  -796.361083171     A.U. after    6 cycles
 Optimization completed.
    -- Stationary point found.
 Normal termination of Gaussian 09 at Sat Jul 24 01:29:39 2021.

 ----------------------------------------------------------------------
 #N Geom=AllCheck Guess=TCheck SCRF=Check GenChk RB3LYP/6-311G(d,p) Fre
 q
 ----------------------------------------------------------------------

 Structure from the checkpoint file:  "conf-599.chk"
 ------------------------------------------------------------
 Candidate Structure: Conf:599 OPT and FREQ calc in gas phase
 ------------------------------------------------------------
 Charge =  0 Multiplicity = 1

                          Input orientation:
 ---------------------------------------------------------------------
 Center     Atomic      Atomic             Coordinates (Angstroms)
 Number     Number       Type             X           Y           Z
 ---------------------------------------------------------------------
      1          8           0        2.735780    1.617033    0.721262
      2          6           0        1.915383    0.811494    0.331987
      3          7           0        1.085726    1.139709   -0.741719
      4          6           0       -0.198956    0.502391   -1.027389
      5          6           0       -0.400602    0.416222   -2.551086
      6          8           0        0.730084    0.378821   -3.265164
      7          8           0       -1.481403    0.355495   -3.079191
      8          6           0       -1.392907    1.166871   -0.300951
      9          6           0       -2.546878    0.256481   -0.044987
     10          6           0       -3.086006   -0.216504    1.128979
     11          7           0       -4.155476   -1.044763    0.877183
     12          6           0       -4.265480   -1.078662   -0.432955
     13          7           0       -3.319835   -0.305512   -1.039829
     14          6           0        1.763925   -0.577575    0.928189
     15          6           0        2.832119   -0.874661    1.994699
     16          7           0        4.214108   -0.895823    1.535485
     17          1           0        1.132296    2.135043   -0.938315
     18          1           0       -0.131943   -0.534709   -0.692039
     19          1           0        1.469533    0.511310   -2.645803
     20          1           0       -1.703452    2.054611   -0.862511
     21          1           0       -1.030270    1.512713    0.669173
     22          1           0       -2.769168    0.006967    2.136717
     23          1           0       -5.000104   -1.638199   -0.991111
     24          1           0       -3.130441   -0.182032   -2.026597
     25          1           0        0.760884   -0.667216    1.364290
     26          1           0        1.814967   -1.322122    0.124406
     27          1           0        2.753664   -0.125642    2.785707
     28          1           0        2.598182   -1.841649    2.448958
     29          1           0        4.342992   -1.577022    0.794059
     30          1           0        4.463206    0.016988    1.170844
 ---------------------------------------------------------------------

 SCF Done:  E(RB3LYP) =  -796.361083171     A.U. after    1 cycles

 Alpha  occ. eigenvalues --  -19.19352 -19.14041 -19.12348 -14.37726 -14.36215
 Alpha  occ. eigenvalues --  -14.28982 -14.28792 -10.33737 -10.30893 -10.26701
 Alpha  occ. eigenvalues --  -10.22215 -10.21606 -10.21019 -10.20726 -10.20524
 Alpha  occ. eigenvalues --  -10.18378  -1.14156  -1.08104  -1.06023  -1.01697
 Alpha  occ. eigenvalues --   -0.96805  -0.89167  -0.87305  -0.82131  -0.78248
 Alpha  occ. eigenvalues --   -0.75367  -0.69439  -0.66579  -0.64608  -0.61386
 Alpha  occ. eigenvalues --   -0.59984  -0.59586  -0.57751  -0.55166  -0.54094
 Alpha  occ. eigenvalues --   -0.51720  -0.49591  -0.49186  -0.48744  -0.47684
 Alpha  occ. eigenvalues --   -0.46434  -0.45009  -0.44488  -0.43882  -0.43574
 Alpha  occ. eigenvalues --   -0.42361  -0.41491  -0.41213  -0.40459  -0.39365
 Alpha  occ. eigenvalues --   -0.38735  -0.37066  -0.35496  -0.32697  -0.30998
 Alpha  occ. eigenvalues --   -0.28979  -0.28408  -0.26952  -0.24558  -0.23345
 Alpha virt. eigenvalues --   -0.03399  -0.02507   0.00732   0.01700   0.02721
 Alpha virt. eigenvalues --    0.03779   0.05016   0.05446   0.06565   0.07475
 Alpha virt. eigenvalues --    0.07816   0.08189   0.09226   0.10198   0.10638

 Mulliken charges:
               1
     1  O   -0.337056
     2  C    0.372259
     3  N   -0.463906
     4  C   -0.145760
     5  C    0.427483
     6  O   -0.279272
     7  O   -0.347990
     8  C   -0.156454
     9  C    0.072832
    10  C   -0.070661
    11  N   -0.298620
    12  C    0.151696
    13  N   -0.365967
    14  C   -0.325076
    15  C   -0.091368
    16  N   -0.450088
    17  H    0.234906
    18  H    0.187872
    19  H    0.253746
    20  H    0.140059
    21  H    0.134831
    22  H    0.092986
    23  H    0.109475
    24  H    0.252111
    25  H    0.144850
    26  H    0.127342
    27  H    0.127829
    28  H    0.119630
    29  H    0.177746
    30  H    0.204567
 Sum of Mulliken charges =   0.00000

 Dipole moment (field-independent basis, Debye):
    X=              1.3846    Y=              0.4487    Z=             -1.9616  Tot=              2.4426
 Quadrupole moment (field-independent basis, Debye-Ang):
   XX=           -117.5730   YY=            -93.5565   ZZ=           -107.1066
   XY=             -6.4304   XZ=             -2.1813   YZ=              2.2109

  Exact polarizability: 158.315  18.273 104.562  10.909  -3.691 129.113
 Approx polarizability: 213.085  33.600 165.306  12.983   0.047 200.416

                      1                      2                      3
                      A                      A                      A
 Frequencies --     16.4209                35.2409                49.9976
 Red. masses --      5.6121                 4.8187                 3.4858
 Frc consts  --      0.0009                 0.0035                 0.0051
 IR Inten    --      0.3475                 0.3100                 2.7290

                      4                      5                      6
                      A                      A                      A
 Frequencies --     65.2893                80.4771                90.4994
 Red. masses --      6.7401                 5.0480                 6.3114
 Frc consts  --      0.0169                 0.0193                 0.0305
 IR Inten    --      0.4650                 0.5621                 9.4628

                      7                      8                      9
                      A                      A                      A
 Frequencies --    136.1004               148.0953               159.2388
 Red. masses --      4.9168                 5.9063                 3.0384
 Frc consts  --      0.0537                 0.0763                 0.0454
 IR Inten    --      1.7816                12.6244                 5.4716

                     10                     11                     12
                      A                      A                      A
 Frequencies --    208.1137               248.2557               284.4250
 Red. masses --      4.3950                 2.9905                 4.6372
 Frc consts  --      0.1122                 0.1086                 0.2210
 IR Inten    --      7.1058                 7.2448                 8.7195

                     13                     14                     15
                      A                      A                      A
 Frequencies --    317.1701               339.1453               364.7684
 Red. masses --      4.3969                 2.7793                 1.1596
 Frc consts  --      0.2606                 0.1883                 0.0909
 IR Inten    --      1.6894                 4.2791                53.6124

                     16                     17                     18
                      A                      A                      A
 Frequencies --    368.8605               416.0710               447.7681
 Red. masses --      4.7255                 2.9020                 5.1459
 Frc consts  --      0.3788                 0.2960                 0.6079
 IR Inten    --     11.1813                10.7610                 0.7180

                     19                     20                     21
                      A                      A                      A
 Frequencies --    524.3665               552.5822               602.3559
 Red. masses --      2.3843                 2.6735                 4.0451
 Frc consts  --      0.3863                 0.4810                 0.8648
 IR Inten    --     18.2957                 3.0356                10.6218

                     22                     23                     24
                      A                      A                      A
 Frequencies --    629.2382               652.3607               674.8046
 Red. masses --      3.3405                 3.3385                 2.1971
 Frc consts  --      0.7793                 0.8371                 0.5895
 IR Inten    --     34.6877                 5.7593                32.4715

                     25                     26                     27
                      A                      A                      A
 Frequencies --    684.4823               723.4921               737.8367
 Red. masses --      1.8294                 3.8636                 1.2404
 Frc consts  --      0.5050                 1.1915                 0.3979
 IR Inten    --     74.4060                 4.0672                60.2545

                     28                     29                     30
                      A                      A                      A
 Frequencies --    746.9284               803.2937               812.2574
 Red. masses --      3.1198                 1.3953                 1.9311
 Frc consts  --      1.0255                 0.5305                 0.7506
 IR Inten    --      6.1404               112.6674                45.9416

                     31                     32                     33
                      A                      A                      A
 Frequencies --    822.8552               831.8464               846.5799
 Red. masses --      1.4315                 2.6384                 1.4231
 Frc consts  --      0.5711                 1.0757                 0.6009
 IR Inten    --     40.7611                42.2047                11.3817

                     34                     35                     36
                      A                      A                      A
 Frequencies --    861.4727               888.7964               931.0395
 Red. masses --      1.5772                 2.6232                 1.6192
 Frc consts  --      0.6896                 1.2209                 0.8269
 IR Inten    --    201.7505                 8.1670                 8.7053

                     37                     38                     39
                      A                      A                      A
 Frequencies --    947.7501               986.0595              1025.7962
 Red. masses --      5.6021                 2.7126                 2.2017
 Frc consts  --      2.9648                 1.5540                 1.3650
 IR Inten    --     17.9340                 4.0866                60.4750

                     40                     41                     42
                      A                      A                      A
 Frequencies --   1030.6540              1057.8496              1111.1528
 Red. masses --      3.8152                 4.4446                 2.5963
 Frc consts  --      2.3878                 2.9305                 1.8887
 IR Inten    --      5.5797                24.1085                 5.3146

                     43                     44                     45
                      A                      A                      A
 Frequencies --   1120.3845              1132.3904              1147.6455
 Red. masses --      1.5772                 3.3487                 2.2042
 Frc consts  --      1.1664                 2.5300                 1.7105
 IR Inten    --     59.0870                28.0342                12.7775

                     46                     47                     48
                      A                      A                      A
 Frequencies --   1166.3268              1198.8974              1206.8791
 Red. masses --      1.4131                 1.3330                 2.3320
 Frc consts  --      1.1326                 1.1289                 2.0013
 IR Inten    --     36.5626                 1.5821                21.5404

                     49                     50                     51
                      A                      A                      A
 Frequencies --   1241.5750              1262.0799              1270.8275
 Red. masses --      1.7408                 2.4081                 1.4212
 Frc consts  --      1.5811                 2.2600                 1.3523
 IR Inten    --     87.9325                10.4498                74.8159

                     52                     53                     54
                      A                      A                      A
 Frequencies --   1274.8660              1306.5276              1324.3435
 Red. masses --      1.6182                 1.2665                 1.3506
 Frc consts  --      1.5496                 1.2738                 1.3957
 IR Inten    --     72.5621                 3.0502                25.4594

                     55                     56                     57
                      A                      A                      A
 Frequencies --   1366.0263              1369.9240              1387.7472
 Red. masses --      1.4803                 1.7695                 1.6079
 Frc consts  --      1.6275                 1.9566                 1.8244
 IR Inten    --      1.6241               196.7256               262.7990

                     58                     59                     60
                      A                      A                      A
 Frequencies --   1394.4905              1399.4257              1409.7954
 Red. masses --      3.5981                 1.3047                 1.4328
 Frc consts  --      4.1224                 1.5054                 1.6778
 IR Inten    --     18.6601                13.5762                60.1485

                     61                     62                     63
                      A                      A                      A
 Frequencies --   1432.3961              1452.1384              1477.3636
 Red. masses --      2.7194                 1.1216                 1.1434
 Frc consts  --      3.2873                 1.3935                 1.4703
 IR Inten    --     34.8459                 9.1463                19.8214

                     64                     65                     66
                      A                      A                      A
 Frequencies --   1480.3064              1486.5377              1499.8405
 Red. masses --      1.4250                 1.0935                 3.2337
 Frc consts  --      1.8398                 1.4238                 4.2858
 IR Inten    --     21.9581                 7.4182                18.0284

                     67                     68                     69
                      A                      A                      A
 Frequencies --   1605.7231              1663.3087              1778.1322
 Red. masses --      4.4351                 1.0928                 8.1652
 Frc consts  --      6.7374                 1.7812                15.2105
 IR Inten    --     15.6401                28.8768               394.4922

                     70                     71                     72
                      A                      A                      A
 Frequencies --   1835.4710              3007.5964              3028.4985
 Red. masses --      9.7921                 1.0603                 1.0662
 Frc consts  --     19.4366                 5.6511                 5.7619
 IR Inten    --    242.3810                20.6969                22.0726

                     73                     74                     75
                      A                      A                      A
 Frequencies --   3038.3583              3047.4994              3081.6648
 Red. masses --      1.0857                 1.0766                 1.0822
 Frc consts  --      5.9054                 5.8910                 6.0555
 IR Inten    --      8.8558                36.4872                 8.1154

                     76                     77                     78
                      A                      A                      A
 Frequencies --   3088.6300              3090.6239              3224.8772
 Red. masses --      1.1027                 1.0962                 1.0964
 Frc consts  --      6.1979                 6.1694                 6.7182
 IR Inten    --     21.4047                 5.2189                 8.0838

                     79                     80                     81
                      A                      A                      A
 Frequencies --   3241.3275              3496.2913              3533.0399
 Red. masses --      1.0980                 1.0488                 1.0748
 Frc consts  --      6.7965                 7.5538                 7.9045
 IR Inten    --      1.4425                 2.6189                21.4594

                     82                     83                     84
                      A                      A                      A
 Frequencies --   3580.2470              3582.2349              3647.0540
 Red. masses --      1.0824                 1.0930                 1.0646
 Frc consts  --      8.1749                 8.2637                 8.3433
 IR Inten    --    192.5444                 4.5244               191.8119

 - Thermochemistry -
 -------------------
 Temperature   298.150 Kelvin.  Pressure   1.00000 Atm.
 Atom     1 has atomic number  8 and mass  15.99491

 Molecular mass:   226.10659 amu.
 Principal axes and moments of inertia in atomic units:
                           1         2         3
     Eigenvalues --  2434.378486141.049957692.67094
           X            0.97182  -0.19880  -0.12667
           Y            0.06129  -0.30581   0.95012
           Z            0.22762   0.93111   0.28501
 This molecule is an asymmetric top.
 Rotational symmetry number  1.
 Warning -- assumption of classical behavior for rotation
           may cause significant error
 Rotational temperatures (Kelvin)      0.03558     0.01410     0.01126
 Rotational constants (GHZ):           0.74136     0.29388     0.23461
 Zero-point vibrational energy     643836.8 (Joules/Mol)
                                  153.88068 (Kcal/Mol)
 Warning -- explicit consideration of  21 degrees of freedom as
           vibrations may cause significant error
 Vibrational temperatures:     23.63    50.70    71.94    93.94   115.79
          (Kelvin)            130.21   195.82   213.08   229.11   299.43
                              357.18   409.22   456.34   487.95   524.82
                              530.71   598.63   644.24   754.45   795.04
                              866.65   905.33   938.60   970.89   984.82
                             1040.94  1061.58  1074.66  1155.76  1168.66
                             1183.90  1196.84  1218.04  1239.47  1278.78
                             1339.56  1363.60  1418.72  1475.89  1482.88
                             1522.01  1598.70  1611.98  1629.26  1651.20
                             1678.08  1724.94  1736.43  1786.35  1815.85
                             1828.44  1834.25  1879.80  1905.43  1965.40
                             1971.01  1996.66  2006.36  2013.46  2028.38
                             2060.90  2089.30  2125.59  2129.83  2138.79
                             2157.93  2310.27  2393.13  2558.33  2640.83
                             4327.25  4357.33  4371.51  4384.67  4433.82
                             4443.84  4446.71  4639.87  4663.54  5030.38
                             5083.25  5151.17  5154.03  5247.29

 Zero-point correction=                           0.245224 (Hartree/Particle)
 Thermal correction to Energy=                    0.260812
 Thermal correction to Enthalpy=                  0.261756
 Thermal correction to Gibbs Free Energy=         0.199664
 Sum of electronic and zero-point Energies=           -796.115859
 Sum of electronic and thermal Energies=              -796.100271
 Sum of electronic and thermal Enthalpies=            -796.099327
 Sum of electronic and thermal Free Energies=         -796.161419

                     E (Thermal)             CV                S
                      KCal/Mol        Cal/Mol-Kelvin    Cal/Mol-Kelvin
 Total                  163.662             57.560            130.684
 Electronic               0.000              0.000              0.000
 Translational            0.889              2.981             42.150
 Rotational               0.889              2.981             33.108
 Vibrational            161.885             51.599             55.426
 Vibration     1          0.593              1.986              7.026
 Vibration     2          0.594              1.982              5.510
 Vibration     3          0.595              1.978              4.817
 Vibration     4          0.597              1.971              4.291
 Vibration     5          0.600              1.962              3.879
 Vibration     6          0.602              1.956              3.649
 Vibration     7          0.614              1.917              2.858
 Vibration     8          0.617              1.905              2.697
 Vibration     9          0.621              1.892              2.559
 Vibration    10          0.641              1.828              2.060
 Vibration    11          0.662              1.766              1.743
 Vibration    12          0.683              1.703              1.507
 Vibration    13          0.704              1.641              1.325
 Vibration    14          0.719              1.597              1.216
 Vibration    15          0.738              1.545              1.102
 Vibration    16          0.741              1.536              1.085
 Vibration    17          0.779              1.435              0.905
 Vibration    18          0.807              1.366              0.803
 Vibration    19          0.879              1.196              0.600
 Vibration    20          0.908              1.134              0.539
 Vibration    21          0.961              1.027              0.446

 Optimization completed.
    -- Stationary point found.
 Normal termination of Gaussian 09 at Sat Jul 24 02:02:05 2021.
