 Gaussian 09, Revision D.01,
 Gaussian 09:  ES64L-G09RevD.01 24-Apr-2013

 ----------------------------------------------------------------------
 # B3LYP/6-311G(d,p) EmpiricalDispersion=GD3BJ opt=calcfc freq=noraman
 nosymm integral(ultrafinegrid)
 ----------------------------------------------------------------------

 ------------------------------------------------------------
 Candidate Structure: Conf:340 OPT and FREQ calc in gas phase
 ------------------------------------------------------------
 Symbolic Z-matrix:
 Charge =  0 Multiplicity = 1

 SCF Done:  E(RB3LYP) =  -796.364879619     A.U. after   14 cycles
 SCF Done:  E(RB3LYP) =  -796.366979182     A.U. after   14 cycles
 SCF Done:  E(RB3LYP) =  -796.366875458     A.U. after   14 cycles
 SCF Done:  E(RB3LYP) =  -796.357297114     A.U. after   13 cycles
 SCF Done:  E(RB3LYP) =  -796.367040757     A.U. after   10 cycles
 SCF Done:  E(RB3LYP) =  -796.367215391     A.U. after   12 cycles
 SCF Done:  E(RB3LYP) =  -796.367225256     A.U. after   10 cycles
 SCF Done:  E(RB3LYP) =  -796.367230888     A.U. after   10 cycles
 SCF Done:  E(RB3LYP) =  -796.367232004     A.U. after    9 cycles
 SCF Done:  E(RB3LYP) =  -796.367232337     A.U. after    8 cycles
 SCF Done:  E(RB3LYP) =  -796.367232414     A.U. after    7 cycles
 SCF Done:  E(RB3LYP) =  -796.367232438     A.U. after    6 cycles
 Optimization completed.
    -- Stationary point found.
 Normal termination of Gaussian 09 at Sat Jul 24 01:34:46 2021.

 ----------------------------------------------------------------------
 #N Geom=AllCheck Guess=TCheck SCRF=Check GenChk RB3LYP/6-311G(d,p) Fre
 q
 ----------------------------------------------------------------------

 Structure from the checkpoint file:  "conf-340.chk"
 ------------------------------------------------------------
 Candidate Structure: Conf:340 OPT and FREQ calc in gas phase
 ------------------------------------------------------------
 Charge =  0 Multiplicity = 1

                          Input orientation:
 ---------------------------------------------------------------------
 Center     Atomic      Atomic             Coordinates (Angstroms)
 Number     Number       Type             X           Y           Z
 ---------------------------------------------------------------------
      1          8           0        0.587771   -0.980418   -0.716970
      2          6           0        1.365889   -0.181319   -0.195331
      3          7           0        0.926721    0.989033    0.331965
      4          6           0       -0.458349    1.357645    0.172672
      5          6           0       -0.625754    2.845978    0.429135
      6          8           0       -1.878207    3.306085    0.249995
      7          8           0        0.268020    3.567757    0.779151
      8          6           0       -1.424463    0.519538    1.078607
      9          6           0       -2.598909    0.052084    0.296160
     10          6           0       -3.939147    0.365559    0.283651
     11          7           0       -4.585654   -0.314580   -0.727482
     12          6           0       -3.652322   -1.022650   -1.322998
     13          7           0       -2.429235   -0.837124   -0.745486
     14          6           0        2.855141   -0.442530   -0.110455
     15          6           0        3.162863   -1.907238    0.200758
     16          7           0        4.603307   -2.145593    0.089838
     17          1           0        1.558609    1.701138    0.671972
     18          1           0       -0.741850    1.166627   -0.867174
     19          1           0       -2.476025    2.592705   -0.028666
     20          1           0       -0.857867   -0.331522    1.458353
     21          1           0       -1.752920    1.100335    1.942296
     22          1           0       -4.474921    1.013486    0.961487
     23          1           0       -3.801804   -1.681870   -2.164065
     24          1           0       -1.523811   -1.215865   -1.008049
     25          1           0        3.298608   -0.199189   -1.081563
     26          1           0        3.318689    0.217943    0.629510
     27          1           0        2.647236   -2.523406   -0.537279
     28          1           0        2.735893   -2.163886    1.183670
     29          1           0        4.798060   -3.139483    0.149517
     30          1           0        5.094308   -1.709132    0.864642
 ---------------------------------------------------------------------

 SCF Done:  E(RB3LYP) =  -796.367232438     A.U. after    1 cycles

 Alpha  occ. eigenvalues --  -19.18243 -19.12832 -19.11017 -14.36645 -14.36046
 Alpha  occ. eigenvalues --  -14.29873 -14.29336 -10.32493 -10.29560 -10.25114
 Alpha  occ. eigenvalues --  -10.22821 -10.21548 -10.21050 -10.20659 -10.19318
 Alpha  occ. eigenvalues --  -10.19141  -1.12692  -1.06566  -1.04820  -1.02207
 Alpha  occ. eigenvalues --   -0.95470  -0.89584  -0.87857  -0.82219  -0.77926
 Alpha  occ. eigenvalues --   -0.74688  -0.69248  -0.65113  -0.63034  -0.62097
 Alpha  occ. eigenvalues --   -0.61157  -0.59928  -0.56905  -0.55542  -0.51819
 Alpha  occ. eigenvalues --   -0.50850  -0.50044  -0.48850  -0.47851  -0.46612
 Alpha  occ. eigenvalues --   -0.46462  -0.44670  -0.44254  -0.43152  -0.42668
 Alpha  occ. eigenvalues --   -0.41905  -0.41340  -0.40818  -0.40402  -0.39848
 Alpha  occ. eigenvalues --   -0.37006  -0.36336  -0.34336  -0.30600  -0.29199
 Alpha  occ. eigenvalues --   -0.28808  -0.28482  -0.27438  -0.25323  -0.24049
 Alpha virt. eigenvalues --   -0.01934  -0.00345   0.00792   0.02516   0.03253
 Alpha virt. eigenvalues --    0.04024   0.04927   0.05806   0.06722   0.07003
 Alpha virt. eigenvalues --    0.07552   0.08975   0.09227   0.10180   0.11011

 Mulliken charges:
               1
     1  O   -0.434607
     2  C    0.392554
     3  N   -0.406328
     4  C   -0.153140
     5  C    0.405304
     6  O   -0.290994
     7  O   -0.318547
     8  C   -0.203991
     9  C    0.042823
    10  C   -0.089985
    11  N   -0.295651
    12  C    0.159385
    13  N   -0.354382
    14  C   -0.232338
    15  C   -0.106483
    16  N   -0.457358
    17  H    0.246296
    18  H    0.181535
    19  H    0.255352
    20  H    0.163625
    21  H    0.148050
    22  H    0.106829
    23  H    0.113251
    24  H    0.259994
    25  H    0.151517
    26  H    0.110705
    27  H    0.132614
    28  H    0.094841
    29  H    0.194210
    30  H    0.184918
 Sum of Mulliken charges =   0.00000

 Dipole moment (field-independent basis, Debye):
    X=              3.5102    Y=             -2.5061    Z=              1.3373  Tot=              4.5156
 Quadrupole moment (field-independent basis, Debye-Ang):
   XX=           -107.8036   YY=           -105.4753   ZZ=            -91.0653
   XY=             -4.0538   XZ=              4.4828   YZ=             -3.1511

  Exact polarizability: 165.755  -4.799 127.825  10.324  19.027 100.482
 Approx polarizability: 224.118   3.309 189.596  16.132  35.606 162.922

                      1                      2                      3
                      A                      A                      A
 Frequencies --     19.0565                39.5442                60.5766
 Red. masses --      3.4638                 5.7309                 2.7646
 Frc consts  --      0.0007                 0.0053                 0.0060
 IR Inten    --      0.7699                 2.0135                 4.3852

                      4                      5                      6
                      A                      A                      A
 Frequencies --     75.0488                84.5437                89.6824
 Red. masses --      4.2334                 6.7453                 4.5730
 Frc consts  --      0.0140                 0.0284                 0.0217
 IR Inten    --      2.9086                 1.6684                 2.3958

                      7                      8                      9
                      A                      A                      A
 Frequencies --     99.7183               117.8765               165.4289
 Red. masses --      6.1433                 5.5048                 4.3938
 Frc consts  --      0.0360                 0.0451                 0.0708
 IR Inten    --      7.1957                 6.3719                 7.0756

                     10                     11                     12
                      A                      A                      A
 Frequencies --    194.1615               208.1289               253.0509
 Red. masses --      5.3121                 3.4577                 1.3584
 Frc consts  --      0.1180                 0.0882                 0.0513
 IR Inten    --      9.5238                 9.1576                44.6994

                     13                     14                     15
                      A                      A                      A
 Frequencies --    278.2752               319.9161               342.2185
 Red. masses --      4.2551                 5.2860                 2.4956
 Frc consts  --      0.1941                 0.3187                 0.1722
 IR Inten    --      7.2163                 2.8670                 6.6678

                     16                     17                     18
                      A                      A                      A
 Frequencies --    359.9524               397.8585               413.3347
 Red. masses --      5.8435                 3.9942                 3.8521
 Frc consts  --      0.4461                 0.3725                 0.3878
 IR Inten    --      8.2442                 7.6568                 8.7641

                     19                     20                     21
                      A                      A                      A
 Frequencies --    524.0119               552.8321               604.3473
 Red. masses --      1.3447                 2.8424                 1.5166
 Frc consts  --      0.2175                 0.5118                 0.3264
 IR Inten    --     55.2524                13.3620                69.4367

                     22                     23                     24
                      A                      A                      A
 Frequencies --    634.7424               648.9268               663.3440
 Red. masses --      2.6310                 3.3584                 3.0395
 Frc consts  --      0.6246                 0.8332                 0.7880
 IR Inten    --     54.7627                 7.2723                 5.4461

                     25                     26                     27
                      A                      A                      A
 Frequencies --    683.0203               716.7057               752.5891
 Red. masses --      3.8128                 3.6230                 2.1315
 Frc consts  --      1.0480                 1.0965                 0.7113
 IR Inten    --     14.8574                 5.5470                41.3472

                     28                     29                     30
                      A                      A                      A
 Frequencies --    759.0430               775.4859               808.9572
 Red. masses --      1.4367                 4.0218                 1.3925
 Frc consts  --      0.4877                 1.4250                 0.5369
 IR Inten    --     27.7751                 3.0807                14.7065

                     31                     32                     33
                      A                      A                      A
 Frequencies --    832.7364               844.9578               855.3497
 Red. masses --      1.4113                 1.3743                 1.3768
 Frc consts  --      0.5766                 0.5781                 0.5935
 IR Inten    --     26.7494                19.4324               107.0791

                     34                     35                     36
                      A                      A                      A
 Frequencies --    867.6259               947.2936               951.8291
 Red. masses --      2.5268                 4.8896                 3.0693
 Frc consts  --      1.1207                 2.5852                 1.6384
 IR Inten    --     22.2520                 9.3202                18.1840

                     37                     38                     39
                      A                      A                      A
 Frequencies --    985.9079               991.1398              1024.1897
 Red. masses --      2.1500                 5.6387                 3.4717
 Frc consts  --      1.2313                 3.2636                 2.1456
 IR Inten    --      3.5169                 2.3438                15.2370

                     40                     41                     42
                      A                      A                      A
 Frequencies --   1036.2621              1065.6485              1098.8391
 Red. masses --      3.0835                 2.7843                 2.1277
 Frc consts  --      1.9509                 1.8629                 1.5136
 IR Inten    --      3.7809                21.3830                20.2806

                     43                     44                     45
                      A                      A                      A
 Frequencies --   1118.9440              1138.3654              1142.1005
 Red. masses --      1.6650                 1.8313                 2.2330
 Frc consts  --      1.2282                 1.3982                 1.7161
 IR Inten    --     37.7239                11.1362                 4.8803

                     46                     47                     48
                      A                      A                      A
 Frequencies --   1169.2901              1195.3001              1204.9475
 Red. masses --      1.4985                 1.6730                 2.1117
 Frc consts  --      1.2071                 1.4083                 1.8064
 IR Inten    --      7.5832                39.9946                 4.9853

                     49                     50                     51
                      A                      A                      A
 Frequencies --   1227.7086              1256.2834              1264.0465
 Red. masses --      1.5363                 2.3258                 1.4128
 Frc consts  --      1.3643                 2.1627                 1.3300
 IR Inten    --     25.6726                23.0193                 5.6111

                     52                     53                     54
                      A                      A                      A
 Frequencies --   1275.3173              1307.4469              1333.2456
 Red. masses --      1.3476                 1.3241                 1.3431
 Frc consts  --      1.2914                 1.3336                 1.4066
 IR Inten    --      5.9524                44.5529                 6.4671

                     55                     56                     57
                      A                      A                      A
 Frequencies --   1339.6152              1353.7360              1372.0107
 Red. masses --      1.1440                 1.7421                 1.4648
 Frc consts  --      1.2095                 1.8810                 1.6246
 IR Inten    --     42.1309               195.6648                14.7950

                     58                     59                     60
                      A                      A                      A
 Frequencies --   1387.6132              1415.2625              1429.5463
 Red. masses --      3.0967                 1.7144                 1.5115
 Frc consts  --      3.5130                 2.0232                 1.8200
 IR Inten    --      9.0761                54.3776                44.8907

                     61                     62                     63
                      A                      A                      A
 Frequencies --   1437.1332              1472.1177              1488.3174
 Red. masses --      2.4703                 1.1017                 1.1376
 Frc consts  --      3.0061                 1.4067                 1.4847
 IR Inten    --     77.6807                 9.7010                12.6960

                     64                     65                     66
                      A                      A                      A
 Frequencies --   1502.8538              1520.7153              1528.1030
 Red. masses --      3.4267                 1.0837                 2.6126
 Frc consts  --      4.5600                 1.4766                 3.5944
 IR Inten    --     42.4199                 1.4019               285.1503

                     67                     68                     69
                      A                      A                      A
 Frequencies --   1611.7429              1665.3057              1709.0975
 Red. masses --      4.4390                 1.0915                 8.5835
 Frc consts  --      6.7940                 1.7834                14.7723
 IR Inten    --     15.6071                24.5002               197.5656

                     70                     71                     72
                      A                      A                      A
 Frequencies --   1850.0845              2943.9490              3030.6110
 Red. masses --      9.9448                 1.0742                 1.0595
 Frc consts  --     20.0553                 5.4852                 5.7335
 IR Inten    --    313.3498                74.6626                15.4369

                     73                     74                     75
                      A                      A                      A
 Frequencies --   3034.8751              3066.1436              3068.2169
 Red. masses --      1.0819                 1.0604                 1.0989
 Frc consts  --      5.8709                 5.8734                 6.0949
 IR Inten    --     10.0081                16.2241                 7.5395

                     76                     77                     78
                      A                      A                      A
 Frequencies --   3095.7327              3107.2693              3224.1642
 Red. masses --      1.0912                 1.1052                 1.0964
 Frc consts  --      6.1612                 6.2873                 6.7152
 IR Inten    --     19.8325                 8.7633                 5.0968

                     79                     80                     81
                      A                      A                      A
 Frequencies --   3242.2864              3489.4966              3532.6539
 Red. masses --      1.0981                 1.0501                 1.0839
 Frc consts  --      6.8013                 7.5334                 7.9695
 IR Inten    --      1.1285                 0.7515               236.9261

                     82                     83                     84
                      A                      A                      A
 Frequencies --   3566.4995              3595.9208              3678.0995
 Red. masses --      1.0922                 1.0782                 1.0673
 Frc consts  --      8.1852                 8.2143                 8.5071
 IR Inten    --      0.1634                78.3743               217.1281

 - Thermochemistry -
 -------------------
 Temperature   298.150 Kelvin.  Pressure   1.00000 Atm.
 Atom     1 has atomic number  8 and mass  15.99491

 Molecular mass:   226.10659 amu.
 Principal axes and moments of inertia in atomic units:
                           1         2         3
     Eigenvalues --  2471.331706014.088668105.80907
           X            0.95962   0.26080  -0.10542
           Y           -0.27901   0.93017  -0.23861
           Z            0.03583   0.25839   0.96538
 This molecule is an asymmetric top.
 Rotational symmetry number  1.
 Warning -- assumption of classical behavior for rotation
           may cause significant error
 Rotational temperatures (Kelvin)      0.03505     0.01440     0.01069
 Rotational constants (GHZ):           0.73027     0.30009     0.22265
 Zero-point vibrational energy     643210.1 (Joules/Mol)
                                  153.73090 (Kcal/Mol)
 Warning -- explicit consideration of  21 degrees of freedom as
           vibrations may cause significant error
 Vibrational temperatures:     27.42    56.90    87.16   107.98   121.64
          (Kelvin)            129.03   143.47   169.60   238.01   279.35
                              299.45   364.08   400.38   460.29   492.38
                              517.89   572.43   594.70   753.94   795.40
                              869.52   913.25   933.66   954.40   982.71
                             1031.18  1082.81  1092.09  1115.75  1163.91
                             1198.12  1215.70  1230.66  1248.32  1362.94
                             1369.47  1418.50  1426.03  1473.58  1490.95
                             1533.23  1580.98  1609.91  1637.85  1643.23
                             1682.35  1719.77  1733.65  1766.40  1807.51
                             1818.68  1834.89  1881.12  1918.24  1927.41
                             1947.72  1974.01  1996.46  2036.24  2056.80
                             2067.71  2118.05  2141.35  2162.27  2187.97
                             2198.60  2318.94  2396.00  2459.01  2661.86
                             4235.68  4360.37  4366.50  4411.49  4414.47
                             4454.06  4470.66  4638.85  4664.92  5020.60
                             5082.69  5131.39  5173.72  5291.96

 Zero-point correction=                           0.244986 (Hartree/Particle)
 Thermal correction to Energy=                    0.260874
 Thermal correction to Enthalpy=                  0.261818
 Thermal correction to Gibbs Free Energy=         0.199266
 Sum of electronic and zero-point Energies=           -796.122247
 Sum of electronic and thermal Energies=              -796.106359
 Sum of electronic and thermal Enthalpies=            -796.105415
 Sum of electronic and thermal Free Energies=         -796.167966

                     E (Thermal)             CV                S
                      KCal/Mol        Cal/Mol-Kelvin    Cal/Mol-Kelvin
 Total                  163.701             57.850            131.651
 Electronic               0.000              0.000              0.000
 Translational            0.889              2.981             42.150
 Rotational               0.889              2.981             33.154
 Vibrational            161.923             51.889             56.347
 Vibration     1          0.593              1.986              6.730
 Vibration     2          0.594              1.981              5.282
 Vibration     3          0.597              1.973              4.438
 Vibration     4          0.599              1.966              4.016
 Vibration     5          0.601              1.960              3.783
 Vibration     6          0.602              1.956              3.667
 Vibration     7          0.604              1.949              3.460
 Vibration     8          0.608              1.934              3.135
 Vibration     9          0.624              1.885              2.487
 Vibration    10          0.635              1.848              2.188
 Vibration    11          0.641              1.828              2.060
 Vibration    12          0.664              1.758              1.709
 Vibration    13          0.679              1.714              1.544
 Vibration    14          0.706              1.635              1.311
 Vibration    15          0.721              1.591              1.202
 Vibration    16          0.734              1.555              1.122
 Vibration    17          0.764              1.475              0.971
 Vibration    18          0.777              1.441              0.915
 Vibration    19          0.879              1.197              0.601
 Vibration    20          0.908              1.133              0.538
 Vibration    21          0.963              1.023              0.442

 Optimization completed.
    -- Stationary point found.
 Normal termination of Gaussian 09 at Sat Jul 24 02:06:30 2021.
