 Gaussian 09, Revision D.01,
 Gaussian 09:  ES64L-G09RevD.01 24-Apr-2013

 ----------------------------------------------------------------------
 # B3LYP/6-311G(d,p) EmpiricalDispersion=GD3BJ opt=calcfc freq=noraman
 nosymm integral(ultrafinegrid)
 ----------------------------------------------------------------------

 ------------------------------------------------------------
 Candidate Structure: Conf:591 OPT and FREQ calc in gas phase
 ------------------------------------------------------------
 Symbolic Z-matrix:
 Charge =  0 Multiplicity = 1

 SCF Done:  E(RB3LYP) =  -796.361603333     A.U. after   14 cycles
 SCF Done:  E(RB3LYP) =  -796.363744370     A.U. after   13 cycles
 SCF Done:  E(RB3LYP) =  -796.363575638     A.U. after   12 cycles
 SCF Done:  E(RB3LYP) =  -796.333698518     A.U. after   15 cycles
 SCF Done:  E(RB3LYP) =  -796.363872566     A.U. after   12 cycles
 SCF Done:  E(RB3LYP) =  -796.364219085     A.U. after   13 cycles
 SCF Done:  E(RB3LYP) =  -796.364348897     A.U. after   11 cycles
 SCF Done:  E(RB3LYP) =  -796.365422661     A.U. after   14 cycles
 SCF Done:  E(RB3LYP) =  -796.364664722     A.U. after   14 cycles
 SCF Done:  E(RB3LYP) =  -796.367275691     A.U. after   11 cycles
 SCF Done:  E(RB3LYP) =  -796.369999107     A.U. after   12 cycles
 SCF Done:  E(RB3LYP) =  -796.370019165     A.U. after   10 cycles
 SCF Done:  E(RB3LYP) =  -796.370030736     A.U. after    9 cycles
 SCF Done:  E(RB3LYP) =  -796.370038582     A.U. after   10 cycles
 SCF Done:  E(RB3LYP) =  -796.370040677     A.U. after    9 cycles
 SCF Done:  E(RB3LYP) =  -796.370041694     A.U. after    9 cycles
 SCF Done:  E(RB3LYP) =  -796.370042035     A.U. after    8 cycles
 SCF Done:  E(RB3LYP) =  -796.370042116     A.U. after    7 cycles
 SCF Done:  E(RB3LYP) =  -796.370042132     A.U. after    6 cycles
 Optimization completed.
    -- Stationary point found.
 Normal termination of Gaussian 09 at Sat Jul 24 02:03:56 2021.

 ----------------------------------------------------------------------
 #N Geom=AllCheck Guess=TCheck SCRF=Check GenChk RB3LYP/6-311G(d,p) Fre
 q
 ----------------------------------------------------------------------

 Structure from the checkpoint file:  "conf-591.chk"
 ------------------------------------------------------------
 Candidate Structure: Conf:591 OPT and FREQ calc in gas phase
 ------------------------------------------------------------
 Charge =  0 Multiplicity = 1

                          Input orientation:
 ---------------------------------------------------------------------
 Center     Atomic      Atomic             Coordinates (Angstroms)
 Number     Number       Type             X           Y           Z
 ---------------------------------------------------------------------
      1          8           0       -0.829301    0.199925   -0.999828
      2          6           0       -1.270528    0.078630    0.142585
      3          7           0       -0.481021   -0.231224    1.196637
      4          6           0        0.940357   -0.478735    1.060652
      5          6           0        1.393661   -1.185239    2.322176
      6          8           0        2.663217   -1.608185    2.218809
      7          8           0        0.716626   -1.334366    3.309675
      8          6           0        1.785483    0.824867    0.814946
      9          6           0        2.529656    0.817724   -0.473626
     10          6           0        3.865273    0.917889   -0.782183
     11          7           0        4.056444    0.857982   -2.144387
     12          6           0        2.851710    0.717116   -2.655549
     13          7           0        1.890147    0.690414   -1.689688
     14          6           0       -2.741988    0.267290    0.449217
     15          6           0       -3.625203   -0.557316   -0.492716
     16          7           0       -5.035845   -0.322728   -0.172071
     17          1           0       -0.875908   -0.378705    2.115170
     18          1           0        1.109212   -1.153320    0.218171
     19          1           0        2.899031   -2.022288    3.062505
     20          1           0        2.504256    0.965094    1.623299
     21          1           0        1.085386    1.663609    0.861320
     22          1           0        4.693369    1.029138   -0.098779
     23          1           0        2.618882    0.631220   -3.705770
     24          1           0        0.885606    0.552516   -1.777616
     25          1           0       -2.980364    0.016689    1.485297
     26          1           0       -2.964896    1.331460    0.310187
     27          1           0       -3.415535   -1.619770   -0.334281
     28          1           0       -3.341406   -0.323692   -1.526601
     29          1           0       -5.622753   -0.960973   -0.699295
     30          1           0       -5.303544    0.615116   -0.457616
 ---------------------------------------------------------------------

 SCF Done:  E(RB3LYP) =  -796.370042132     A.U. after    1 cycles

 Alpha  occ. eigenvalues --  -19.19424 -19.14067 -19.10590 -14.35801 -14.34329
 Alpha  occ. eigenvalues --  -14.29720 -14.27263 -10.33307 -10.29267 -10.24918
 Alpha  occ. eigenvalues --  -10.20668 -10.20580 -10.20074 -10.19235 -10.19080
 Alpha  occ. eigenvalues --  -10.16762  -1.14294  -1.06218  -1.05353  -1.00016
 Alpha  occ. eigenvalues --   -0.95264  -0.89434  -0.85726  -0.81530  -0.77218
 Alpha  occ. eigenvalues --   -0.74351  -0.68468  -0.66037  -0.62108  -0.60951
 Alpha  occ. eigenvalues --   -0.59852  -0.57789  -0.54400  -0.54194  -0.51928
 Alpha  occ. eigenvalues --   -0.50503  -0.50167  -0.49115  -0.48384  -0.46667
 Alpha  occ. eigenvalues --   -0.45844  -0.44825  -0.43511  -0.42895  -0.41736
 Alpha  occ. eigenvalues --   -0.40816  -0.39843  -0.39636  -0.39413  -0.38866
 Alpha  occ. eigenvalues --   -0.38123  -0.35773  -0.35422  -0.31540  -0.28841
 Alpha  occ. eigenvalues --   -0.28403  -0.26781  -0.25533  -0.24916  -0.21735
 Alpha virt. eigenvalues --   -0.02492  -0.00147   0.01717   0.03039   0.03230
 Alpha virt. eigenvalues --    0.04269   0.06356   0.06768   0.07299   0.07751
 Alpha virt. eigenvalues --    0.08338   0.08882   0.09797   0.11090   0.11756

 Mulliken charges:
               1
     1  O   -0.441832
     2  C    0.400514
     3  N   -0.410640
     4  C   -0.067148
     5  C    0.350353
     6  O   -0.304937
     7  O   -0.336998
     8  C   -0.171216
     9  C    0.070656
    10  C   -0.066421
    11  N   -0.305807
    12  C    0.148874
    13  N   -0.365912
    14  C   -0.233019
    15  C   -0.103105
    16  N   -0.461794
    17  H    0.245896
    18  H    0.186100
    19  H    0.262859
    20  H    0.137626
    21  H    0.148316
    22  H    0.087036
    23  H    0.102359
    24  H    0.260925
    25  H    0.120862
    26  H    0.133784
    27  H    0.113243
    28  H    0.119254
    29  H    0.193269
    30  H    0.186902
 Sum of Mulliken charges =   0.00000

 Dipole moment (field-independent basis, Debye):
    X=             -3.7658    Y=             -1.0177    Z=              2.4051  Tot=              4.5827
 Quadrupole moment (field-independent basis, Debye-Ang):
   XX=           -103.4773   YY=            -91.7517   ZZ=            -95.6919
   XY=             -7.8126   XZ=             23.2122   YZ=              1.9229

  Exact polarizability: 163.953   2.651  91.216  -4.884  -9.977 140.962
 Approx polarizability: 216.452   0.616 136.996 -10.948  -7.989 219.028

                      1                      2                      3
                      A                      A                      A
 Frequencies --     13.5709                34.1492                53.1481
 Red. masses --      3.2196                 6.0538                 4.4606
 Frc consts  --      0.0003                 0.0042                 0.0074
 IR Inten    --      1.4355                 1.1906                 1.5368

                      4                      5                      6
                      A                      A                      A
 Frequencies --     59.1605                74.2787                78.9179
 Red. masses --      8.2913                 2.8460                 4.0789
 Frc consts  --      0.0171                 0.0093                 0.0150
 IR Inten    --      0.9297                 1.1555                 0.9667

                      7                      8                      9
                      A                      A                      A
 Frequencies --     88.9084               131.8328               137.3101
 Red. masses --      6.3173                 5.9617                 4.0692
 Frc consts  --      0.0294                 0.0610                 0.0452
 IR Inten    --      8.1720                 2.9557                 9.2191

                     10                     11                     12
                      A                      A                      A
 Frequencies --    191.0609               229.4207               244.8633
 Red. masses --      5.0340                 2.5923                 1.6533
 Frc consts  --      0.1083                 0.0804                 0.0584
 IR Inten    --      1.6731                 8.2593                48.7165

                     13                     14                     15
                      A                      A                      A
 Frequencies --    283.0238               293.0321               317.1256
 Red. masses --      3.1903                 3.1544                 3.7001
 Frc consts  --      0.1506                 0.1596                 0.2192
 IR Inten    --     11.2037                 7.2394                 4.5563

                     16                     17                     18
                      A                      A                      A
 Frequencies --    356.3854               395.1755               425.7455
 Red. masses --      6.6927                 4.2417                 3.5362
 Frc consts  --      0.5008                 0.3903                 0.3776
 IR Inten    --      0.5064                 6.0413                 3.4924

                     19                     20                     21
                      A                      A                      A
 Frequencies --    531.1238               563.1436               592.2088
 Red. masses --      2.1592                 1.6369                 1.4573
 Frc consts  --      0.3589                 0.3059                 0.3011
 IR Inten    --     70.3510                30.6228                78.7738

                     22                     23                     24
                      A                      A                      A
 Frequencies --    634.6232               649.5316               653.4436
 Red. masses --      3.8827                 3.7183                 2.2690
 Frc consts  --      0.9213                 0.9243                 0.5708
 IR Inten    --     27.2776                 7.2897                 4.1294

                     25                     26                     27
                      A                      A                      A
 Frequencies --    677.8445               719.6558               757.7512
 Red. masses --      3.4473                 3.3122                 5.1180
 Frc consts  --      0.9332                 1.0107                 1.7314
 IR Inten    --     48.2718                21.7687                14.0399

                     28                     29                     30
                      A                      A                      A
 Frequencies --    781.4251               784.0677               803.5278
 Red. masses --      1.8341                 1.5773                 1.2772
 Frc consts  --      0.6599                 0.5713                 0.4859
 IR Inten    --     34.1170                21.6657                11.1452

                     31                     32                     33
                      A                      A                      A
 Frequencies --    819.4741               840.4955               860.8821
 Red. masses --      1.4321                 1.3659                 1.3349
 Frc consts  --      0.5666                 0.5685                 0.5829
 IR Inten    --     24.2189                27.5003               135.6530

                     34                     35                     36
                      A                      A                      A
 Frequencies --    870.5548               947.0398               949.2193
 Red. masses --      2.4610                 3.5103                 5.5998
 Frc consts  --      1.0989                 1.8549                 2.9727
 IR Inten    --     18.7163                 6.5783                23.2777

                     37                     38                     39
                      A                      A                      A
 Frequencies --    979.8621               989.1666              1028.4120
 Red. masses --      2.9084                 2.9598                 3.5745
 Frc consts  --      1.6452                 1.7063                 2.2274
 IR Inten    --      1.3115                 4.6960                 1.8887

                     40                     41                     42
                      A                      A                      A
 Frequencies --   1028.9854              1051.7779              1091.6448
 Red. masses --      3.1736                 2.2991                 2.5046
 Frc consts  --      1.9798                 1.4985                 1.7585
 IR Inten    --     25.4079                 4.3995                40.2288

                     43                     44                     45
                      A                      A                      A
 Frequencies --   1133.1835              1137.1264              1147.4368
 Red. masses --      1.8134                 2.7582                 2.0202
 Frc consts  --      1.3720                 2.1013                 1.5671
 IR Inten    --     59.1352                33.8044                 1.3383

                     46                     47                     48
                      A                      A                      A
 Frequencies --   1160.8435              1184.6144              1208.4624
 Red. masses --      1.3452                 2.4704                 1.2969
 Frc consts  --      1.0681                 2.0426                 1.1159
 IR Inten    --     32.7365               165.3618                 6.3624

                     49                     50                     51
                      A                      A                      A
 Frequencies --   1235.4752              1262.3001              1272.9511
 Red. masses --      1.5402                 2.3299                 1.3958
 Frc consts  --      1.3852                 2.1873                 1.3326
 IR Inten    --     15.0520                 6.5935                14.0585

                     52                     53                     54
                      A                      A                      A
 Frequencies --   1288.1774              1301.0297              1316.9706
 Red. masses --      1.3057                 1.3361                 1.2217
 Frc consts  --      1.2766                 1.3325                 1.2484
 IR Inten    --      9.0232                 7.2255                 1.0202

                     55                     56                     57
                      A                      A                      A
 Frequencies --   1331.9740              1358.1115              1365.2303
 Red. masses --      1.3650                 1.3904                 1.4362
 Frc consts  --      1.4269                 1.5110                 1.5771
 IR Inten    --      0.9113                27.1707                 8.0150

                     58                     59                     60
                      A                      A                      A
 Frequencies --   1389.4994              1417.6950              1427.6054
 Red. masses --      4.3914                 2.3786                 1.4342
 Frc consts  --      4.9954                 2.8166                 1.7222
 IR Inten    --     18.4703                95.4844                40.9617

                     61                     62                     63
                      A                      A                      A
 Frequencies --   1446.5257              1477.8177              1479.8568
 Red. masses --      2.3475                 1.1454                 1.1361
 Frc consts  --      2.8941                 1.4739                 1.4659
 IR Inten    --     77.1219                14.9950                11.0468

                     64                     65                     66
                      A                      A                      A
 Frequencies --   1501.0972              1523.5407              1545.3116
 Red. masses --      3.2594                 1.0861                 2.4646
 Frc consts  --      4.3272                 1.4853                 3.4677
 IR Inten    --     23.9144                 2.0240               322.5162

                     67                     68                     69
                      A                      A                      A
 Frequencies --   1614.3319              1662.6374              1718.6115
 Red. masses --      4.2356                 1.0888                 8.5620
 Frc consts  --      6.5036                 1.7734                14.8999
 IR Inten    --     20.1455                29.6611               231.2229

                     70                     71                     72
                      A                      A                      A
 Frequencies --   1816.7825              2997.8009              3027.4734
 Red. masses --      9.7740                 1.0656                 1.0675
 Frc consts  --     19.0076                 5.6423                 5.7648
 IR Inten    --    292.0073                34.3669                 7.5040

                     73                     74                     75
                      A                      A                      A
 Frequencies --   3042.6951              3050.5125              3067.8445
 Red. masses --      1.0657                 1.0914                 1.0837
 Frc consts  --      5.8128                 5.9836                 6.0091
 IR Inten    --     20.1623                26.1868                10.2716

                     76                     77                     78
                      A                      A                      A
 Frequencies --   3088.4163              3099.3486              3227.8503
 Red. masses --      1.1006                 1.0977                 1.0961
 Frc consts  --      6.1854                 6.2127                 6.7284
 IR Inten    --     27.2165                11.1224                10.2263

                     79                     80                     81
                      A                      A                      A
 Frequencies --   3238.4904              3485.1225              3487.1643
 Red. masses --      1.0980                 1.0502                 1.0849
 Frc consts  --      6.7847                 7.5154                 7.7733
 IR Inten    --      1.5353                 1.4741               449.4106

                     82                     83                     84
                      A                      A                      A
 Frequencies --   3563.1991              3595.9979              3758.7774
 Red. masses --      1.0920                 1.0779                 1.0644
 Frc consts  --      8.1686                 8.2125                 8.8600
 IR Inten    --      0.1308                83.0109                88.9428

 - Thermochemistry -
 -------------------
 Temperature   298.150 Kelvin.  Pressure   1.00000 Atm.
 Atom     1 has atomic number  8 and mass  15.99491

 Molecular mass:   226.10659 amu.
 Principal axes and moments of inertia in atomic units:
                           1         2         3
     Eigenvalues --  2688.067685862.135618163.90771
           X            0.98702   0.15336  -0.04763
           Y            0.10317  -0.37830   0.91992
           Z           -0.12306   0.91289   0.38921
 This molecule is an asymmetric top.
 Rotational symmetry number  1.
 Warning -- assumption of classical behavior for rotation
           may cause significant error
 Rotational temperatures (Kelvin)      0.03222     0.01478     0.01061
 Rotational constants (GHZ):           0.67139     0.30786     0.22106
 Zero-point vibrational energy     642806.5 (Joules/Mol)
                                  153.63445 (Kcal/Mol)
 Warning -- explicit consideration of  21 degrees of freedom as
           vibrations may cause significant error
 Vibrational temperatures:     19.53    49.13    76.47    85.12   106.87
          (Kelvin)            113.55   127.92   189.68   197.56   274.89
                              330.08   352.30   407.21   421.61   456.27
                              512.76   568.57   612.55   764.17   810.24
                              852.06   913.08   934.53   940.16   975.27
                             1035.42  1090.23  1124.29  1128.10  1156.10
                             1179.04  1209.28  1238.62  1252.53  1362.58
                             1365.71  1409.80  1423.19  1479.65  1480.48
                             1513.27  1570.63  1630.40  1636.07  1650.90
                             1670.19  1704.39  1738.71  1777.57  1816.17
                             1831.49  1853.40  1871.89  1894.82  1916.41
                             1954.02  1964.26  1999.18  2039.74  2054.00
                             2081.23  2126.25  2129.18  2159.74  2192.03
                             2223.36  2322.66  2392.16  2472.70  2613.94
                             4313.16  4355.85  4377.75  4389.00  4413.94
                             4443.54  4459.27  4644.15  4659.46  5014.31
                             5017.25  5126.64  5173.83  5408.04

 Zero-point correction=                           0.244832 (Hartree/Particle)
 Thermal correction to Energy=                    0.260909
 Thermal correction to Enthalpy=                  0.261853
 Thermal correction to Gibbs Free Energy=         0.197997
 Sum of electronic and zero-point Energies=           -796.125210
 Sum of electronic and thermal Energies=              -796.109133
 Sum of electronic and thermal Enthalpies=            -796.108189
 Sum of electronic and thermal Free Energies=         -796.172045

                     E (Thermal)             CV                S
                      KCal/Mol        Cal/Mol-Kelvin    Cal/Mol-Kelvin
 Total                  163.723             57.961            134.398
 Electronic               0.000              0.000              0.000
 Translational            0.889              2.981             42.150
 Rotational               0.889              2.981             33.220
 Vibrational            161.945             51.999             59.028
 Vibration     1          0.593              1.986              7.404
 Vibration     2          0.594              1.983              5.573
 Vibration     3          0.596              1.976              4.697
 Vibration     4          0.597              1.974              4.485
 Vibration     5          0.599              1.966              4.037
 Vibration     6          0.600              1.963              3.918
 Vibration     7          0.602              1.957              3.684
 Vibration     8          0.612              1.922              2.919
 Vibration     9          0.614              1.916              2.841
 Vibration    10          0.634              1.852              2.218
 Vibration    11          0.652              1.796              1.883
 Vibration    12          0.660              1.771              1.767
 Vibration    13          0.682              1.705              1.515
 Vibration    14          0.688              1.687              1.456
 Vibration    15          0.704              1.641              1.325
 Vibration    16          0.732              1.562              1.138
 Vibration    17          0.762              1.480              0.981
 Vibration    18          0.788              1.414              0.873
 Vibration    19          0.886              1.181              0.585
 Vibration    20          0.919              1.111              0.518
 Vibration    21          0.950              1.048              0.463

 Optimization completed.
    -- Stationary point found.
 Normal termination of Gaussian 09 at Sat Jul 24 02:34:57 2021.
