 Gaussian 09, Revision D.01,
 Gaussian 09:  ES64L-G09RevD.01 24-Apr-2013

 ----------------------------------------------------------------------
 # B3LYP/6-311G(d,p) EmpiricalDispersion=GD3BJ opt=calcfc freq=noraman
 nosymm integral(ultrafinegrid)
 ----------------------------------------------------------------------

 ------------------------------------------------------------
 Candidate Structure: Conf:490 OPT and FREQ calc in gas phase
 ------------------------------------------------------------
 Symbolic Z-matrix:
 Charge =  0 Multiplicity = 1

 SCF Done:  E(RB3LYP) =  -796.364387412     A.U. after   14 cycles
 SCF Done:  E(RB3LYP) =  -796.366526371     A.U. after   14 cycles
 SCF Done:  E(RB3LYP) =  -796.348787609     A.U. after   14 cycles
 SCF Done:  E(RB3LYP) =  -796.366590299     A.U. after    9 cycles
 SCF Done:  E(RB3LYP) =  -796.367669209     A.U. after   13 cycles
 SCF Done:  E(RB3LYP) =  -796.365892979     A.U. after   14 cycles
 SCF Done:  E(RB3LYP) =  -796.367722439     A.U. after   10 cycles
 SCF Done:  E(RB3LYP) =  -796.367925336     A.U. after   12 cycles
 SCF Done:  E(RB3LYP) =  -796.367976961     A.U. after   10 cycles
 SCF Done:  E(RB3LYP) =  -796.367984610     A.U. after   10 cycles
 SCF Done:  E(RB3LYP) =  -796.367985351     A.U. after    8 cycles
 SCF Done:  E(RB3LYP) =  -796.367985511     A.U. after    7 cycles
 SCF Done:  E(RB3LYP) =  -796.367985550     A.U. after    7 cycles
 Optimization completed.
    -- Stationary point found.
 Normal termination of Gaussian 09 at Sat Jul 24 01:40:19 2021.

 ----------------------------------------------------------------------
 #N Geom=AllCheck Guess=TCheck SCRF=Check GenChk RB3LYP/6-311G(d,p) Fre
 q
 ----------------------------------------------------------------------

 Structure from the checkpoint file:  "conf-490.chk"
 ------------------------------------------------------------
 Candidate Structure: Conf:490 OPT and FREQ calc in gas phase
 ------------------------------------------------------------
 Charge =  0 Multiplicity = 1

                          Input orientation:
 ---------------------------------------------------------------------
 Center     Atomic      Atomic             Coordinates (Angstroms)
 Number     Number       Type             X           Y           Z
 ---------------------------------------------------------------------
      1          8           0        0.902791    0.559343   -2.342563
      2          6           0        1.578351    0.176302   -1.395537
      3          7           0        1.072113    0.036872   -0.143110
      4          6           0       -0.287377    0.419462    0.140282
      5          6           0       -0.424187    0.671652    1.641199
      6          8           0       -1.559295    1.286908    2.028771
      7          8           0        0.402385    0.338574    2.446743
      8          6           0       -1.292894   -0.661601   -0.359981
      9          6           0       -2.722569   -0.291287   -0.144387
     10          6           0       -3.508971    0.708897   -0.674446
     11          7           0       -4.760524    0.711560   -0.093810
     12          6           0       -4.743672   -0.267730    0.778848
     13          7           0       -3.534158   -0.906088    0.790114
     14          6           0        3.051273   -0.191788   -1.558966
     15          6           0        3.969568    0.181569   -0.389543
     16          7           0        3.647435   -0.611631    0.806254
     17          1           0        1.692867   -0.255736    0.615535
     18          1           0       -0.515600    1.341848   -0.404193
     19          1           0       -2.144563    1.431086    1.267020
     20          1           0       -1.088679   -0.783690   -1.424530
     21          1           0       -1.056870   -1.607986    0.134419
     22          1           0       -3.246684    1.406111   -1.455441
     23          1           0       -5.559721   -0.561125    1.420611
     24          1           0       -3.260532   -1.664224    1.395223
     25          1           0        3.112135   -1.271873   -1.741849
     26          1           0        3.383890    0.299756   -2.474144
     27          1           0        5.014286    0.074264   -0.711834
     28          1           0        3.820962    1.235187   -0.137262
     29          1           0        4.095993   -0.234103    1.633130
     30          1           0        3.962059   -1.570643    0.698057
 ---------------------------------------------------------------------

 SCF Done:  E(RB3LYP) =  -796.367985550     A.U. after    1 cycles

 Alpha  occ. eigenvalues --  -19.16789 -19.11272 -19.07871 -14.38056 -14.32644
 Alpha  occ. eigenvalues --  -14.31456 -14.29949 -10.30959 -10.26751 -10.23626
 Alpha  occ. eigenvalues --  -10.23339 -10.22069 -10.21479 -10.20188 -10.19247
 Alpha  occ. eigenvalues --  -10.18401  -1.11247  -1.03762  -1.03273  -1.02876
 Alpha  occ. eigenvalues --   -0.92970  -0.90504  -0.88529  -0.81362  -0.77230
 Alpha  occ. eigenvalues --   -0.74093  -0.68369  -0.64427  -0.62936  -0.62324
 Alpha  occ. eigenvalues --   -0.60582  -0.58049  -0.56679  -0.54426  -0.52112
 Alpha  occ. eigenvalues --   -0.50135  -0.48192  -0.47810  -0.46619  -0.46395
 Alpha  occ. eigenvalues --   -0.45270  -0.44370  -0.43662  -0.43377  -0.42162
 Alpha  occ. eigenvalues --   -0.41563  -0.40516  -0.39926  -0.39452  -0.38367
 Alpha  occ. eigenvalues --   -0.37638  -0.35280  -0.33002  -0.29797  -0.28845
 Alpha  occ. eigenvalues --   -0.27993  -0.26994  -0.26400  -0.25231  -0.23950
 Alpha virt. eigenvalues --   -0.00943   0.00914   0.01347   0.02590   0.03073
 Alpha virt. eigenvalues --    0.03648   0.05629   0.06425   0.06543   0.07131
 Alpha virt. eigenvalues --    0.08553   0.09287   0.09692   0.10855   0.11640

 Mulliken charges:
               1
     1  O   -0.393431
     2  C    0.348761
     3  N   -0.413432
     4  C   -0.134236
     5  C    0.386166
     6  O   -0.290812
     7  O   -0.319703
     8  C   -0.121082
     9  C   -0.019689
    10  C   -0.084977
    11  N   -0.284858
    12  C    0.151882
    13  N   -0.340325
    14  C   -0.231866
    15  C   -0.132428
    16  N   -0.478829
    17  H    0.258162
    18  H    0.161231
    19  H    0.263181
    20  H    0.173204
    21  H    0.117819
    22  H    0.115449
    23  H    0.115631
    24  H    0.232470
    25  H    0.125718
    26  H    0.138393
    27  H    0.112520
    28  H    0.129589
    29  H    0.214397
    30  H    0.201094
 Sum of Mulliken charges =   0.00000

 Dipole moment (field-independent basis, Debye):
    X=              3.3587    Y=             -3.6941    Z=              1.2792  Tot=              5.1540
 Quadrupole moment (field-independent basis, Debye-Ang):
   XX=            -83.8258   YY=            -88.9609   ZZ=           -109.3419
   XY=              7.5783   XZ=             -5.7859   YZ=             -3.6177

  Exact polarizability: 172.200  -8.245 100.651  -7.996  -9.895 120.911
 Approx polarizability: 216.593 -20.506 168.099  -0.178 -26.569 193.718

                      1                      2                      3
                      A                      A                      A
 Frequencies --     19.9766                37.2142                46.7301
 Red. masses --      4.7070                 5.4142                 4.1205
 Frc consts  --      0.0011                 0.0044                 0.0053
 IR Inten    --      0.7847                 3.6208                 2.7863

                      4                      5                      6
                      A                      A                      A
 Frequencies --     58.5394                79.6931                89.0337
 Red. masses --      4.6591                 5.6790                 5.3975
 Frc consts  --      0.0094                 0.0213                 0.0252
 IR Inten    --      9.5937                 1.6652                 7.4268

                      7                      8                      9
                      A                      A                      A
 Frequencies --    105.3206               122.3277               174.9109
 Red. masses --      6.5750                 4.3266                 4.9534
 Frc consts  --      0.0430                 0.0381                 0.0893
 IR Inten    --      2.4300                 6.8942                 6.4569

                     10                     11                     12
                      A                      A                      A
 Frequencies --    203.7333               234.1881               292.1323
 Red. masses --      2.2389                 5.5027                 7.7725
 Frc consts  --      0.0548                 0.1778                 0.3908
 IR Inten    --      6.8302                 6.6589                 0.5305

                     13                     14                     15
                      A                      A                      A
 Frequencies --    297.5143               335.5747               347.3005
 Red. masses --      1.2875                 2.2043                 4.5520
 Frc consts  --      0.0671                 0.1463                 0.3235
 IR Inten    --     10.3702                 4.8013                14.5753

                     16                     17                     18
                      A                      A                      A
 Frequencies --    348.4363               391.1464               477.5427
 Red. masses --      4.9197                 4.4903                 2.6636
 Frc consts  --      0.3519                 0.4048                 0.3579
 IR Inten    --      1.2287                18.4751                12.4950

                     19                     20                     21
                      A                      A                      A
 Frequencies --    510.9159               551.1444               603.8861
 Red. masses --      3.2358                 1.3941                 3.7234
 Frc consts  --      0.4977                 0.2495                 0.8000
 IR Inten    --     26.7553                92.3727                11.1637

                     22                     23                     24
                      A                      A                      A
 Frequencies --    609.4170               648.3300               675.0097
 Red. masses --      1.4854                 2.7986                 2.9055
 Frc consts  --      0.3250                 0.6931                 0.7800
 IR Inten    --     71.6761                 5.8717                14.7232

                     25                     26                     27
                      A                      A                      A
 Frequencies --    682.7806               698.2192               736.3857
 Red. masses --      3.2168                 3.3064                 3.1667
 Frc consts  --      0.8836                 0.9497                 1.0117
 IR Inten    --     14.9073                26.1168                 9.1484

                     28                     29                     30
                      A                      A                      A
 Frequencies --    766.5856               805.9237               819.2295
 Red. masses --      3.3182                 1.5688                 1.4358
 Frc consts  --      1.1489                 0.6004                 0.5678
 IR Inten    --      1.8110                42.1843                30.5762

                     31                     32                     33
                      A                      A                      A
 Frequencies --    825.7304               847.9429               856.6406
 Red. masses --      2.0385                 1.2858                 1.4358
 Frc consts  --      0.8189                 0.5447                 0.6208
 IR Inten    --      7.1500                78.6697                27.4922

                     34                     35                     36
                      A                      A                      A
 Frequencies --    892.5795               919.4081               945.1274
 Red. masses --      2.6845                 2.0184                 5.6857
 Frc consts  --      1.2601                 1.0052                 2.9923
 IR Inten    --     10.5680                15.6506                13.7058

                     37                     38                     39
                      A                      A                      A
 Frequencies --    974.6824              1003.3707              1013.2412
 Red. masses --      2.1865                 1.8168                 2.7642
 Frc consts  --      1.2238                 1.0776                 1.6720
 IR Inten    --     15.9947                17.8113                 1.2509

                     40                     41                     42
                      A                      A                      A
 Frequencies --   1030.9482              1041.5715              1083.3636
 Red. masses --      3.7834                 3.1241                 2.5976
 Frc consts  --      2.3692                 1.9969                 1.7963
 IR Inten    --     10.0783                 8.8948                 5.5643

                     43                     44                     45
                      A                      A                      A
 Frequencies --   1108.3539              1142.0346              1146.0246
 Red. masses --      1.6020                 2.3343                 1.8693
 Frc consts  --      1.1595                 1.7938                 1.4465
 IR Inten    --     15.0128                13.6539                 4.9741

                     46                     47                     48
                      A                      A                      A
 Frequencies --   1158.8124              1164.1310              1202.4278
 Red. masses --      1.3881                 2.1658                 2.3689
 Frc consts  --      1.0983                 1.7293                 2.0179
 IR Inten    --      3.7777                31.3980                19.1508

                     49                     50                     51
                      A                      A                      A
 Frequencies --   1247.1764              1255.4730              1275.7169
 Red. masses --      1.6243                 1.9103                 1.4105
 Frc consts  --      1.4886                 1.7740                 1.3525
 IR Inten    --     22.5966                30.9189                 0.5209

                     52                     53                     54
                      A                      A                      A
 Frequencies --   1295.6485              1311.6217              1315.0080
 Red. masses --      1.3479                 1.5127                 1.3552
 Frc consts  --      1.3332                 1.5333                 1.3808
 IR Inten    --      1.3248                 7.4080                 3.4560

                     55                     56                     57
                      A                      A                      A
 Frequencies --   1320.3785              1359.8034              1368.4385
 Red. masses --      1.3832                 1.3407                 1.3904
 Frc consts  --      1.4208                 1.4606                 1.5340
 IR Inten    --    115.0006               103.8360                15.4992

                     58                     59                     60
                      A                      A                      A
 Frequencies --   1396.9731              1402.4989              1420.7377
 Red. masses --      2.4717                 2.0293                 1.4166
 Frc consts  --      2.8420                 2.3518                 1.6847
 IR Inten    --     48.9704                77.9965                20.1380

                     61                     62                     63
                      A                      A                      A
 Frequencies --   1429.5213              1466.1932              1488.8870
 Red. masses --      3.1856                 1.0824                 1.2102
 Frc consts  --      3.8355                 1.3710                 1.5806
 IR Inten    --     20.5266                12.5640                 8.7241

                     64                     65                     66
                      A                      A                      A
 Frequencies --   1491.5628              1511.6463              1557.8462
 Red. masses --      3.1506                 1.0963                 2.0055
 Frc consts  --      4.1298                 1.4760                 2.8676
 IR Inten    --     17.8570                11.3366               391.1113

                     67                     68                     69
                      A                      A                      A
 Frequencies --   1599.1179              1658.6318              1735.4709
 Red. masses --      4.2261                 1.0902                 9.2457
 Frc consts  --      6.3673                 1.7671                16.4068
 IR Inten    --      8.5579                39.4999               292.2985

                     70                     71                     72
                      A                      A                      A
 Frequencies --   1844.7971              2980.3496              3021.0000
 Red. masses --      9.8553                 1.0722                 1.0705
 Frc consts  --     19.7613                 5.6113                 5.7561
 IR Inten    --    259.5923                92.7967                 9.5469

                     73                     74                     75
                      A                      A                      A
 Frequencies --   3035.0468              3051.8990              3063.6593
 Red. masses --      1.0800                 1.0654                 1.0911
 Frc consts  --      5.8613                 5.8468                 6.0336
 IR Inten    --      8.1574                22.4859                28.6083

                     76                     77                     78
                      A                      A                      A
 Frequencies --   3104.6762              3105.1076              3233.0317
 Red. masses --      1.0924                 1.1019                 1.0963
 Frc consts  --      6.2037                 6.2594                 6.7516
 IR Inten    --     11.4422                 2.5450                 3.7518

                     79                     80                     81
                      A                      A                      A
 Frequencies --   3244.6297              3380.3978              3502.8527
 Red. masses --      1.0985                 1.0821                 1.0499
 Frc consts  --      6.8139                 7.2853                 7.5901
 IR Inten    --      0.8541               354.7551                 0.2881

                     82                     83                     84
                      A                      A                      A
 Frequencies --   3585.3162              3647.6370              3673.7497
 Red. masses --      1.0933                 1.0813                 1.0667
 Frc consts  --      8.2803                 8.4765                 8.4821
 IR Inten    --      3.3013                50.2292               213.1038

 - Thermochemistry -
 -------------------
 Temperature   298.150 Kelvin.  Pressure   1.00000 Atm.
 Atom     1 has atomic number  8 and mass  15.99491

 Molecular mass:   226.10659 amu.
 Principal axes and moments of inertia in atomic units:
                           1         2         3
     Eigenvalues --  1628.591226573.048167549.30308
           X            0.99073   0.13460   0.01855
           Y           -0.02481   0.04497   0.99868
           Z           -0.13359   0.98988  -0.04789
 This molecule is an asymmetric top.
 Rotational symmetry number  1.
 Warning -- assumption of classical behavior for rotation
           may cause significant error
 Rotational temperatures (Kelvin)      0.05318     0.01318     0.01147
 Rotational constants (GHZ):           1.10816     0.27457     0.23906
 Zero-point vibrational energy     643040.9 (Joules/Mol)
                                  153.69045 (Kcal/Mol)
 Warning -- explicit consideration of  22 degrees of freedom as
           vibrations may cause significant error
 Vibrational temperatures:     28.74    53.54    67.23    84.23   114.66
          (Kelvin)            128.10   151.53   176.00   251.66   293.13
                              336.94   420.31   428.06   482.82   499.69
                              501.32   562.77   687.08   735.09   792.97
                              868.86   876.81   932.80   971.19   982.37
                             1004.58  1059.49  1102.94  1159.54  1178.69
                             1188.04  1220.00  1232.51  1284.22  1322.82
                             1359.83  1402.35  1443.62  1457.83  1483.30
                             1498.59  1558.72  1594.67  1643.13  1648.87
                             1667.27  1674.92  1730.02  1794.41  1806.34
                             1835.47  1864.15  1887.13  1892.00  1899.73
                             1956.45  1968.88  2009.93  2017.88  2044.12
                             2056.76  2109.52  2142.17  2146.02  2174.92
                             2241.39  2300.77  2386.40  2496.95  2654.25
                             4288.05  4346.54  4366.75  4391.00  4407.92
                             4466.93  4467.55  4651.61  4668.29  4863.63
                             5039.82  5158.46  5248.13  5285.70

 Zero-point correction=                           0.244921 (Hartree/Particle)
 Thermal correction to Energy=                    0.260688
 Thermal correction to Enthalpy=                  0.261632
 Thermal correction to Gibbs Free Energy=         0.199233
 Sum of electronic and zero-point Energies=           -796.123064
 Sum of electronic and thermal Energies=              -796.107298
 Sum of electronic and thermal Enthalpies=            -796.106354
 Sum of electronic and thermal Free Energies=         -796.168753

                     E (Thermal)             CV                S
                      KCal/Mol        Cal/Mol-Kelvin    Cal/Mol-Kelvin
 Total                  163.584             57.687            131.331
 Electronic               0.000              0.000              0.000
 Translational            0.889              2.981             42.150
 Rotational               0.889              2.981             32.758
 Vibrational            161.807             51.726             56.423
 Vibration     1          0.593              1.986              6.637
 Vibration     2          0.594              1.982              5.402
 Vibration     3          0.595              1.979              4.951
 Vibration     4          0.596              1.974              4.506
 Vibration     5          0.600              1.963              3.898
 Vibration     6          0.602              1.957              3.681
 Vibration     7          0.605              1.945              3.353
 Vibration     8          0.610              1.930              3.063
 Vibration     9          0.627              1.873              2.382
 Vibration    10          0.639              1.835              2.099
 Vibration    11          0.654              1.789              1.847
 Vibration    12          0.688              1.688              1.462
 Vibration    13          0.691              1.678              1.431
 Vibration    14          0.717              1.604              1.233
 Vibration    15          0.725              1.581              1.178
 Vibration    16          0.726              1.578              1.173
 Vibration    17          0.759              1.489              0.996
 Vibration    18          0.834              1.300              0.717
 Vibration    19          0.866              1.226              0.631
 Vibration    20          0.906              1.137              0.542
 Vibration    21          0.962              1.024              0.443
 Vibration    22          0.968              1.012              0.434

 Optimization completed.
    -- Stationary point found.
 Normal termination of Gaussian 09 at Sat Jul 24 02:12:39 2021.
