 Gaussian 09, Revision D.01,
 Gaussian 09:  ES64L-G09RevD.01 24-Apr-2013

 ----------------------------------------------------------------------
 # B3LYP/6-311G(d,p) EmpiricalDispersion=GD3BJ opt=calcfc freq=noraman
 nosymm integral(ultrafinegrid)
 ----------------------------------------------------------------------

 ------------------------------------------------------------
 Candidate Structure: Conf:150 OPT and FREQ calc in gas phase
 ------------------------------------------------------------
 Symbolic Z-matrix:
 Charge =  0 Multiplicity = 1

 SCF Done:  E(RB3LYP) =  -796.366081117     A.U. after   14 cycles
 SCF Done:  E(RB3LYP) =  -796.366815673     A.U. after   14 cycles
 SCF Done:  E(RB3LYP) =  -796.327830531     A.U. after   13 cycles
 SCF Done:  E(RB3LYP) =  -796.366824052     A.U. after    8 cycles
 SCF Done:  E(RB3LYP) =  -796.367643970     A.U. after   13 cycles
 SCF Done:  E(RB3LYP) =  -796.367002322     A.U. after   12 cycles
 SCF Done:  E(RB3LYP) =  -796.367664716     A.U. after    9 cycles
 SCF Done:  E(RB3LYP) =  -796.367723104     A.U. after   10 cycles
 SCF Done:  E(RB3LYP) =  -796.367738580     A.U. after   10 cycles
 SCF Done:  E(RB3LYP) =  -796.367748902     A.U. after   10 cycles
 SCF Done:  E(RB3LYP) =  -796.367750353     A.U. after    9 cycles
 SCF Done:  E(RB3LYP) =  -796.367750473     A.U. after    7 cycles
 SCF Done:  E(RB3LYP) =  -796.367750548     A.U. after    7 cycles
 SCF Done:  E(RB3LYP) =  -796.367750597     A.U. after    7 cycles
 Optimization completed.
    -- Stationary point found.
 Normal termination of Gaussian 09 at Sat Jul 24 01:40:39 2021.

 ----------------------------------------------------------------------
 #N Geom=AllCheck Guess=TCheck SCRF=Check GenChk RB3LYP/6-311G(d,p) Fre
 q
 ----------------------------------------------------------------------

 Structure from the checkpoint file:  "conf-150.chk"
 ------------------------------------------------------------
 Candidate Structure: Conf:150 OPT and FREQ calc in gas phase
 ------------------------------------------------------------
 Charge =  0 Multiplicity = 1

                          Input orientation:
 ---------------------------------------------------------------------
 Center     Atomic      Atomic             Coordinates (Angstroms)
 Number     Number       Type             X           Y           Z
 ---------------------------------------------------------------------
      1          8           0       -1.120659   -1.890759   -0.774759
      2          6           0       -1.273789   -0.754325   -0.355504
      3          7           0       -0.372158   -0.169081    0.488840
      4          6           0        0.727681   -0.932662    1.048201
      5          6           0        1.158410   -0.241717    2.328577
      6          8           0        2.164587   -0.896461    2.931381
      7          8           0        0.671512    0.774222    2.757303
      8          6           0        1.916646   -1.072763    0.063513
      9          6           0        2.589108    0.223106   -0.231585
     10          6           0        3.818546    0.725745    0.120339
     11          7           0        3.983951    2.007899   -0.356195
     12          6           0        2.869048    2.291088   -0.988134
     13          7           0        1.989934    1.244605   -0.946556
     14          6           0       -2.438805    0.127957   -0.774700
     15          6           0       -3.708592   -0.681618   -1.028092
     16          7           0       -4.732845    0.175884   -1.630837
     17          1           0       -0.603459    0.686101    0.975995
     18          1           0        0.377445   -1.940925    1.292132
     19          1           0        2.414390   -0.378681    3.711341
     20          1           0        1.519593   -1.543473   -0.839002
     21          1           0        2.647086   -1.756391    0.497138
     22          1           0        4.591967    0.227683    0.684416
     23          1           0        2.641563    3.218938   -1.489894
     24          1           0        1.054778    1.217127   -1.319277
     25          1           0       -2.168487    0.633655   -1.708332
     26          1           0       -2.617273    0.911964   -0.030621
     27          1           0       -3.462807   -1.481702   -1.727689
     28          1           0       -4.020122   -1.167196   -0.089976
     29          1           0       -5.096425    0.827641   -0.941503
     30          1           0       -5.520513   -0.386253   -1.935979
 ---------------------------------------------------------------------

 SCF Done:  E(RB3LYP) =  -796.367750597     A.U. after    1 cycles

 Alpha  occ. eigenvalues --  -19.19045 -19.13572 -19.09640 -14.36604 -14.35027
 Alpha  occ. eigenvalues --  -14.29445 -14.28580 -10.32805 -10.28367 -10.24435
 Alpha  occ. eigenvalues --  -10.22096 -10.20494 -10.20023 -10.19714 -10.18816
 Alpha  occ. eigenvalues --  -10.17855  -1.13824  -1.05568  -1.04860  -1.01568
 Alpha  occ. eigenvalues --   -0.94535  -0.89088  -0.87167  -0.81709  -0.77093
 Alpha  occ. eigenvalues --   -0.74490  -0.68921  -0.65566  -0.61802  -0.61283
 Alpha  occ. eigenvalues --   -0.60292  -0.59153  -0.54070  -0.53874  -0.51651
 Alpha  occ. eigenvalues --   -0.50668  -0.50187  -0.48937  -0.47624  -0.46298
 Alpha  occ. eigenvalues --   -0.45718  -0.44507  -0.43946  -0.42797  -0.42489
 Alpha  occ. eigenvalues --   -0.40966  -0.40829  -0.40303  -0.39476  -0.38972
 Alpha  occ. eigenvalues --   -0.36594  -0.35656  -0.35000  -0.30983  -0.28517
 Alpha  occ. eigenvalues --   -0.28084  -0.27011  -0.26757  -0.24899  -0.22874
 Alpha virt. eigenvalues --   -0.01848   0.00344   0.01424   0.02149   0.02538
 Alpha virt. eigenvalues --    0.03386   0.05437   0.05649   0.07886   0.08160
 Alpha virt. eigenvalues --    0.08599   0.09156   0.09802   0.10633   0.10988

 Mulliken charges:
               1
     1  O   -0.381864
     2  C    0.362386
     3  N   -0.427869
     4  C   -0.085890
     5  C    0.396436
     6  O   -0.314278
     7  O   -0.337903
     8  C   -0.152992
     9  C    0.045149
    10  C   -0.059155
    11  N   -0.298193
    12  C    0.152481
    13  N   -0.358009
    14  C   -0.245128
    15  C   -0.103167
    16  N   -0.459366
    17  H    0.241743
    18  H    0.173413
    19  H    0.262505
    20  H    0.160447
    21  H    0.141959
    22  H    0.093592
    23  H    0.108299
    24  H    0.226424
    25  H    0.141265
    26  H    0.109149
    27  H    0.134500
    28  H    0.097079
    29  H    0.183475
    30  H    0.193513
 Sum of Mulliken charges =   0.00000

 Dipole moment (field-independent basis, Debye):
    X=             -3.2737    Y=             -0.3533    Z=              1.6478  Tot=              3.6820
 Quadrupole moment (field-independent basis, Debye-Ang):
   XX=            -97.2548   YY=           -101.2536   ZZ=            -90.8588
   XY=            -11.0000   XZ=              3.2950   YZ=             -6.3523

  Exact polarizability: 152.072   6.569 126.049  20.291  -6.197 111.150
 Approx polarizability: 198.924   1.456 210.278  25.988  -0.261 162.749

                      1                      2                      3
                      A                      A                      A
 Frequencies --     14.5651                26.7374                49.8157
 Red. masses --      3.7411                 3.9290                 7.6665
 Frc consts  --      0.0005                 0.0017                 0.0112
 IR Inten    --      0.6896                 2.2154                 8.5105

                      4                      5                      6
                      A                      A                      A
 Frequencies --     52.6784                63.5537                74.0407
 Red. masses --      2.6011                 7.9872                 3.9064
 Frc consts  --      0.0043                 0.0190                 0.0126
 IR Inten    --      3.7944                 0.1205                 2.3918

                      7                      8                      9
                      A                      A                      A
 Frequencies --     76.6072               124.2090               129.6497
 Red. masses --      6.3606                 4.2153                 4.5750
 Frc consts  --      0.0220                 0.0383                 0.0453
 IR Inten    --      0.9557                 5.6314                 3.5495

                     10                     11                     12
                      A                      A                      A
 Frequencies --    190.0023               218.6074               250.8440
 Red. masses --      5.1653                 3.0631                 1.9697
 Frc consts  --      0.1099                 0.0862                 0.0730
 IR Inten    --      1.7155                14.2985                25.4745

                     13                     14                     15
                      A                      A                      A
 Frequencies --    267.4003               308.6151               330.2955
 Red. masses --      2.3892                 5.0527                 6.0352
 Frc consts  --      0.1007                 0.2835                 0.3879
 IR Inten    --     33.5596                 1.1688                 2.8718

                     16                     17                     18
                      A                      A                      A
 Frequencies --    369.8319               399.1917               473.9811
 Red. masses --      2.3651                 3.5739                 3.1077
 Frc consts  --      0.1906                 0.3355                 0.4114
 IR Inten    --      2.9921                 5.8265                14.4550

                     19                     20                     21
                      A                      A                      A
 Frequencies --    497.7307               545.0223               581.3157
 Red. masses --      1.3248                 3.1920                 1.6504
 Frc consts  --      0.1934                 0.5587                 0.3286
 IR Inten    --    128.6647                21.1213                13.6414

                     22                     23                     24
                      A                      A                      A
 Frequencies --    595.8725               619.9197               645.3706
 Red. masses --      2.8260                 2.1711                 2.1443
 Frc consts  --      0.5912                 0.4916                 0.5262
 IR Inten    --     43.8824                79.0115                 1.4690

                     25                     26                     27
                      A                      A                      A
 Frequencies --    662.5366               684.5837               704.6046
 Red. masses --      2.1651                 2.5549                 3.2308
 Frc consts  --      0.5600                 0.7055                 0.9450
 IR Inten    --     16.2094                 3.3817                55.3022

                     28                     29                     30
                      A                      A                      A
 Frequencies --    739.1064               782.9209               809.6166
 Red. masses --      4.0708                 2.5659                 1.4132
 Frc consts  --      1.3102                 0.9267                 0.5458
 IR Inten    --     11.5945                29.1700                 7.7409

                     31                     32                     33
                      A                      A                      A
 Frequencies --    812.8095               846.0079               858.6134
 Red. masses --      1.5207                 1.4794                 1.3979
 Frc consts  --      0.5919                 0.6239                 0.6072
 IR Inten    --     21.0258                20.5678               110.1820

                     34                     35                     36
                      A                      A                      A
 Frequencies --    877.5502               926.6576               944.7608
 Red. masses --      2.5371                 3.4181                 5.2337
 Frc consts  --      1.1512                 1.7293                 2.7524
 IR Inten    --      8.1618                 9.8553                18.4341

                     37                     38                     39
                      A                      A                      A
 Frequencies --    970.8086               987.9787              1023.8426
 Red. masses --      3.0093                 2.0871                 2.7657
 Frc consts  --      1.6710                 1.2003                 1.7081
 IR Inten    --      6.7510                 5.5734                27.0880

                     40                     41                     42
                      A                      A                      A
 Frequencies --   1031.9790              1062.8479              1095.7351
 Red. masses --      3.0597                 2.7780                 2.0144
 Frc consts  --      1.9199                 1.8489                 1.4250
 IR Inten    --      1.4983                20.5337                24.2371

                     43                     44                     45
                      A                      A                      A
 Frequencies --   1106.4850              1116.3751              1144.0969
 Red. masses --      1.5746                 2.3644                 2.2033
 Frc consts  --      1.1359                 1.7362                 1.6992
 IR Inten    --     14.0851                49.6565                12.2813

                     46                     47                     48
                      A                      A                      A
 Frequencies --   1162.3868              1182.9796              1210.6274
 Red. masses --      1.5087                 2.2480                 1.4195
 Frc consts  --      1.2010                 1.8535                 1.2257
 IR Inten    --     39.2687               187.3863                 0.6080

                     49                     50                     51
                      A                      A                      A
 Frequencies --   1233.2257              1250.1726              1260.0832
 Red. masses --      1.7713                 1.8801                 1.7261
 Frc consts  --      1.5872                 1.7313                 1.6148
 IR Inten    --     30.8787                10.9416                 0.4519

                     52                     53                     54
                      A                      A                      A
 Frequencies --   1265.9275              1286.8160              1316.9950
 Red. masses --      1.5080                 1.3139                 1.4153
 Frc consts  --      1.4238                 1.2818                 1.4463
 IR Inten    --     26.4733                 8.2616                 3.7042

                     55                     56                     57
                      A                      A                      A
 Frequencies --   1339.3866              1363.1335              1375.4201
 Red. masses --      1.1165                 1.4760                 1.7354
 Frc consts  --      1.1801                 1.6159                 1.9343
 IR Inten    --      7.6780                 3.3769                 8.6145

                     58                     59                     60
                      A                      A                      A
 Frequencies --   1393.2577              1413.7695              1426.1163
 Red. masses --      2.3754                 2.4442                 2.7213
 Frc consts  --      2.7168                 2.8784                 3.2608
 IR Inten    --     21.5597               142.3991                14.6020

                     61                     62                     63
                      A                      A                      A
 Frequencies --   1430.1359              1470.7993              1486.6955
 Red. masses --      1.5944                 1.0937                 1.2026
 Frc consts  --      1.9213                 1.3940                 1.5660
 IR Inten    --     54.6876                 9.0690                11.0467

                     64                     65                     66
                      A                      A                      A
 Frequencies --   1499.3216              1520.1409              1524.8403
 Red. masses --      3.1446                 1.0846                 2.1376
 Frc consts  --      4.1648                 1.4767                 2.9284
 IR Inten    --     66.1213                 2.6792               273.6836

                     67                     68                     69
                      A                      A                      A
 Frequencies --   1612.0955              1665.0115              1748.7161
 Red. masses --      4.6480                 1.0895                 9.5181
 Frc consts  --      7.1170                 1.7796                17.1491
 IR Inten    --      8.0854                26.1784               227.7269

                     70                     71                     72
                      A                      A                      A
 Frequencies --   1821.6098              2951.4754              3022.3042
 Red. masses --      9.9287                 1.0743                 1.0592
 Frc consts  --     19.4113                 5.5136                 5.7005
 IR Inten    --    211.9814                68.6683                18.9032

                     73                     74                     75
                      A                      A                      A
 Frequencies --   3044.2508              3057.7288              3061.9509
 Red. masses --      1.0814                 1.0999                 1.0647
 Frc consts  --      5.9049                 6.0592                 5.8815
 IR Inten    --     11.7048                14.0655                 9.6581

                     76                     77                     78
                      A                      A                      A
 Frequencies --   3096.6673              3114.5872              3232.6465
 Red. masses --      1.0901                 1.1006                 1.0957
 Frc consts  --      6.1592                 6.2904                 6.7465
 IR Inten    --     17.1797                 6.9609                 7.4080

                     79                     80                     81
                      A                      A                      A
 Frequencies --   3240.0322              3487.5259              3564.2428
 Red. masses --      1.0987                 1.0501                 1.0920
 Frc consts  --      6.7954                 7.5252                 8.1737
 IR Inten    --      0.5730                 1.0040                 0.0673

                     82                     83                     84
                      A                      A                      A
 Frequencies --   3588.7326              3657.7279              3759.8855
 Red. masses --      1.0775                 1.0810                 1.0644
 Frc consts  --      8.1759                 8.5213                 8.8651
 IR Inten    --     68.8312                55.1398                85.3415

 - Thermochemistry -
 -------------------
 Temperature   298.150 Kelvin.  Pressure   1.00000 Atm.
 Atom     1 has atomic number  8 and mass  15.99491

 Molecular mass:   226.10659 amu.
 Principal axes and moments of inertia in atomic units:
                           1         2         3
     Eigenvalues --  2232.855706313.210507338.10745
           X            0.95279  -0.11516  -0.28096
           Y            0.18589  -0.51043   0.83959
           Z            0.24010   0.85217   0.46492
 This molecule is an asymmetric top.
 Rotational symmetry number  1.
 Warning -- assumption of classical behavior for rotation
           may cause significant error
 Rotational temperatures (Kelvin)      0.03879     0.01372     0.01180
 Rotational constants (GHZ):           0.80827     0.28587     0.24594
 Zero-point vibrational energy     641408.9 (Joules/Mol)
                                  153.30041 (Kcal/Mol)
 Warning -- explicit consideration of  23 degrees of freedom as
           vibrations may cause significant error
 Vibrational temperatures:     20.96    38.47    71.67    75.79    91.44
          (Kelvin)            106.53   110.22   178.71   186.54   273.37
                              314.53   360.91   384.73   444.03   475.22
                              532.10   574.35   681.95   716.12   784.16
                              836.38   857.33   891.93   928.54   953.24
                              984.96  1013.77  1063.41  1126.45  1164.86
                             1169.45  1217.22  1235.35  1262.60  1333.25
                             1359.30  1396.78  1421.48  1473.08  1484.79
                             1529.20  1576.52  1591.98  1606.21  1646.10
                             1672.41  1702.04  1741.82  1774.33  1798.72
                             1812.98  1821.39  1851.44  1894.86  1927.08
                             1961.24  1978.92  2004.58  2034.10  2051.86
                             2057.64  2116.15  2139.02  2157.19  2187.14
                             2193.90  2319.44  2395.58  2516.01  2620.89
                             4246.51  4348.42  4379.99  4399.38  4405.46
                             4455.41  4481.19  4651.05  4661.68  5017.77
                             5128.14  5163.38  5262.65  5409.63

 Zero-point correction=                           0.244300 (Hartree/Particle)
 Thermal correction to Energy=                    0.260574
 Thermal correction to Enthalpy=                  0.261519
 Thermal correction to Gibbs Free Energy=         0.196876
 Sum of electronic and zero-point Energies=           -796.123451
 Sum of electronic and thermal Energies=              -796.107176
 Sum of electronic and thermal Enthalpies=            -796.106232
 Sum of electronic and thermal Free Energies=         -796.170875

                     E (Thermal)             CV                S
                      KCal/Mol        Cal/Mol-Kelvin    Cal/Mol-Kelvin
 Total                  163.513             58.490            136.052
 Electronic               0.000              0.000              0.000
 Translational            0.889              2.981             42.150
 Rotational               0.889              2.981             33.003
 Vibrational            161.735             52.529             60.899
 Vibration     1          0.593              1.986              7.264
 Vibration     2          0.593              1.984              6.058
 Vibration     3          0.595              1.978              4.825
 Vibration     4          0.596              1.977              4.714
 Vibration     5          0.597              1.972              4.344
 Vibration     6          0.599              1.966              4.043
 Vibration     7          0.599              1.965              3.976
 Vibration     8          0.610              1.929              3.034
 Vibration     9          0.612              1.924              2.951
 Vibration    10          0.633              1.854              2.228
 Vibration    11          0.646              1.813              1.971
 Vibration    12          0.663              1.761              1.725
 Vibration    13          0.673              1.733              1.613
 Vibration    14          0.698              1.657              1.370
 Vibration    15          0.713              1.615              1.259
 Vibration    16          0.742              1.534              1.080
 Vibration    17          0.765              1.472              0.966
 Vibration    18          0.831              1.308              0.726
 Vibration    19          0.853              1.255              0.664
 Vibration    20          0.900              1.151              0.555
 Vibration    21          0.938              1.072              0.483
 Vibration    22          0.954              1.041              0.457
 Vibration    23          0.980              0.990              0.417

 Optimization completed.
    -- Stationary point found.
 Normal termination of Gaussian 09 at Sat Jul 24 02:12:35 2021.
