 Gaussian 09, Revision D.01,
 Gaussian 09:  ES64L-G09RevD.01 24-Apr-2013

 ----------------------------------------------------------------------
 # B3LYP/6-311G(d,p) EmpiricalDispersion=GD3BJ opt=calcfc freq=noraman
 nosymm integral(ultrafinegrid)
 ----------------------------------------------------------------------

 ------------------------------------------------------------
 Candidate Structure: Conf:609 OPT and FREQ calc in gas phase
 ------------------------------------------------------------
 Symbolic Z-matrix:
 Charge =  0 Multiplicity = 1

 SCF Done:  E(RB3LYP) =  -796.358100989     A.U. after   14 cycles
 SCF Done:  E(RB3LYP) =  -796.359930498     A.U. after   14 cycles
 SCF Done:  E(RB3LYP) =  -796.360069948     A.U. after   14 cycles
 SCF Done:  E(RB3LYP) =  -796.360595859     A.U. after   11 cycles
 SCF Done:  E(RB3LYP) =  -796.360750839     A.U. after   12 cycles
 SCF Done:  E(RB3LYP) =  -796.360600055     A.U. after   13 cycles
 SCF Done:  E(RB3LYP) =  -796.360881393     A.U. after   12 cycles
 SCF Done:  E(RB3LYP) =  -796.360897837     A.U. after   11 cycles
 SCF Done:  E(RB3LYP) =  -796.360901135     A.U. after    9 cycles
 SCF Done:  E(RB3LYP) =  -796.360901551     A.U. after    8 cycles
 SCF Done:  E(RB3LYP) =  -796.360901593     A.U. after    7 cycles
 Optimization completed.
    -- Stationary point found.
 Normal termination of Gaussian 09 at Sat Jul 24 01:31:48 2021.

 ----------------------------------------------------------------------
 #N Geom=AllCheck Guess=TCheck SCRF=Check GenChk RB3LYP/6-311G(d,p) Fre
 q
 ----------------------------------------------------------------------

 Structure from the checkpoint file:  "conf-609.chk"
 ------------------------------------------------------------
 Candidate Structure: Conf:609 OPT and FREQ calc in gas phase
 ------------------------------------------------------------
 Charge =  0 Multiplicity = 1

                          Input orientation:
 ---------------------------------------------------------------------
 Center     Atomic      Atomic             Coordinates (Angstroms)
 Number     Number       Type             X           Y           Z
 ---------------------------------------------------------------------
      1          8           0        1.383580    1.272333   -0.480336
      2          6           0        1.622534    0.417066    0.357258
      3          7           0        0.639457   -0.416501    0.822687
      4          6           0       -0.655356   -0.433499    0.158075
      5          6           0       -0.425147   -0.741256   -1.329710
      6          8           0       -1.306386   -0.128537   -2.160731
      7          8           0        0.421608   -1.487786   -1.737403
      8          6           0       -1.490977    0.835822    0.462739
      9          6           0       -2.967862    0.622122    0.451474
     10          6           0       -3.885963    0.564587    1.473784
     11          7           0       -5.154965    0.340571    0.987812
     12          6           0       -5.016233    0.259582   -0.315956
     13          7           0       -3.714509    0.425361   -0.694018
     14          6           0        3.015728    0.172837    0.894248
     15          6           0        3.908948   -0.437509   -0.213520
     16          7           0        5.298530   -0.672409    0.160023
     17          1           0        0.912735   -1.235001    1.341404
     18          1           0       -1.200598   -1.294834    0.554436
     19          1           0       -1.050561   -0.389319   -3.058750
     20          1           0       -1.213201    1.150095    1.469730
     21          1           0       -1.184243    1.634443   -0.213213
     22          1           0       -3.699824    0.684957    2.530302
     23          1           0       -5.808679    0.086155   -1.027733
     24          1           0       -3.320961    0.376431   -1.620618
     25          1           0        3.429354    1.137202    1.200173
     26          1           0        3.003715   -0.483887    1.770333
     27          1           0        3.472541   -1.384443   -0.544191
     28          1           0        3.884724    0.231350   -1.076093
     29          1           0        5.357435   -1.302199    0.954200
     30          1           0        5.744643    0.196275    0.438042
 ---------------------------------------------------------------------

 SCF Done:  E(RB3LYP) =  -796.360901593     A.U. after    1 cycles

 Alpha  occ. eigenvalues --  -19.19312 -19.12828 -19.09650 -14.35904 -14.35317
 Alpha  occ. eigenvalues --  -14.29446 -14.28219 -10.32523 -10.28217 -10.24907
 Alpha  occ. eigenvalues --  -10.21674 -10.20206 -10.20123 -10.19239 -10.18701
 Alpha  occ. eigenvalues --  -10.17494  -1.13575  -1.05663  -1.04371  -1.01120
 Alpha  occ. eigenvalues --   -0.94542  -0.89165  -0.86754  -0.81293  -0.76857
 Alpha  occ. eigenvalues --   -0.73927  -0.68315  -0.65617  -0.62634  -0.61265
 Alpha  occ. eigenvalues --   -0.59557  -0.58718  -0.55149  -0.52801  -0.51867
 Alpha  occ. eigenvalues --   -0.51099  -0.50865  -0.48625  -0.47005  -0.45641
 Alpha  occ. eigenvalues --   -0.45160  -0.43825  -0.43403  -0.42535  -0.41947
 Alpha  occ. eigenvalues --   -0.41127  -0.40605  -0.40016  -0.39457  -0.38812
 Alpha  occ. eigenvalues --   -0.37665  -0.35495  -0.34508  -0.30281  -0.28564
 Alpha  occ. eigenvalues --   -0.27862  -0.27470  -0.26418  -0.24412  -0.22512
 Alpha virt. eigenvalues --   -0.02021   0.00203   0.01667   0.02122   0.02566
 Alpha virt. eigenvalues --    0.03922   0.06053   0.06543   0.07097   0.07566
 Alpha virt. eigenvalues --    0.07688   0.08908   0.10540   0.11235   0.11624

 Mulliken charges:
               1
     1  O   -0.388275
     2  C    0.354544
     3  N   -0.379068
     4  C   -0.076928
     5  C    0.397398
     6  O   -0.346679
     7  O   -0.329187
     8  C   -0.169879
     9  C    0.078120
    10  C   -0.072565
    11  N   -0.299082
    12  C    0.147269
    13  N   -0.364093
    14  C   -0.246922
    15  C   -0.103061
    16  N   -0.440910
    17  H    0.228643
    18  H    0.163012
    19  H    0.263873
    20  H    0.133520
    21  H    0.165245
    22  H    0.091205
    23  H    0.104654
    24  H    0.233629
    25  H    0.129098
    26  H    0.095203
    27  H    0.125709
    28  H    0.137337
    29  H    0.181671
    30  H    0.186517
 Sum of Mulliken charges =   0.00000

 Dipole moment (field-independent basis, Debye):
    X=              1.9908    Y=             -1.4153    Z=              0.0936  Tot=              2.4444
 Quadrupole moment (field-independent basis, Debye-Ang):
   XX=           -115.3134   YY=            -98.0679   ZZ=            -84.1794
   XY=              4.4383   XZ=             26.6643   YZ=             -3.3205

  Exact polarizability: 178.278  -3.706  95.141   3.074   1.439 122.869
 Approx polarizability: 219.081  -1.437 157.553  -0.821  -7.764 198.115

                      1                      2                      3
                      A                      A                      A
 Frequencies --     15.0857                23.0986                36.0339
 Red. masses --      4.0297                 5.1528                 5.9097
 Frc consts  --      0.0005                 0.0016                 0.0045
 IR Inten    --      1.5024                 9.3513                 4.0662

                      4                      5                      6
                      A                      A                      A
 Frequencies --     53.1712                69.2009                89.6281
 Red. masses --      4.9025                 2.9913                 2.4804
 Frc consts  --      0.0082                 0.0084                 0.0117
 IR Inten    --      1.4918                 3.7417                 2.5678

                      7                      8                      9
                      A                      A                      A
 Frequencies --     97.4005               131.2915               147.8077
 Red. masses --      9.1915                 6.3642                 6.4570
 Frc consts  --      0.0514                 0.0646                 0.0831
 IR Inten    --      2.8151                 2.0859                 5.3289

                     10                     11                     12
                      A                      A                      A
 Frequencies --    192.2475               220.3221               284.2547
 Red. masses --      4.5049                 5.3389                 3.7162
 Frc consts  --      0.0981                 0.1527                 0.1769
 IR Inten    --     11.1143                 1.9156                 9.4110

                     13                     14                     15
                      A                      A                      A
 Frequencies --    307.3567               307.7433               339.2185
 Red. masses --      1.8449                 1.5494                 3.9591
 Frc consts  --      0.1027                 0.0865                 0.2684
 IR Inten    --     28.6038                18.4278                 1.3508

                     16                     17                     18
                      A                      A                      A
 Frequencies --    368.7130               390.1281               434.9515
 Red. masses --      3.4953                 3.7452                 1.4845
 Frc consts  --      0.2800                 0.3358                 0.1655
 IR Inten    --      1.1210                12.2384                37.4214

                     19                     20                     21
                      A                      A                      A
 Frequencies --    444.1182               519.2800               550.5787
 Red. masses --      2.8426                 3.6241                 2.7718
 Frc consts  --      0.3303                 0.5758                 0.4950
 IR Inten    --     34.7911                33.5921                27.2794

                     22                     23                     24
                      A                      A                      A
 Frequencies --    592.8164               615.2331               676.0626
 Red. masses --      1.5677                 2.0874                 2.8038
 Frc consts  --      0.3246                 0.4655                 0.7551
 IR Inten    --     35.4272                91.9704                49.9376

                     25                     26                     27
                      A                      A                      A
 Frequencies --    688.9291               693.6997               732.9754
 Red. masses --      2.9678                 1.8636                 3.6409
 Frc consts  --      0.8299                 0.5284                 1.1525
 IR Inten    --     33.4168                 4.9882                26.9793

                     28                     29                     30
                      A                      A                      A
 Frequencies --    743.3176               773.7782               778.9997
 Red. masses --      5.9583                 1.5021                 2.0976
 Frc consts  --      1.9397                 0.5299                 0.7500
 IR Inten    --      6.3623                 2.2688                 2.1206

                     31                     32                     33
                      A                      A                      A
 Frequencies --    810.2629               835.1872               843.0948
 Red. masses --      1.4213                 1.7425                 1.4605
 Frc consts  --      0.5498                 0.7161                 0.6117
 IR Inten    --     19.2353               153.8778                64.9482

                     34                     35                     36
                      A                      A                      A
 Frequencies --    856.1444               914.0949               945.6581
 Red. masses --      2.6012                 2.5183                 5.4831
 Frc consts  --      1.1234                 1.2397                 2.8890
 IR Inten    --     49.6791                 0.7713                18.9005

                     37                     38                     39
                      A                      A                      A
 Frequencies --    969.8223               990.9334              1009.3147
 Red. masses --      1.8162                 2.0359                 4.5919
 Frc consts  --      1.0065                 1.1778                 2.7561
 IR Inten    --      6.6495                17.1733                91.6352

                     40                     41                     42
                      A                      A                      A
 Frequencies --   1032.3485              1050.5477              1087.1224
 Red. masses --      3.6022                 4.6161                 1.6874
 Frc consts  --      2.2619                 3.0016                 1.1750
 IR Inten    --     16.6101                 5.9021                10.8022

                     43                     44                     45
                      A                      A                      A
 Frequencies --   1105.7213              1113.3946              1137.3999
 Red. masses --      3.3911                 1.5500                 1.7997
 Frc consts  --      2.4428                 1.1321                 1.3718
 IR Inten    --     14.9667                44.4837                40.5899

                     46                     47                     48
                      A                      A                      A
 Frequencies --   1145.5492              1161.3770              1200.1502
 Red. masses --      2.2642                 2.3428                 1.5187
 Frc consts  --      1.7506                 1.8618                 1.2889
 IR Inten    --     63.0010               162.7155                36.6075

                     49                     50                     51
                      A                      A                      A
 Frequencies --   1252.7155              1260.2918              1271.6583
 Red. masses --      1.7862                 2.2486                 1.3856
 Frc consts  --      1.6515                 2.1043                 1.3202
 IR Inten    --     41.6377                30.4116                 4.5716

                     52                     53                     54
                      A                      A                      A
 Frequencies --   1292.2521              1303.4280              1326.4165
 Red. masses --      1.3442                 1.2591                 1.4091
 Frc consts  --      1.3225                 1.2604                 1.4607
 IR Inten    --      8.2178                 1.2938                27.4711

                     55                     56                     57
                      A                      A                      A
 Frequencies --   1329.7489              1351.5629              1379.1409
 Red. masses --      1.4489                 1.8383                 1.7944
 Frc consts  --      1.5095                 1.9785                 2.0108
 IR Inten    --     32.5613                 7.5824                 4.3889

                     58                     59                     60
                      A                      A                      A
 Frequencies --   1384.4665              1394.3338              1397.6913
 Red. masses --      1.2359                 1.1913                 3.1127
 Frc consts  --      1.3958                 1.3646                 3.5827
 IR Inten    --     18.3937                 6.2995                10.6496

                     61                     62                     63
                      A                      A                      A
 Frequencies --   1428.9367              1483.0297              1487.1758
 Red. masses --      2.7857                 1.1112                 1.1996
 Frc consts  --      3.3513                 1.4399                 1.5632
 IR Inten    --     27.0236                 2.1964                14.4584

                     64                     65                     66
                      A                      A                      A
 Frequencies --   1499.4759              1504.9998              1522.9349
 Red. masses --      2.9292                 1.0905                 1.9267
 Frc consts  --      3.8804                 1.4552                 2.6328
 IR Inten    --     29.6796                 5.7843               215.2542

                     67                     68                     69
                      A                      A                      A
 Frequencies --   1608.0597              1666.4160              1751.1630
 Red. masses --      4.4622                 1.0892                 9.2565
 Frc consts  --      6.7983                 1.7821                16.7244
 IR Inten    --      9.2701                26.8797               182.7315

                     70                     71                     72
                      A                      A                      A
 Frequencies --   1834.9232              3028.8628              3045.0444
 Red. masses --     10.2349                 1.0610                 1.0654
 Frc consts  --     20.3034                 5.7348                 5.8204
 IR Inten    --    284.4369                17.3690                23.9114

                     73                     74                     75
                      A                      A                      A
 Frequencies --   3058.2308              3074.9308              3076.5926
 Red. masses --      1.0822                 1.0618                 1.0969
 Frc consts  --      5.9633                 5.9151                 6.1171
 IR Inten    --      3.3281                10.3016                 5.3118

                     76                     77                     78
                      A                      A                      A
 Frequencies --   3099.4998              3117.2318              3227.2988
 Red. masses --      1.1055                 1.1035                 1.0960
 Frc consts  --      6.2576                 6.3174                 6.7259
 IR Inten    --     29.5457                 3.6205                 9.1632

                     79                     80                     81
                      A                      A                      A
 Frequencies --   3237.8582              3487.2855              3564.4838
 Red. masses --      1.0981                 1.0484                 1.0934
 Frc consts  --      6.7825                 7.5121                 8.1852
 IR Inten    --      1.4518                 0.5611                 0.0134

                     82                     83                     84
                      A                      A                      A
 Frequencies --   3642.4314              3648.1135              3749.6819
 Red. masses --      1.0783                 1.0810                 1.0642
 Frc consts  --      8.4290                 8.4767                 8.8158
 IR Inten    --     27.1815               120.4475                74.5169

 - Thermochemistry -
 -------------------
 Temperature   298.150 Kelvin.  Pressure   1.00000 Atm.
 Atom     1 has atomic number  8 and mass  15.99491

 Molecular mass:   226.10659 amu.
 Principal axes and moments of inertia in atomic units:
                           1         2         3
     Eigenvalues --  1265.608007870.605338552.94691
           X            0.99622   0.04614   0.07363
           Y           -0.08503   0.34333   0.93536
           Z           -0.01788   0.93808  -0.34596
 This molecule is an asymmetric top.
 Rotational symmetry number  1.
 Warning -- assumption of classical behavior for rotation
           may cause significant error
 Rotational temperatures (Kelvin)      0.06844     0.01100     0.01013
 Rotational constants (GHZ):           1.42599     0.22930     0.21101
 Zero-point vibrational energy     641879.9 (Joules/Mol)
                                  153.41297 (Kcal/Mol)
 Warning -- explicit consideration of  23 degrees of freedom as
           vibrations may cause significant error
 Vibrational temperatures:     21.70    33.23    51.84    76.50    99.56
          (Kelvin)            128.95   140.14   188.90   212.66   276.60
                              316.99   408.98   442.22   442.77   488.06
                              530.50   561.31   625.80   638.99   747.13
                              792.16   852.93   885.18   972.70   991.21
                              998.08  1054.59  1069.47  1113.29  1120.81
                             1165.79  1201.65  1213.02  1231.80  1315.18
                             1360.59  1395.36  1425.73  1452.18  1485.32
                             1511.50  1564.12  1590.88  1601.92  1636.46
                             1648.19  1670.96  1726.75  1802.38  1813.28
                             1829.63  1859.26  1875.34  1908.42  1913.21
                             1944.60  1984.27  1991.94  2006.13  2010.96
                             2055.92  2133.75  2139.71  2157.41  2165.36
                             2191.16  2313.64  2397.60  2519.53  2640.04
                             4357.85  4381.13  4400.11  4424.13  4426.52
                             4459.48  4485.00  4643.36  4658.55  5017.42
                             5128.49  5240.64  5248.82  5394.95

 Zero-point correction=                           0.244479 (Hartree/Particle)
 Thermal correction to Energy=                    0.260666
 Thermal correction to Enthalpy=                  0.261610
 Thermal correction to Gibbs Free Energy=         0.197369
 Sum of electronic and zero-point Energies=           -796.116422
 Sum of electronic and thermal Energies=              -796.100236
 Sum of electronic and thermal Enthalpies=            -796.099292
 Sum of electronic and thermal Free Energies=         -796.163532

                     E (Thermal)             CV                S
                      KCal/Mol        Cal/Mol-Kelvin    Cal/Mol-Kelvin
 Total                  163.570             58.675            135.206
 Electronic               0.000              0.000              0.000
 Translational            0.889              2.981             42.150
 Rotational               0.889              2.981             32.810
 Vibrational            161.793             52.713             60.246
 Vibration     1          0.593              1.986              7.194
 Vibration     2          0.593              1.985              6.348
 Vibration     3          0.594              1.982              5.466
 Vibration     4          0.596              1.976              4.696
 Vibration     5          0.598              1.969              4.176
 Vibration     6          0.602              1.957              3.668
 Vibration     7          0.603              1.951              3.506
 Vibration     8          0.612              1.922              2.927
 Vibration     9          0.617              1.905              2.700
 Vibration    10          0.634              1.851              2.206
 Vibration    11          0.647              1.810              1.956
 Vibration    12          0.683              1.703              1.508
 Vibration    13          0.697              1.660              1.377
 Vibration    14          0.698              1.659              1.374
 Vibration    15          0.719              1.597              1.216
 Vibration    16          0.741              1.537              1.085
 Vibration    17          0.758              1.491              1.000
 Vibration    18          0.796              1.394              0.843
 Vibration    19          0.804              1.374              0.814
 Vibration    20          0.874              1.207              0.612
 Vibration    21          0.906              1.138              0.543
 Vibration    22          0.950              1.047              0.462
 Vibration    23          0.975              1.000              0.424

 Optimization completed.
    -- Stationary point found.
 Normal termination of Gaussian 09 at Sat Jul 24 02:02:42 2021.
