 Gaussian 09, Revision D.01,
 Gaussian 09:  ES64L-G09RevD.01 24-Apr-2013

 ----------------------------------------------------------------------
 # B3LYP/6-311G(d,p) EmpiricalDispersion=GD3BJ opt=calcfc freq=noraman
 nosymm integral(ultrafinegrid)
 ----------------------------------------------------------------------

 ------------------------------------------------------------
 Candidate Structure: Conf:455 OPT and FREQ calc in gas phase
 ------------------------------------------------------------
 Symbolic Z-matrix:
 Charge =  0 Multiplicity = 1

 SCF Done:  E(RB3LYP) =  -796.353638188     A.U. after   14 cycles
 SCF Done:  E(RB3LYP) =  -796.355584534     A.U. after   14 cycles
 SCF Done:  E(RB3LYP) =  -796.355376400     A.U. after   14 cycles
 SCF Done:  E(RB3LYP) =  -796.355719100     A.U. after   11 cycles
 SCF Done:  E(RB3LYP) =  -796.356002887     A.U. after   12 cycles
 SCF Done:  E(RB3LYP) =  -796.356179792     A.U. after   12 cycles
 SCF Done:  E(RB3LYP) =  -796.356224342     A.U. after   11 cycles
 SCF Done:  E(RB3LYP) =  -796.356225771     A.U. after   10 cycles
 SCF Done:  E(RB3LYP) =  -796.356227177     A.U. after   10 cycles
 SCF Done:  E(RB3LYP) =  -796.356227274     A.U. after    8 cycles
 Optimization completed.
    -- Stationary point found.
 Normal termination of Gaussian 09 at Sat Jul 24 01:34:17 2021.

 ----------------------------------------------------------------------
 #N Geom=AllCheck Guess=TCheck SCRF=Check GenChk RB3LYP/6-311G(d,p) Fre
 q
 ----------------------------------------------------------------------

 Structure from the checkpoint file:  "conf-455.chk"
 ------------------------------------------------------------
 Candidate Structure: Conf:455 OPT and FREQ calc in gas phase
 ------------------------------------------------------------
 Charge =  0 Multiplicity = 1

                          Input orientation:
 ---------------------------------------------------------------------
 Center     Atomic      Atomic             Coordinates (Angstroms)
 Number     Number       Type             X           Y           Z
 ---------------------------------------------------------------------
      1          8           0        0.411991   -0.804848   -1.180162
      2          6           0        1.029170   -0.476825   -0.171921
      3          7           0        0.538443   -0.676362    1.082639
      4          6           0       -0.587532   -1.544065    1.367525
      5          6           0       -0.162737   -3.020306    1.200997
      6          8           0       -1.162851   -3.930465    1.283455
      7          8           0        0.971028   -3.368529    1.053452
      8          6           0       -1.883862   -1.196838    0.578955
      9          6           0       -2.175698    0.262784    0.502639
     10          6           0       -2.898454    1.117023    1.301273
     11          7           0       -2.852603    2.402296    0.810025
     12          6           0       -2.112962    2.332901   -0.275311
     13          7           0       -1.681934    1.059875   -0.509239
     14          6           0        2.348855    0.262736   -0.256609
     15          6           0        2.227687    1.509126   -1.159831
     16          7           0        3.460167    2.257492   -1.372627
     17          1           0        1.166604   -0.500174    1.849558
     18          1           0       -0.812596   -1.405227    2.429811
     19          1           0       -2.019900   -3.495613    1.361136
     20          1           0       -2.728903   -1.676014    1.085676
     21          1           0       -1.812978   -1.615042   -0.424474
     22          1           0       -3.455823    0.875827    2.194020
     23          1           0       -1.865557    3.156779   -0.926647
     24          1           0       -1.066807    0.723051   -1.238875
     25          1           0        2.715029    0.552120    0.733370
     26          1           0        3.077812   -0.429311   -0.690168
     27          1           0        1.839414    1.190507   -2.129117
     28          1           0        1.484993    2.188730   -0.729397
     29          1           0        3.845324    2.578719   -0.489975
     30          1           0        4.164588    1.669551   -1.807223
 ---------------------------------------------------------------------

 SCF Done:  E(RB3LYP) =  -796.356227274     A.U. after    1 cycles

 Alpha  occ. eigenvalues --  -19.18344 -19.12138 -19.10575 -14.36301 -14.36282
 Alpha  occ. eigenvalues --  -14.29885 -14.28756 -10.31917 -10.29347 -10.25832
 Alpha  occ. eigenvalues --  -10.22154 -10.21419 -10.20911 -10.20824 -10.19298
 Alpha  occ. eigenvalues --  -10.18258  -1.12421  -1.06417  -1.04420  -1.01641
 Alpha  occ. eigenvalues --   -0.95586  -0.89671  -0.87248  -0.82283  -0.77508
 Alpha  occ. eigenvalues --   -0.74515  -0.69008  -0.65217  -0.63441  -0.61622
 Alpha  occ. eigenvalues --   -0.60771  -0.59443  -0.56710  -0.54000  -0.53881
 Alpha  occ. eigenvalues --   -0.51927  -0.49479  -0.47867  -0.46881  -0.46145
 Alpha  occ. eigenvalues --   -0.45706  -0.44216  -0.43985  -0.43117  -0.42403
 Alpha  occ. eigenvalues --   -0.41971  -0.41239  -0.41098  -0.40218  -0.39476
 Alpha  occ. eigenvalues --   -0.38133  -0.35981  -0.34019  -0.30268  -0.29107
 Alpha  occ. eigenvalues --   -0.28417  -0.28151  -0.26883  -0.24912  -0.23214
 Alpha virt. eigenvalues --   -0.01610  -0.01000  -0.00112   0.01983   0.02182
 Alpha virt. eigenvalues --    0.03394   0.04775   0.05642   0.06225   0.06998
 Alpha virt. eigenvalues --    0.08082   0.09450   0.10231   0.10670   0.11615

 Mulliken charges:
               1
     1  O   -0.420319
     2  C    0.374818
     3  N   -0.368243
     4  C   -0.112396
     5  C    0.403289
     6  O   -0.290297
     7  O   -0.300293
     8  C   -0.221995
     9  C    0.088489
    10  C   -0.071107
    11  N   -0.299154
    12  C    0.148526
    13  N   -0.359331
    14  C   -0.237505
    15  C   -0.118529
    16  N   -0.440987
    17  H    0.229632
    18  H    0.158819
    19  H    0.246965
    20  H    0.107151
    21  H    0.170051
    22  H    0.089438
    23  H    0.110280
    24  H    0.249362
    25  H    0.095221
    26  H    0.141034
    27  H    0.135121
    28  H    0.119497
    29  H    0.184405
    30  H    0.188060
 Sum of Mulliken charges =   0.00000

 Dipole moment (field-independent basis, Debye):
    X=              1.1953    Y=             -0.3168    Z=              1.9975  Tot=              2.3493
 Quadrupole moment (field-independent basis, Debye-Ang):
   XX=            -90.5189   YY=           -118.0778   ZZ=            -90.2356
   XY=             17.3719   XZ=              1.9236   YZ=             -3.8902

  Exact polarizability: 135.269   0.441 140.361 -17.687 -13.333 111.726
 Approx polarizability: 190.535  -3.645 197.871 -23.266  -4.889 190.497

                      1                      2                      3
                      A                      A                      A
 Frequencies --     15.7349                30.1816                51.0851
 Red. masses --      4.6490                 4.6723                 4.0696
 Frc consts  --      0.0007                 0.0025                 0.0063
 IR Inten    --      0.6640                 2.8537                 9.7666

                      4                      5                      6
                      A                      A                      A
 Frequencies --     63.0738                74.9794                90.7004
 Red. masses --      4.1957                 5.4136                 3.4249
 Frc consts  --      0.0098                 0.0179                 0.0166
 IR Inten    --      3.5541                 7.5254                 1.6478

                      7                      8                      9
                      A                      A                      A
 Frequencies --     92.7806               132.9398               162.6962
 Red. masses --      3.1756                 5.2590                 5.2397
 Frc consts  --      0.0161                 0.0548                 0.0817
 IR Inten    --      0.9455                 8.4823                12.1086

                     10                     11                     12
                      A                      A                      A
 Frequencies --    198.0971               214.9057               287.3095
 Red. masses --      5.7885                 5.4085                 5.7077
 Frc consts  --      0.1338                 0.1472                 0.2776
 IR Inten    --      6.5607                 9.4601                 6.6716

                     13                     14                     15
                      A                      A                      A
 Frequencies --    306.3736               329.2769               342.4919
 Red. masses --      1.1146                 4.0962                 5.2574
 Frc consts  --      0.0616                 0.2617                 0.3633
 IR Inten    --     40.6910                 0.6204                21.2634

                     16                     17                     18
                      A                      A                      A
 Frequencies --    346.6497               400.8322               410.3729
 Red. masses --      2.3345                 3.4038                 2.7082
 Frc consts  --      0.1653                 0.3222                 0.2687
 IR Inten    --      3.2030                16.1501                23.8024

                     19                     20                     21
                      A                      A                      A
 Frequencies --    473.7166               505.6840               529.6014
 Red. masses --      1.3219                 1.3924                 4.2123
 Frc consts  --      0.1748                 0.2098                 0.6961
 IR Inten    --     55.5401                57.3205                 6.0420

                     22                     23                     24
                      A                      A                      A
 Frequencies --    606.0534               641.3143               667.0299
 Red. masses --      4.0104                 2.9779                 3.9667
 Frc consts  --      0.8679                 0.7216                 1.0399
 IR Inten    --     11.5752                42.5464                15.3477

                     25                     26                     27
                      A                      A                      A
 Frequencies --    679.6260               710.0826               738.1581
 Red. masses --      3.8705                 3.9087                 1.2060
 Frc consts  --      1.0533                 1.1612                 0.3872
 IR Inten    --     29.6020                 0.5783                76.0316

                     28                     29                     30
                      A                      A                      A
 Frequencies --    762.0965               773.0826               788.4960
 Red. masses --      5.2230                 1.3446                 2.6212
 Frc consts  --      1.7873                 0.4735                 0.9602
 IR Inten    --      7.0642                 2.5719                 1.4127

                     31                     32                     33
                      A                      A                      A
 Frequencies --    818.5761               835.2974               840.4311
 Red. masses --      1.4224                 1.6648                 1.4915
 Frc consts  --      0.5615                 0.6844                 0.6207
 IR Inten    --     26.9089                75.4614               177.7621

                     34                     35                     36
                      A                      A                      A
 Frequencies --    865.4434               925.0098               936.4223
 Red. masses --      2.9075                 2.7009                 4.2722
 Frc consts  --      1.2831                 1.3616                 2.2072
 IR Inten    --      7.4302                 3.6330                10.0083

                     37                     38                     39
                      A                      A                      A
 Frequencies --    951.6580               984.4060              1023.4284
 Red. masses --      5.0803                 1.4035                 4.5562
 Frc consts  --      2.7108                 0.8013                 2.8117
 IR Inten    --     14.4811                 0.8163                57.9118

                     40                     41                     42
                      A                      A                      A
 Frequencies --   1031.9506              1041.0738              1100.0879
 Red. masses --      3.4504                 3.1298                 2.3003
 Frc consts  --      2.1649                 1.9986                 1.6402
 IR Inten    --     19.9327                 7.2144                17.9115

                     43                     44                     45
                      A                      A                      A
 Frequencies --   1114.6943              1120.5862              1145.9292
 Red. masses --      2.2635                 1.6110                 2.1811
 Frc consts  --      1.6571                 1.1919                 1.6875
 IR Inten    --      6.4597                29.9169                 8.9938

                     46                     47                     48
                      A                      A                      A
 Frequencies --   1152.8577              1173.0674              1206.7503
 Red. masses --      2.0944                 2.1655                 1.4611
 Frc consts  --      1.6401                 1.7557                 1.2536
 IR Inten    --     31.5202                 1.8884                 6.9744

                     49                     50                     51
                      A                      A                      A
 Frequencies --   1251.6158              1262.8129              1273.8187
 Red. masses --      1.7290                 2.1191                 1.5045
 Frc consts  --      1.5958                 1.9911                 1.4383
 IR Inten    --    125.6939                15.8672                11.9328

                     52                     53                     54
                      A                      A                      A
 Frequencies --   1295.1436              1297.8656              1308.8055
 Red. masses --      1.3186                 1.4006                 1.6696
 Frc consts  --      1.3031                 1.3900                 1.6850
 IR Inten    --     24.3950               165.4643               208.2634

                     55                     56                     57
                      A                      A                      A
 Frequencies --   1349.0171              1363.0409              1386.8751
 Red. masses --      1.4408                 1.4644                 1.2844
 Frc consts  --      1.5449                 1.6030                 1.4556
 IR Inten    --     11.5312                20.4060                27.8262

                     58                     59                     60
                      A                      A                      A
 Frequencies --   1389.1763              1395.7666              1405.3041
 Red. masses --      1.4803                 1.2171                 2.5855
 Frc consts  --      1.6831                 1.3970                 3.0084
 IR Inten    --     13.8871                10.7115                18.5455

                     61                     62                     63
                      A                      A                      A
 Frequencies --   1436.8637              1473.1570              1477.9690
 Red. masses --      2.9700                 1.1182                 1.1382
 Frc consts  --      3.6128                 1.4297                 1.4648
 IR Inten    --     23.2449                 6.5360                16.9906

                     64                     65                     66
                      A                      A                      A
 Frequencies --   1496.9086              1508.0595              1551.8173
 Red. masses --      3.3696                 1.0914                 1.8928
 Frc consts  --      4.4486                 1.4624                 2.6856
 IR Inten    --     26.0430                 3.8413               192.5218

                     67                     68                     69
                      A                      A                      A
 Frequencies --   1608.4486              1667.0586              1730.7256
 Red. masses --      4.4250                 1.0904                 7.8765
 Frc consts  --      6.7450                 1.7854                13.9008
 IR Inten    --      8.5504                29.7069               168.6483

                     70                     71                     72
                      A                      A                      A
 Frequencies --   1865.7465              3021.5032              3027.6307
 Red. masses --     10.9259                 1.0706                 1.0595
 Frc consts  --     22.4086                 5.7585                 5.7220
 IR Inten    --    247.9386                39.1762                 5.1039

                     73                     74                     75
                      A                      A                      A
 Frequencies --   3035.0398              3044.8150              3069.0573
 Red. masses --      1.0663                 1.0823                 1.0986
 Frc consts  --      5.7868                 5.9119                 6.0970
 IR Inten    --     40.0812                14.8893                 4.9156

                     76                     77                     78
                      A                      A                      A
 Frequencies --   3095.2082              3114.3081              3223.9486
 Red. masses --      1.1031                 1.0934                 1.0964
 Frc consts  --      6.2266                 6.2479                 6.7142
 IR Inten    --     25.6769                 3.3343                 8.4449

                     79                     80                     81
                      A                      A                      A
 Frequencies --   3241.2197              3489.2740              3566.6801
 Red. masses --      1.0979                 1.0485                 1.0935
 Frc consts  --      6.7958                 7.5209                 8.1962
 IR Inten    --      0.9351                 0.3511                 0.0991

                     82                     83                     84
                      A                      A                      A
 Frequencies --   3582.5402              3642.2113              3810.8397
 Red. masses --      1.0828                 1.0777                 1.0657
 Frc consts  --      8.1884                 8.4232                 9.1183
 IR Inten    --    142.1143                33.4716                52.3874

 - Thermochemistry -
 -------------------
 Temperature   298.150 Kelvin.  Pressure   1.00000 Atm.
 Atom     1 has atomic number  8 and mass  15.99491

 Molecular mass:   226.10659 amu.
 Principal axes and moments of inertia in atomic units:
                           1         2         3
     Eigenvalues --  3400.225163934.675876745.48067
           X            0.43285   0.85913   0.27303
           Y            0.81993  -0.50108   0.27684
           Z           -0.37465  -0.10404   0.92131
 This molecule is an asymmetric top.
 Rotational symmetry number  1.
 Warning -- assumption of classical behavior for rotation
           may cause significant error
 Rotational temperatures (Kelvin)      0.02547     0.02201     0.01284
 Rotational constants (GHZ):           0.53077     0.45868     0.26755
 Zero-point vibrational energy     642713.8 (Joules/Mol)
                                  153.61230 (Kcal/Mol)
 Warning -- explicit consideration of  22 degrees of freedom as
           vibrations may cause significant error
 Vibrational temperatures:     22.64    43.42    73.50    90.75   107.88
          (Kelvin)            130.50   133.49   191.27   234.08   285.02
                              309.20   413.37   440.80   473.76   492.77
                              498.75   576.71   590.43   681.57   727.57
                              761.98   871.97   922.71   959.71   977.83
                             1021.65  1062.04  1096.49  1112.29  1134.47
                             1177.75  1201.81  1209.19  1245.18  1330.88
                             1347.30  1369.22  1416.34  1472.48  1484.74
                             1497.87  1582.78  1603.79  1612.27  1648.73
                             1658.70  1687.78  1736.24  1800.79  1816.90
                             1832.74  1863.42  1867.34  1883.08  1940.93
                             1961.11  1995.40  1998.71  2008.19  2021.92
                             2067.32  2119.54  2126.47  2153.71  2169.76
                             2232.72  2314.20  2398.52  2490.12  2684.39
                             4347.26  4356.08  4366.74  4380.80  4415.68
                             4453.31  4480.79  4638.54  4663.39  5020.28
                             5131.65  5154.47  5240.32  5482.94

 Zero-point correction=                           0.244797 (Hartree/Particle)
 Thermal correction to Energy=                    0.260844
 Thermal correction to Enthalpy=                  0.261789
 Thermal correction to Gibbs Free Energy=         0.198502
 Sum of electronic and zero-point Energies=           -796.111430
 Sum of electronic and thermal Energies=              -796.095383
 Sum of electronic and thermal Enthalpies=            -796.094439
 Sum of electronic and thermal Free Energies=         -796.157725

                     E (Thermal)             CV                S
                      KCal/Mol        Cal/Mol-Kelvin    Cal/Mol-Kelvin
 Total                  163.682             58.475            133.198
 Electronic               0.000              0.000              0.000
 Translational            0.889              2.981             42.150
 Rotational               0.889              2.981             32.867
 Vibrational            161.905             52.514             58.181
 Vibration     1          0.593              1.986              7.111
 Vibration     2          0.594              1.984              5.817
 Vibration     3          0.595              1.977              4.775
 Vibration     4          0.597              1.972              4.359
 Vibration     5          0.599              1.966              4.018
 Vibration     6          0.602              1.956              3.645
 Vibration     7          0.602              1.954              3.601
 Vibration     8          0.613              1.920              2.903
 Vibration     9          0.623              1.888              2.518
 Vibration    10          0.637              1.843              2.151
 Vibration    11          0.645              1.818              2.002
 Vibration    12          0.684              1.697              1.490
 Vibration    13          0.697              1.662              1.382
 Vibration    14          0.712              1.617              1.264
 Vibration    15          0.722              1.591              1.201
 Vibration    16          0.725              1.582              1.181
 Vibration    17          0.767              1.468              0.960
 Vibration    18          0.775              1.448              0.925
 Vibration    19          0.831              1.308              0.727
 Vibration    20          0.861              1.237              0.644
 Vibration    21          0.885              1.185              0.588
 Vibration    22          0.965              1.019              0.439

 Optimization completed.
    -- Stationary point found.
 Normal termination of Gaussian 09 at Sat Jul 24 02:08:37 2021.
