 Gaussian 09, Revision D.01,
 Gaussian 09:  ES64L-G09RevD.01 24-Apr-2013

 ----------------------------------------------------------------------
 # B3LYP/6-311G(d,p) EmpiricalDispersion=GD3BJ opt=calcfc freq=noraman
 nosymm integral(ultrafinegrid)
 ----------------------------------------------------------------------

 ------------------------------------------------------------
 Candidate Structure: Conf:640 OPT and FREQ calc in gas phase
 ------------------------------------------------------------
 Symbolic Z-matrix:
 Charge =  0 Multiplicity = 1

 SCF Done:  E(RB3LYP) =  -796.368014403     A.U. after   14 cycles
 SCF Done:  E(RB3LYP) =  -796.369691696     A.U. after   12 cycles
 SCF Done:  E(RB3LYP) =  -796.370178864     A.U. after   13 cycles
 SCF Done:  E(RB3LYP) =  -796.369605089     A.U. after   12 cycles
 SCF Done:  E(RB3LYP) =  -796.370191785     A.U. after   10 cycles
 SCF Done:  E(RB3LYP) =  -796.370242142     A.U. after   11 cycles
 SCF Done:  E(RB3LYP) =  -796.370280208     A.U. after   11 cycles
 SCF Done:  E(RB3LYP) =  -796.370298845     A.U. after   11 cycles
 SCF Done:  E(RB3LYP) =  -796.370309507     A.U. after   10 cycles
 SCF Done:  E(RB3LYP) =  -796.370310007     A.U. after    9 cycles
 SCF Done:  E(RB3LYP) =  -796.370310051     A.U. after    7 cycles
 Optimization completed.
    -- Stationary point found.
 Normal termination of Gaussian 09 at Sat Jul 24 01:34:48 2021.

 ----------------------------------------------------------------------
 #N Geom=AllCheck Guess=TCheck SCRF=Check GenChk RB3LYP/6-311G(d,p) Fre
 q
 ----------------------------------------------------------------------

 Structure from the checkpoint file:  "conf-640.chk"
 ------------------------------------------------------------
 Candidate Structure: Conf:640 OPT and FREQ calc in gas phase
 ------------------------------------------------------------
 Charge =  0 Multiplicity = 1

                          Input orientation:
 ---------------------------------------------------------------------
 Center     Atomic      Atomic             Coordinates (Angstroms)
 Number     Number       Type             X           Y           Z
 ---------------------------------------------------------------------
      1          8           0        0.931392   -1.244517   -1.213598
      2          6           0        1.173202   -0.132169   -0.747797
      3          7           0        0.270494    0.882991   -0.786790
      4          6           0       -0.992680    0.757177   -1.479012
      5          6           0       -1.203519    1.993407   -2.333426
      6          8           0       -2.205916    1.820534   -3.214196
      7          8           0       -0.587034    3.022010   -2.216616
      8          6           0       -2.215876    0.580134   -0.535490
      9          6           0       -2.026853   -0.432052    0.545489
     10          6           0       -2.478813   -0.448114    1.843578
     11          7           0       -2.117163   -1.616509    2.476182
     12          6           0       -1.446666   -2.300338    1.576440
     13          7           0       -1.379454   -1.642163    0.380879
     14          6           0        2.464401    0.152249   -0.015723
     15          6           0        2.549404   -0.706991    1.269967
     16          7           0        3.779043   -0.563800    2.037625
     17          1           0        0.547995    1.812804   -0.509809
     18          1           0       -0.917147   -0.115100   -2.130675
     19          1           0       -2.317531    2.657623   -3.690065
     20          1           0       -3.074068    0.334001   -1.169206
     21          1           0       -2.441183    1.538120   -0.057567
     22          1           0       -3.052573    0.313361    2.350018
     23          1           0       -0.985166   -3.263869    1.727798
     24          1           0       -0.753964   -1.868520   -0.387430
     25          1           0        2.560825    1.212695    0.236939
     26          1           0        3.290288   -0.115963   -0.680465
     27          1           0        1.704901   -0.462033    1.920863
     28          1           0        2.431364   -1.754587    0.986123
     29          1           0        3.905963    0.395520    2.344037
     30          1           0        4.586414   -0.806028    1.471879
 ---------------------------------------------------------------------

 SCF Done:  E(RB3LYP) =  -796.370310051     A.U. after    1 cycles

 Alpha  occ. eigenvalues --  -19.19580 -19.13980 -19.10418 -14.35964 -14.35162
 Alpha  occ. eigenvalues --  -14.29551 -14.27866 -10.33246 -10.29167 -10.24996
 Alpha  occ. eigenvalues --  -10.21160 -10.20513 -10.20434 -10.20043 -10.19071
 Alpha  occ. eigenvalues --  -10.17261  -1.14267  -1.06219  -1.05327  -1.00614
 Alpha  occ. eigenvalues --   -0.95381  -0.89327  -0.86308  -0.81954  -0.77203
 Alpha  occ. eigenvalues --   -0.74694  -0.68542  -0.65906  -0.62542  -0.61593
 Alpha  occ. eigenvalues --   -0.60063  -0.58417  -0.55147  -0.52505  -0.52365
 Alpha  occ. eigenvalues --   -0.51526  -0.50313  -0.49441  -0.48424  -0.46872
 Alpha  occ. eigenvalues --   -0.45252  -0.44613  -0.43366  -0.42741  -0.42411
 Alpha  occ. eigenvalues --   -0.41521  -0.40944  -0.40358  -0.39681  -0.38956
 Alpha  occ. eigenvalues --   -0.37578  -0.35684  -0.35487  -0.31528  -0.28903
 Alpha  occ. eigenvalues --   -0.28390  -0.27436  -0.26037  -0.24604  -0.22229
 Alpha virt. eigenvalues --   -0.02341  -0.00545   0.01440   0.02745   0.02836
 Alpha virt. eigenvalues --    0.04453   0.05503   0.06204   0.06898   0.07462
 Alpha virt. eigenvalues --    0.07753   0.10000   0.10493   0.10987   0.11877

 Mulliken charges:
               1
     1  O   -0.430031
     2  C    0.375138
     3  N   -0.371132
     4  C   -0.116096
     5  C    0.363376
     6  O   -0.314031
     7  O   -0.331298
     8  C   -0.120051
     9  C    0.065211
    10  C   -0.067355
    11  N   -0.302209
    12  C    0.146121
    13  N   -0.366928
    14  C   -0.233179
    15  C   -0.109589
    16  N   -0.439513
    17  H    0.237256
    18  H    0.172172
    19  H    0.261668
    20  H    0.150916
    21  H    0.119283
    22  H    0.089272
    23  H    0.106803
    24  H    0.247399
    25  H    0.098206
    26  H    0.130418
    27  H    0.134120
    28  H    0.133476
    29  H    0.184422
    30  H    0.186154
 Sum of Mulliken charges =   0.00000

 Dipole moment (field-independent basis, Debye):
    X=              1.1462    Y=              3.4881    Z=             -3.7645  Tot=              5.2585
 Quadrupole moment (field-independent basis, Debye-Ang):
   XX=            -88.4138   YY=            -95.2614   ZZ=           -103.2374
   XY=             -5.0259   XZ=             10.3791   YZ=              3.5819

  Exact polarizability: 131.469 -10.077 130.035   7.102 -19.694 129.393
 Approx polarizability: 175.452 -13.786 211.685   1.184  -6.005 193.272

                      1                      2                      3
                      A                      A                      A
 Frequencies --     17.1520                24.4511                54.2285
 Red. masses --      4.9093                 3.5982                 6.4224
 Frc consts  --      0.0009                 0.0013                 0.0111
 IR Inten    --      1.0053                 2.2390                 2.8883

                      4                      5                      6
                      A                      A                      A
 Frequencies --     63.1503                71.5418                86.2513
 Red. masses --      5.6942                 4.9638                 1.9208
 Frc consts  --      0.0134                 0.0150                 0.0084
 IR Inten    --      0.4024                 4.4192                 2.0258

                      7                      8                      9
                      A                      A                      A
 Frequencies --    100.3340               145.2909               167.8453
 Red. masses --      6.1236                 5.1723                 6.6448
 Frc consts  --      0.0363                 0.0643                 0.1103
 IR Inten    --      0.6773                 8.7670                 8.2593

                     10                     11                     12
                      A                      A                      A
 Frequencies --    182.2804               201.7053               271.2018
 Red. masses --      4.5880                 4.9458                 5.0819
 Frc consts  --      0.0898                 0.1186                 0.2202
 IR Inten    --     13.9891                11.5578                 1.4908

                     13                     14                     15
                      A                      A                      A
 Frequencies --    298.4536               308.6956               322.3246
 Red. masses --      2.5185                 1.2526                 5.7055
 Frc consts  --      0.1322                 0.0703                 0.3492
 IR Inten    --      8.5341                33.7174                 2.9052

                     16                     17                     18
                      A                      A                      A
 Frequencies --    342.8331               393.3923               455.4461
 Red. masses --      3.5077                 3.6874                 3.6644
 Frc consts  --      0.2429                 0.3362                 0.4478
 IR Inten    --      5.0892                 2.4915                 8.2898

                     19                     20                     21
                      A                      A                      A
 Frequencies --    517.4605               527.9325               603.7451
 Red. masses --      1.2971                 3.0775                 1.3643
 Frc consts  --      0.2046                 0.5054                 0.2930
 IR Inten    --     56.1979                45.3510                89.3498

                     22                     23                     24
                      A                      A                      A
 Frequencies --    628.9632               633.0858               659.8493
 Red. masses --      3.3446                 3.6177                 3.6813
 Frc consts  --      0.7795                 0.8543                 0.9444
 IR Inten    --     15.7110                40.2234                43.7255

                     25                     26                     27
                      A                      A                      A
 Frequencies --    677.0352               706.4540               721.6130
 Red. masses --      3.4303                 2.9748                 1.2803
 Frc consts  --      0.9264                 0.8747                 0.3928
 IR Inten    --     39.3387                29.9885               113.9462

                     28                     29                     30
                      A                      A                      A
 Frequencies --    758.5761               777.4933               787.3312
 Red. masses --      5.6781                 1.1715                 4.1901
 Frc consts  --      1.9251                 0.4172                 1.5303
 IR Inten    --      1.7224                 1.8517                14.7680

                     31                     32                     33
                      A                      A                      A
 Frequencies --    816.7099               833.5781               838.0407
 Red. masses --      1.4148                 1.4766                 1.3715
 Frc consts  --      0.5560                 0.6045                 0.5675
 IR Inten    --     18.4871               215.5458                36.9554

                     34                     35                     36
                      A                      A                      A
 Frequencies --    897.7770               934.9121               948.0658
 Red. masses --      2.0927                 4.6513                 5.4933
 Frc consts  --      0.9938                 2.3953                 2.9091
 IR Inten    --      2.4449                 1.0252                19.8721

                     37                     38                     39
                      A                      A                      A
 Frequencies --    981.5837               996.5577              1008.8053
 Red. masses --      1.4003                 3.2811                 4.7287
 Frc consts  --      0.7949                 1.9199                 2.8354
 IR Inten    --      6.2888                15.4265                71.8388

                     40                     41                     42
                      A                      A                      A
 Frequencies --   1024.0560              1046.1245              1103.2429
 Red. masses --      3.6617                 3.1316                 2.2884
 Frc consts  --      2.2625                 2.0192                 1.6410
 IR Inten    --     16.9820                 6.5313                 6.5132

                     43                     44                     45
                      A                      A                      A
 Frequencies --   1113.3420              1139.7265              1149.5072
 Red. masses --      2.3022                 1.9290                 1.8727
 Frc consts  --      1.6813                 1.4764                 1.4580
 IR Inten    --     35.1715                23.5860                16.0139

                     46                     47                     48
                      A                      A                      A
 Frequencies --   1150.2850              1183.4758              1229.0078
 Red. masses --      2.0598                 2.0882                 1.5570
 Frc consts  --      1.6058                 1.7232                 1.3857
 IR Inten    --    140.2862                89.9321                15.8349

                     49                     50                     51
                      A                      A                      A
 Frequencies --   1250.4477              1261.0078              1276.6206
 Red. masses --      1.5649                 2.0689                 1.4351
 Frc consts  --      1.4416                 1.9383                 1.3780
 IR Inten    --     12.6559                 5.1771                10.6939

                     52                     53                     54
                      A                      A                      A
 Frequencies --   1285.8168              1295.7789              1329.9854
 Red. masses --      1.3873                 1.3185                 1.3840
 Frc consts  --      1.3514                 1.3044                 1.4424
 IR Inten    --     16.4654                 9.2235                 8.9012

                     55                     56                     57
                      A                      A                      A
 Frequencies --   1352.4770              1370.5583              1383.3347
 Red. masses --      1.8202                 1.4293                 1.2395
 Frc consts  --      1.9617                 1.5818                 1.3975
 IR Inten    --      0.1167                11.0648                13.7085

                     58                     59                     60
                      A                      A                      A
 Frequencies --   1393.2349              1396.3025              1405.4462
 Red. masses --      2.6419                 1.1996                 2.5666
 Frc consts  --      3.0215                 1.3780                 2.9870
 IR Inten    --      5.7884                16.6850               184.9237

                     61                     62                     63
                      A                      A                      A
 Frequencies --   1454.8910              1480.3134              1482.9303
 Red. masses --      2.1794                 1.1331                 1.2360
 Frc consts  --      2.7180                 1.4629                 1.6015
 IR Inten    --     31.9533                 4.5325                21.9661

                     64                     65                     66
                      A                      A                      A
 Frequencies --   1500.6633              1505.3721              1547.1371
 Red. masses --      2.8168                 1.0921                 2.1380
 Frc consts  --      3.7374                 1.4581                 3.0152
 IR Inten    --     13.7739                 6.4262               244.9753

                     67                     68                     69
                      A                      A                      A
 Frequencies --   1611.4461              1666.3222              1714.3862
 Red. masses --      3.7684                 1.0919                 8.0225
 Frc consts  --      5.7655                 1.7863                13.8924
 IR Inten    --     10.1365                30.2702               197.0633

                     70                     71                     72
                      A                      A                      A
 Frequencies --   1823.8370              3029.1545              3031.7512
 Red. masses --      9.9666                 1.0605                 1.0587
 Frc consts  --     19.5331                 5.7332                 5.7336
 IR Inten    --    270.4865                23.1678                 9.8886

                     73                     74                     75
                      A                      A                      A
 Frequencies --   3044.0373              3064.3142              3075.0170
 Red. masses --      1.0651                 1.0996                 1.0992
 Frc consts  --      5.8150                 6.0833                 6.1240
 IR Inten    --     30.0217                 8.9542                 4.0760

                     76                     77                     78
                      A                      A                      A
 Frequencies --   3090.6306              3098.8402              3225.9430
 Red. masses --      1.0856                 1.1058                 1.0963
 Frc consts  --      6.1097                 6.2565                 6.7217
 IR Inten    --      7.4892                27.4227                 8.7100

                     79                     80                     81
                      A                      A                      A
 Frequencies --   3240.5067              3490.0809              3502.6397
 Red. masses --      1.0979                 1.0484                 1.0841
 Frc consts  --      6.7925                 7.5237                 7.8361
 IR Inten    --      1.0144                 0.2098               244.3987

                     82                     83                     84
                      A                      A                      A
 Frequencies --   3568.1847              3620.4822              3752.0755
 Red. masses --      1.0936                 1.0775                 1.0643
 Frc consts  --      8.2039                 8.3212                 8.8280
 IR Inten    --      0.0309                54.8401                82.8756

 - Thermochemistry -
 -------------------
 Temperature   298.150 Kelvin.  Pressure   1.00000 Atm.
 Atom     1 has atomic number  8 and mass  15.99491

 Molecular mass:   226.10659 amu.
 Principal axes and moments of inertia in atomic units:
                           1         2         3
     Eigenvalues --  3177.162374426.677146659.56675
           X            0.56574   0.82284  -0.05352
           Y           -0.50487   0.39697   0.76650
           Z            0.65195  -0.40662   0.64001
 This molecule is an asymmetric top.
 Rotational symmetry number  1.
 Warning -- assumption of classical behavior for rotation
           may cause significant error
 Rotational temperatures (Kelvin)      0.02726     0.01957     0.01301
 Rotational constants (GHZ):           0.56804     0.40770     0.27100
 Zero-point vibrational energy     643129.7 (Joules/Mol)
                                  153.71168 (Kcal/Mol)
 Warning -- explicit consideration of  21 degrees of freedom as
           vibrations may cause significant error
 Vibrational temperatures:     24.68    35.18    78.02    90.86   102.93
          (Kelvin)            124.10   144.36   209.04   241.49   262.26
                              290.21   390.20   429.41   444.14   463.75
                              493.26   566.00   655.28   744.51   759.58
                              868.65   904.94   910.87   949.37   974.10
                             1016.43  1038.24  1091.42  1118.64  1132.79
                             1175.06  1199.33  1205.75  1291.70  1345.13
                             1364.05  1412.28  1433.82  1451.44  1473.39
                             1505.14  1587.32  1601.85  1639.81  1653.88
                             1655.00  1702.76  1768.27  1799.11  1814.31
                             1836.77  1850.00  1864.33  1913.55  1945.91
                             1971.93  1990.31  2004.55  2008.97  2022.12
                             2093.26  2129.84  2133.60  2159.12  2165.89
                             2225.98  2318.51  2397.46  2466.62  2624.09
                             4358.27  4362.01  4379.69  4408.86  4424.26
                             4446.72  4458.53  4641.41  4662.36  5021.44
                             5039.51  5133.82  5209.06  5398.39

 Zero-point correction=                           0.244955 (Hartree/Particle)
 Thermal correction to Energy=                    0.260963
 Thermal correction to Enthalpy=                  0.261908
 Thermal correction to Gibbs Free Energy=         0.198555
 Sum of electronic and zero-point Energies=           -796.125355
 Sum of electronic and thermal Energies=              -796.109347
 Sum of electronic and thermal Enthalpies=            -796.108403
 Sum of electronic and thermal Free Energies=         -796.171756

                     E (Thermal)             CV                S
                      KCal/Mol        Cal/Mol-Kelvin    Cal/Mol-Kelvin
 Total                  163.757             58.120            133.338
 Electronic               0.000              0.000              0.000
 Translational            0.889              2.981             42.150
 Rotational               0.889              2.981             32.904
 Vibrational            161.979             52.158             58.283
 Vibration     1          0.593              1.986              6.939
 Vibration     2          0.593              1.985              6.235
 Vibration     3          0.596              1.976              4.657
 Vibration     4          0.597              1.972              4.356
 Vibration     5          0.598              1.968              4.110
 Vibration     6          0.601              1.959              3.743
 Vibration     7          0.604              1.949              3.448
 Vibration     8          0.617              1.908              2.733
 Vibration     9          0.625              1.882              2.459
 Vibration    10          0.630              1.864              2.305
 Vibration    11          0.639              1.837              2.117
 Vibration    12          0.675              1.726              1.589
 Vibration    13          0.692              1.677              1.426
 Vibration    14          0.698              1.657              1.369
 Vibration    15          0.707              1.631              1.298
 Vibration    16          0.722              1.590              1.199
 Vibration    17          0.761              1.484              0.987
 Vibration    18          0.814              1.349              0.779
 Vibration    19          0.872              1.211              0.616
 Vibration    20          0.883              1.188              0.592
 Vibration    21          0.962              1.024              0.443

 Optimization completed.
    -- Stationary point found.
 Normal termination of Gaussian 09 at Sat Jul 24 02:08:40 2021.
