 Gaussian 09, Revision D.01,
 Gaussian 09:  ES64L-G09RevD.01 24-Apr-2013

 ----------------------------------------------------------------------
 # B3LYP/6-311G(d,p) EmpiricalDispersion=GD3BJ opt=calcfc freq=noraman
 nosymm integral(ultrafinegrid)
 ----------------------------------------------------------------------

 ------------------------------------------------------------
 Candidate Structure: Conf:900 OPT and FREQ calc in gas phase
 ------------------------------------------------------------
 Symbolic Z-matrix:
 Charge =  0 Multiplicity = 1

 SCF Done:  E(RB3LYP) =  -796.371486469     A.U. after   14 cycles
 SCF Done:  E(RB3LYP) =  -796.372876502     A.U. after   11 cycles
 SCF Done:  E(RB3LYP) =  -796.372985865     A.U. after   12 cycles
 SCF Done:  E(RB3LYP) =  -796.372403592     A.U. after   14 cycles
 SCF Done:  E(RB3LYP) =  -796.373008475     A.U. after   10 cycles
 SCF Done:  E(RB3LYP) =  -796.373016413     A.U. after   10 cycles
 SCF Done:  E(RB3LYP) =  -796.373016913     A.U. after    9 cycles
 SCF Done:  E(RB3LYP) =  -796.373016971     A.U. after    7 cycles
 SCF Done:  E(RB3LYP) =  -796.373016974     A.U. after    6 cycles
 Optimization completed.
    -- Stationary point found.
 Normal termination of Gaussian 09 at Sat Jul 24 01:27:47 2021.

 ----------------------------------------------------------------------
 #N Geom=AllCheck Guess=TCheck SCRF=Check GenChk RB3LYP/6-311G(d,p) Fre
 q
 ----------------------------------------------------------------------

 Structure from the checkpoint file:  "conf-900.chk"
 ------------------------------------------------------------
 Candidate Structure: Conf:900 OPT and FREQ calc in gas phase
 ------------------------------------------------------------
 Charge =  0 Multiplicity = 1

                          Input orientation:
 ---------------------------------------------------------------------
 Center     Atomic      Atomic             Coordinates (Angstroms)
 Number     Number       Type             X           Y           Z
 ---------------------------------------------------------------------
      1          8           0       -0.784490    0.521782   -1.138694
      2          6           0       -1.198668   -0.566571   -0.736673
      3          7           0       -0.423218   -1.419753   -0.032133
      4          6           0        0.968041   -1.149473    0.268746
      5          6           0        1.594561   -2.458770    0.703607
      6          8           0        2.924472   -2.343984    0.842693
      7          8           0        0.983455   -3.475667    0.923269
      8          6           0        1.166961   -0.041599    1.367951
      9          6           0        1.942275    1.134898    0.889777
     10          6           0        3.119487    1.711615    1.302306
     11          7           0        3.427928    2.802621    0.520688
     12          6           0        2.452932    2.883165   -0.359478
     13          7           0        1.524706    1.900740   -0.179716
     14          6           0       -2.615398   -1.045112   -1.011855
     15          6           0       -3.541877    0.102195   -1.405044
     16          7           0       -3.648281    1.059175   -0.299395
     17          1           0       -0.779526   -2.318113    0.265125
     18          1           0        1.477650   -0.819405   -0.639308
     19          1           0        3.257709   -3.200599    1.149404
     20          1           0        0.167048    0.252519    1.698175
     21          1           0        1.679096   -0.459484    2.235599
     22          1           0        3.756742    1.400041    2.115864
     23          1           0        2.367843    3.623684   -1.139850
     24          1           0        0.692063    1.686976   -0.723341
     25          1           0       -3.006684   -1.542934   -0.120284
     26          1           0       -2.567674   -1.789634   -1.815365
     27          1           0       -4.534047   -0.312492   -1.601216
     28          1           0       -3.178113    0.546000   -2.341864
     29          1           0       -2.803999    1.622698   -0.276672
     30          1           0       -4.420858    1.695770   -0.462187
 ---------------------------------------------------------------------

 SCF Done:  E(RB3LYP) =  -796.373016974     A.U. after    1 cycles

 Alpha  occ. eigenvalues --  -19.19446 -19.14089 -19.11009 -14.35742 -14.34469
 Alpha  occ. eigenvalues --  -14.28764 -14.27361 -10.33330 -10.29423 -10.24972
 Alpha  occ. eigenvalues --  -10.20781 -10.20145 -10.20051 -10.19317 -10.19045
 Alpha  occ. eigenvalues --  -10.16837  -1.14316  -1.06466  -1.05399  -1.00125
 Alpha  occ. eigenvalues --   -0.95361  -0.88711  -0.85834  -0.81559  -0.77052
 Alpha  occ. eigenvalues --   -0.74374  -0.68522  -0.66242  -0.61719  -0.60958
 Alpha  occ. eigenvalues --   -0.59983  -0.57879  -0.54339  -0.53480  -0.51938
 Alpha  occ. eigenvalues --   -0.51218  -0.49739  -0.48979  -0.48449  -0.47779
 Alpha  occ. eigenvalues --   -0.45429  -0.44261  -0.43565  -0.42938  -0.41947
 Alpha  occ. eigenvalues --   -0.40175  -0.39872  -0.39564  -0.39383  -0.38629
 Alpha  occ. eigenvalues --   -0.37477  -0.36831  -0.35460  -0.31552  -0.28797
 Alpha  occ. eigenvalues --   -0.28522  -0.26891  -0.25588  -0.24539  -0.21818
 Alpha virt. eigenvalues --   -0.02519  -0.00248   0.01623   0.02847   0.03416
 Alpha virt. eigenvalues --    0.05185   0.06525   0.06795   0.07337   0.07822
 Alpha virt. eigenvalues --    0.08136   0.08885   0.09606   0.10874   0.11626

 Mulliken charges:
               1
     1  O   -0.443953
     2  C    0.419630
     3  N   -0.412240
     4  C   -0.067453
     5  C    0.351276
     6  O   -0.304890
     7  O   -0.337508
     8  C   -0.173520
     9  C    0.071165
    10  C   -0.065574
    11  N   -0.305386
    12  C    0.148640
    13  N   -0.366625
    14  C   -0.249237
    15  C   -0.109061
    16  N   -0.470580
    17  H    0.246165
    18  H    0.185425
    19  H    0.262869
    20  H    0.153832
    21  H    0.137313
    22  H    0.087570
    23  H    0.102346
    24  H    0.259169
    25  H    0.130924
    26  H    0.137630
    27  H    0.110685
    28  H    0.108291
    29  H    0.201496
    30  H    0.191599
 Sum of Mulliken charges =   0.00000

 Dipole moment (field-independent basis, Debye):
    X=             -2.8780    Y=             -3.6155    Z=             -1.0077  Tot=              4.7297
 Quadrupole moment (field-independent basis, Debye-Ang):
   XX=            -98.7548   YY=            -98.3195   ZZ=            -91.4085
   XY=            -18.2099   XZ=              5.4018   YZ=             -4.8340

  Exact polarizability: 146.860  12.629 142.376  19.677 -13.975 104.331
 Approx polarizability: 200.294  25.010 208.014  19.939 -27.672 164.448

                      1                      2                      3
                      A                      A                      A
 Frequencies --      3.5582                32.8026                53.2606
 Red. masses --      3.7578                 6.0919                 4.6598
 Frc consts  --      0.0000                 0.0039                 0.0078
 IR Inten    --      1.1017                 1.0355                 1.3405

                      4                      5                      6
                      A                      A                      A
 Frequencies --     57.9531                78.1964                84.9275
 Red. masses --      8.9623                 5.0444                 5.9852
 Frc consts  --      0.0177                 0.0182                 0.0254
 IR Inten    --      1.0800                 0.8175                 5.5662

                      7                      8                      9
                      A                      A                      A
 Frequencies --    114.8046               135.9817               145.0708
 Red. masses --      4.1907                 4.7328                 4.4672
 Frc consts  --      0.0325                 0.0516                 0.0554
 IR Inten    --      2.2310                 3.9610                 3.8513

                     10                     11                     12
                      A                      A                      A
 Frequencies --    193.8406               248.8720               292.3893
 Red. masses --      4.6112                 2.5589                 2.9500
 Frc consts  --      0.1021                 0.0934                 0.1486
 IR Inten    --      2.4658                30.5620                19.4246

                     13                     14                     15
                      A                      A                      A
 Frequencies --    293.2771               307.0267               322.3163
 Red. masses --      3.2834                 1.3250                 4.1034
 Frc consts  --      0.1664                 0.0736                 0.2512
 IR Inten    --      7.0166                31.4325                 4.4199

                     16                     17                     18
                      A                      A                      A
 Frequencies --    351.8807               405.8903               436.4138
 Red. masses --      5.1233                 3.6125                 2.6460
 Frc consts  --      0.3738                 0.3506                 0.2969
 IR Inten    --      2.5388                 9.3763                29.6943

                     19                     20                     21
                      A                      A                      A
 Frequencies --    533.3839               565.6220               595.2585
 Red. masses --      1.5027                 3.0923                 1.5265
 Frc consts  --      0.2519                 0.5829                 0.3187
 IR Inten    --     63.8531                33.6052                69.0095

                     22                     23                     24
                      A                      A                      A
 Frequencies --    629.5562               634.9245               650.2374
 Red. masses --      2.3685                 3.0479                 2.9532
 Frc consts  --      0.5531                 0.7239                 0.7357
 IR Inten    --     24.1249                16.0833                 0.3198

                     25                     26                     27
                      A                      A                      A
 Frequencies --    677.9172               680.7764               720.6318
 Red. masses --      3.3255                 3.1070                 3.3043
 Frc consts  --      0.9005                 0.8484                 1.0110
 IR Inten    --     40.1335                13.4801                23.7406

                     28                     29                     30
                      A                      A                      A
 Frequencies --    775.0872               781.3797               818.5741
 Red. masses --      4.1487                 1.1018                 1.4356
 Frc consts  --      1.4685                 0.3963                 0.5668
 IR Inten    --     13.7942                32.1623                23.0492

                     31                     32                     33
                      A                      A                      A
 Frequencies --    839.7152               859.8771               872.3143
 Red. masses --      1.4187                 2.4208                 1.7461
 Frc consts  --      0.5894                 1.0546                 0.7828
 IR Inten    --     24.9985                12.8971                83.2991

                     34                     35                     36
                      A                      A                      A
 Frequencies --    893.2520               906.7251               948.9245
 Red. masses --      1.9020                 1.9489                 5.6328
 Frc consts  --      0.8942                 0.9440                 2.9884
 IR Inten    --     12.2324                32.4751                21.4865

                     37                     38                     39
                      A                      A                      A
 Frequencies --    956.8979               983.5464              1023.5189
 Red. masses --      2.6844                 4.2530                 2.8876
 Frc consts  --      1.4482                 2.4240                 1.7823
 IR Inten    --      6.8444                 6.9421                23.3002

                     40                     41                     42
                      A                      A                      A
 Frequencies --   1029.0589              1061.3272              1103.6080
 Red. masses --      3.5866                 2.4595                 2.7571
 Frc consts  --      2.2377                 1.6323                 1.9785
 IR Inten    --      1.2432                16.9850                33.5588

                     43                     44                     45
                      A                      A                      A
 Frequencies --   1128.3955              1132.3360              1146.3356
 Red. masses --      1.8476                 1.7857                 2.0631
 Frc consts  --      1.3860                 1.3490                 1.5973
 IR Inten    --     34.5310                39.5183                 2.3496

                     46                     47                     48
                      A                      A                      A
 Frequencies --   1173.3383              1188.7498              1209.8211
 Red. masses --      1.6335                 2.0992                 1.3521
 Frc consts  --      1.3250                 1.7478                 1.1660
 IR Inten    --    117.9215                91.6349                 6.9296

                     49                     50                     51
                      A                      A                      A
 Frequencies --   1236.7472              1256.5081              1261.7214
 Red. masses --      1.2621                 1.5171                 2.3465
 Frc consts  --      1.1374                 1.4112                 2.2009
 IR Inten    --      8.2353                22.2335                 6.2159

                     52                     53                     54
                      A                      A                      A
 Frequencies --   1274.8290              1291.4086              1329.0883
 Red. masses --      1.4031                 1.3084                 1.3868
 Frc consts  --      1.3436                 1.2856                 1.4433
 IR Inten    --     10.1930                14.4057                 0.2406

                     55                     56                     57
                      A                      A                      A
 Frequencies --   1353.4885              1358.5961              1382.4824
 Red. masses --      1.2566                 1.3929                 1.5536
 Frc consts  --      1.3564                 1.5148                 1.7495
 IR Inten    --      4.4451                28.9950                27.9857

                     58                     59                     60
                      A                      A                      A
 Frequencies --   1389.4855              1421.1168              1425.6601
 Red. masses --      4.1419                 2.2575                 1.4347
 Frc consts  --      4.7115                 2.6862                 1.7181
 IR Inten    --     12.3723                84.4499                21.4405

                     61                     62                     63
                      A                      A                      A
 Frequencies --   1445.0971              1448.7720              1479.0505
 Red. masses --      2.3839                 1.1173                 1.1671
 Frc consts  --      2.9331                 1.3818                 1.5043
 IR Inten    --     74.3982                18.7665                14.7060

                     64                     65                     66
                      A                      A                      A
 Frequencies --   1500.7821              1501.2012              1549.1602
 Red. masses --      1.6985                 1.5660                 2.4353
 Frc consts  --      2.2539                 2.0794                 3.4435
 IR Inten    --      8.4566                19.0114               327.0091

                     67                     68                     69
                      A                      A                      A
 Frequencies --   1614.4338              1657.8470              1718.0631
 Red. masses --      4.2916                 1.1602                 5.6769
 Frc consts  --      6.5904                 1.8787                 9.8727
 IR Inten    --     20.1063                92.1980               164.6390

                     70                     71                     72
                      A                      A                      A
 Frequencies --   1816.8412              2984.4077              3025.9738
 Red. masses --      9.7773                 1.0705                 1.0626
 Frc consts  --     19.0154                 5.6178                 5.7326
 IR Inten    --    297.4535                54.8892                14.4587

                     73                     74                     75
                      A                      A                      A
 Frequencies --   3045.0244              3065.3796              3068.3210
 Red. masses --      1.0652                 1.0920                 1.0837
 Frc consts  --      5.8192                 6.0456                 6.0111
 IR Inten    --     17.3762                35.6883                10.0721

                     76                     77                     78
                      A                      A                      A
 Frequencies --   3077.3985              3099.9079              3228.5064
 Red. masses --      1.0992                 1.0984                 1.0960
 Frc consts  --      6.1333                 6.2190                 6.7307
 IR Inten    --     20.4406                10.5570                10.1372

                     79                     80                     81
                      A                      A                      A
 Frequencies --   3238.2366              3497.4569              3498.9569
 Red. masses --      1.0981                 1.0798                 1.0541
 Frc consts  --      6.7842                 7.7823                 7.6032
 IR Inten    --      1.4102               382.1299                42.9577

                     82                     83                     84
                      A                      A                      A
 Frequencies --   3573.6948              3589.4118              3758.9957
 Red. masses --      1.0927                 1.0778                 1.0644
 Frc consts  --      8.2220                 8.1815                 8.8610
 IR Inten    --      2.2157                86.2598                89.2128

 - Thermochemistry -
 -------------------
 Temperature   298.150 Kelvin.  Pressure   1.00000 Atm.
 Atom     1 has atomic number  8 and mass  15.99491

 Molecular mass:   226.10659 amu.
 Principal axes and moments of inertia in atomic units:
                           1         2         3
     Eigenvalues --  3048.376634790.420377356.13949
           X            0.94326  -0.14612  -0.29819
           Y            0.19365   0.97153   0.13650
           Z            0.26976  -0.18650   0.94469
 This molecule is an asymmetric top.
 Rotational symmetry number  1.
 Warning -- assumption of classical behavior for rotation
           may cause significant error
 Rotational temperatures (Kelvin)      0.02841     0.01808     0.01177
 Rotational constants (GHZ):           0.59203     0.37674     0.24534
 Zero-point vibrational energy     643253.6 (Joules/Mol)
                                  153.74130 (Kcal/Mol)
 Warning -- explicit consideration of  21 degrees of freedom as
           vibrations may cause significant error
 Vibrational temperatures:      5.12    47.20    76.63    83.38   112.51
          (Kelvin)            122.19   165.18   195.65   208.72   278.89
                              358.07   420.68   421.96   441.74   463.74
                              506.28   583.98   627.90   767.42   813.80
                              856.44   905.79   913.51   935.55   975.37
                              979.48  1036.83  1115.18  1124.23  1177.74
                             1208.16  1237.17  1255.06  1285.19  1304.57
                             1365.29  1376.76  1415.10  1472.61  1480.58
                             1527.01  1587.84  1623.51  1629.18  1649.32
                             1688.17  1710.34  1740.66  1779.40  1807.83
                             1815.33  1834.19  1858.05  1912.26  1947.37
                             1954.71  1989.08  1999.16  2044.67  2051.20
                             2079.17  2084.46  2128.02  2159.29  2159.89
                             2228.89  2322.81  2385.27  2471.91  2614.03
                             4293.89  4353.70  4381.11  4410.39  4414.62
                             4427.68  4460.07  4645.09  4659.09  5032.05
                             5034.21  5141.74  5164.36  5408.35

 Zero-point correction=                           0.245002 (Hartree/Particle)
 Thermal correction to Energy=                    0.260896
 Thermal correction to Enthalpy=                  0.261840
 Thermal correction to Gibbs Free Energy=         0.197474
 Sum of electronic and zero-point Energies=           -796.128015
 Sum of electronic and thermal Energies=              -796.112121
 Sum of electronic and thermal Enthalpies=            -796.111177
 Sum of electronic and thermal Free Energies=         -796.175543

                     E (Thermal)             CV                S
                      KCal/Mol        Cal/Mol-Kelvin    Cal/Mol-Kelvin
 Total                  163.714             57.846            135.469
 Electronic               0.000              0.000              0.000
 Translational            0.889              2.981             42.150
 Rotational               0.889              2.981             33.040
 Vibrational            161.937             51.884             60.279
 Vibration     1          0.593              1.987             10.064
 Vibration     2          0.594              1.983              5.652
 Vibration     3          0.596              1.976              4.693
 Vibration     4          0.596              1.974              4.526
 Vibration     5          0.599              1.964              3.936
 Vibration     6          0.601              1.960              3.774
 Vibration     7          0.608              1.937              3.186
 Vibration     8          0.614              1.917              2.860
 Vibration     9          0.616              1.908              2.736
 Vibration    10          0.635              1.848              2.191
 Vibration    11          0.662              1.765              1.739
 Vibration    12          0.688              1.688              1.460
 Vibration    13          0.688              1.686              1.455
 Vibration    14          0.697              1.660              1.378
 Vibration    15          0.707              1.631              1.298
 Vibration    16          0.728              1.571              1.158
 Vibration    17          0.771              1.457              0.941
 Vibration    18          0.797              1.391              0.838
 Vibration    19          0.888              1.176              0.580
 Vibration    20          0.921              1.106              0.513
 Vibration    21          0.953              1.042              0.458

 Optimization completed on the basis of negligible forces.
    -- Stationary point found.
 Normal termination of Gaussian 09 at Sat Jul 24 02:00:03 2021.
