 Gaussian 09, Revision D.01,
 Gaussian 09:  ES64L-G09RevD.01 24-Apr-2013

 ----------------------------------------------------------------------
 # B3LYP/6-311++G(2df,2pd) EmpiricalDispersion=GD3BJ opt=calcfc freq=no
 raman nosymm integral(ultrafinegrid)
 ----------------------------------------------------------------------

 ------------------------------------------------------------
 Candidate Structure: Conf:640 OPT and FREQ calc in gas phase
 ------------------------------------------------------------
 Symbolic Z-matrix:
 Charge =  0 Multiplicity = 1

 SCF Done:  E(RB3LYP) =  -796.437714492     A.U. after   15 cycles
 SCF Done:  E(RB3LYP) =  -796.439677975     A.U. after   14 cycles
 SCF Done:  E(RB3LYP) =  -796.439304729     A.U. after   15 cycles
 SCF Done:  E(RB3LYP) =  -796.439818748     A.U. after   12 cycles
 SCF Done:  E(RB3LYP) =  -796.440058844     A.U. after   13 cycles
 SCF Done:  E(RB3LYP) =  -796.440109585     A.U. after   12 cycles
 SCF Done:  E(RB3LYP) =  -796.440155100     A.U. after   12 cycles
 SCF Done:  E(RB3LYP) =  -796.440159072     A.U. after   11 cycles
 SCF Done:  E(RB3LYP) =  -796.440159207     A.U. after    9 cycles
 SCF Done:  E(RB3LYP) =  -796.440159214     A.U. after    8 cycles
 Optimization completed.
    -- Stationary point found.
 Normal termination of Gaussian 09 at Sat Jul 24 13:06:05 2021.

 ----------------------------------------------------------------------
 #N Geom=AllCheck Guess=TCheck SCRF=Check GenChk RB3LYP/6-311++G(2df,2p
 d) Freq
 ----------------------------------------------------------------------

 Structure from the checkpoint file:  "conf-640.chk"
 ------------------------------------------------------------
 Candidate Structure: Conf:640 OPT and FREQ calc in gas phase
 ------------------------------------------------------------
 Charge =  0 Multiplicity = 1

                          Input orientation:
 ---------------------------------------------------------------------
 Center     Atomic      Atomic             Coordinates (Angstroms)
 Number     Number       Type             X           Y           Z
 ---------------------------------------------------------------------
      1          8           0        0.936452   -1.243398   -1.281571
      2          6           0        1.179103   -0.144710   -0.788167
      3          7           0        0.281030    0.871520   -0.809771
      4          6           0       -0.989245    0.761853   -1.483763
      5          6           0       -1.214565    2.007682   -2.316373
      6          8           0       -2.206741    1.836182   -3.207915
      7          8           0       -0.616294    3.042861   -2.178326
      8          6           0       -2.198219    0.576279   -0.525805
      9          6           0       -1.991121   -0.436276    0.546853
     10          6           0       -2.404153   -0.445150    1.854546
     11          7           0       -2.038437   -1.617647    2.473758
     12          6           0       -1.403509   -2.309622    1.557699
     13          7           0       -1.362998   -1.650927    0.365209
     14          6           0        2.464265    0.121501   -0.045483
     15          6           0        2.487479   -0.674757    1.279225
     16          7           0        3.699063   -0.532327    2.069976
     17          1           0        0.555720    1.785963   -0.490410
     18          1           0       -0.928106   -0.099038   -2.147732
     19          1           0       -2.334239    2.675322   -3.674500
     20          1           0       -3.061406    0.326419   -1.146703
     21          1           0       -2.424595    1.528272   -0.042733
     22          1           0       -2.951584    0.322531    2.375460
     23          1           0       -0.950147   -3.276581    1.695524
     24          1           0       -0.766903   -1.887147   -0.419241
     25          1           0        2.595663    1.185698    0.159077
     26          1           0        3.288867   -0.208723   -0.677919
     27          1           0        1.638123   -0.373766    1.894872
     28          1           0        2.345334   -1.729491    1.046914
     29          1           0        3.853235    0.425610    2.357089
     30          1           0        4.518003   -0.838263    1.560158
 ---------------------------------------------------------------------

 SCF Done:  E(RB3LYP) =  -796.440159214     A.U. after    1 cycles

 Alpha  occ. eigenvalues --  -19.20565 -19.14879 -19.11176 -14.36501 -14.35881
 Alpha  occ. eigenvalues --  -14.30521 -14.28879 -10.33727 -10.29449 -10.25357
 Alpha  occ. eigenvalues --  -10.21809 -10.20865 -10.20797 -10.20568 -10.19226
 Alpha  occ. eigenvalues --  -10.17888  -1.14750  -1.06623  -1.05813  -1.01361
 Alpha  occ. eigenvalues --   -0.95896  -0.89889  -0.86985  -0.82506  -0.77709
 Alpha  occ. eigenvalues --   -0.75265  -0.69132  -0.66416  -0.63078  -0.62072
 Alpha  occ. eigenvalues --   -0.60658  -0.59084  -0.55736  -0.53083  -0.52944
 Alpha  occ. eigenvalues --   -0.52090  -0.50872  -0.49953  -0.49049  -0.47458
 Alpha  occ. eigenvalues --   -0.45862  -0.45211  -0.43928  -0.43357  -0.42967
 Alpha  occ. eigenvalues --   -0.42216  -0.41513  -0.41003  -0.40318  -0.39454
 Alpha  occ. eigenvalues --   -0.38084  -0.36287  -0.36111  -0.32180  -0.29491
 Alpha  occ. eigenvalues --   -0.28996  -0.28245  -0.26902  -0.25359  -0.22972
 Alpha virt. eigenvalues --   -0.03338  -0.02582  -0.01911  -0.00960   0.00024
 Alpha virt. eigenvalues --    0.00268   0.00867   0.01357   0.01605   0.02118
 Alpha virt. eigenvalues --    0.02923   0.03462   0.03765   0.04611   0.04986

 Mulliken charges:
               1
     1  O   -0.392907
     2  C   -0.325896
     3  N    0.225710
     4  C   -0.224463
     5  C    0.302002
     6  O   -0.174608
     7  O   -0.377710
     8  C   -0.700327
     9  C    0.624752
    10  C   -0.208229
    11  N   -0.255196
    12  C    0.037953
    13  N    0.096771
    14  C    0.347897
    15  C   -0.276858
    16  N   -0.161611
    17  H    0.148177
    18  H    0.120886
    19  H    0.231195
    20  H    0.068899
    21  H    0.072557
    22  H    0.073092
    23  H    0.106879
    24  H    0.171036
    25  H    0.026630
    26  H    0.040597
    27  H    0.087678
    28  H    0.087422
    29  H    0.113548
    30  H    0.114124
 Sum of Mulliken charges =   0.00000

 Dipole moment (field-independent basis, Debye):
    X=              0.9379    Y=              3.2583    Z=             -3.6852  Tot=              5.0077
 Quadrupole moment (field-independent basis, Debye-Ang):
   XX=            -88.9762   YY=            -97.1423   ZZ=           -105.8988
   XY=             -5.0986   XZ=             10.5118   YZ=              4.0534

  Exact polarizability: 147.555  -8.964 146.127   8.172 -21.596 148.768
 Approx polarizability: 197.145 -12.757 233.128   2.323  -5.778 217.155

                      1                      2                      3
                      A                      A                      A
 Frequencies --     19.3322                25.5290                51.4852
 Red. masses --      5.4856                 3.3996                 5.5255
 Frc consts  --      0.0012                 0.0013                 0.0086
 IR Inten    --      1.6491                 1.5107                 2.9608

                      4                      5                      6
                      A                      A                      A
 Frequencies --     57.7294                72.0010                84.7242
 Red. masses --      6.5988                 4.9607                 1.8880
 Frc consts  --      0.0130                 0.0152                 0.0080
 IR Inten    --      0.6029                 5.1234                 1.6432

                      7                      8                      9
                      A                      A                      A
 Frequencies --     99.7046               139.0787               164.7265
 Red. masses --      6.1107                 5.4990                 6.4920
 Frc consts  --      0.0358                 0.0627                 0.1038
 IR Inten    --      1.0454                11.8505                 7.2012

                     10                     11                     12
                      A                      A                      A
 Frequencies --    178.5766               200.9593               271.2561
 Red. masses --      4.5535                 4.9051                 4.8433
 Frc consts  --      0.0856                 0.1167                 0.2100
 IR Inten    --     14.2446                11.8500                 1.3947

                     13                     14                     15
                      A                      A                      A
 Frequencies --    283.3605               303.6254               319.7239
 Red. masses --      1.1697                 2.9039                 5.6362
 Frc consts  --      0.0553                 0.1577                 0.3395
 IR Inten    --     34.1898                 2.5798                 3.0502

                     16                     17                     18
                      A                      A                      A
 Frequencies --    342.6902               393.6221               455.4149
 Red. masses --      3.5033                 3.6803                 3.4609
 Frc consts  --      0.2424                 0.3360                 0.4229
 IR Inten    --      5.5278                 2.0015                 8.8065

                     19                     20                     21
                      A                      A                      A
 Frequencies --    514.6553               528.0185               597.7597
 Red. masses --      1.2717                 3.2120                 1.2991
 Frc consts  --      0.1985                 0.5276                 0.2735
 IR Inten    --     54.7068                40.5701                93.1179

                     22                     23                     24
                      A                      A                      A
 Frequencies --    630.6614               631.9867               659.6542
 Red. masses --      3.5548                 3.2282                 3.5347
 Frc consts  --      0.8330                 0.7597                 0.9062
 IR Inten    --     13.7265                47.5551                42.4519

                     25                     26                     27
                      A                      A                      A
 Frequencies --    676.8970               701.9999               708.8392
 Red. masses --      3.1610                 1.7866                 2.0494
 Frc consts  --      0.8533                 0.5188                 0.6067
 IR Inten    --     49.7054                50.5237                55.4605

                     28                     29                     30
                      A                      A                      A
 Frequencies --    759.9064               774.6877               787.6296
 Red. masses --      6.4473                 1.1621                 4.3097
 Frc consts  --      2.1936                 0.4109                 1.5752
 IR Inten    --      0.5361                 2.5053                 8.1397

                     31                     32                     33
                      A                      A                      A
 Frequencies --    800.0326               826.8381               844.7969
 Red. masses --      1.4630                 1.4312                 1.3851
 Frc consts  --      0.5517                 0.5765                 0.5824
 IR Inten    --    200.9089                15.8906                22.8320

                     34                     35                     36
                      A                      A                      A
 Frequencies --    896.9224               933.8625               945.8871
 Red. masses --      2.0850                 4.7038                 5.5726
 Frc consts  --      0.9882                 2.4169                 2.9376
 IR Inten    --      4.2742                 2.2258                16.0353

                     37                     38                     39
                      A                      A                      A
 Frequencies --    978.1600               991.9645              1005.9887
 Red. masses --      1.4057                 3.2554                 4.9155
 Frc consts  --      0.7925                 1.8873                 2.9309
 IR Inten    --      6.6667                16.3125                52.8087

                     40                     41                     42
                      A                      A                      A
 Frequencies --   1022.6147              1044.8933              1098.2881
 Red. masses --      3.6867                 3.1743                 2.6356
 Frc consts  --      2.2715                 2.0420                 1.8731
 IR Inten    --     15.4381                 6.9753                 8.1483

                     43                     44                     45
                      A                      A                      A
 Frequencies --   1106.9387              1137.8707              1146.2417
 Red. masses --      2.2136                 1.9905                 2.0333
 Frc consts  --      1.5981                 1.5184                 1.5740
 IR Inten    --     51.4143                24.0463               157.6038

                     46                     47                     48
                      A                      A                      A
 Frequencies --   1147.1738              1177.2002              1226.9557
 Red. masses --      1.8796                 2.1166                 1.5513
 Frc consts  --      1.4574                 1.7282                 1.3759
 IR Inten    --     21.9779                70.7109                 9.0091

                     49                     50                     51
                      A                      A                      A
 Frequencies --   1254.1119              1261.7078              1280.9090
 Red. masses --      1.5614                 2.0947                 1.4202
 Frc consts  --      1.4469                 1.9647                 1.3729
 IR Inten    --     13.5951                 6.6859                 8.2932

                     52                     53                     54
                      A                      A                      A
 Frequencies --   1285.1873              1295.1169              1328.7803
 Red. masses --      1.3785                 1.3226                 1.4035
 Frc consts  --      1.3415                 1.3070                 1.4600
 IR Inten    --     11.3953                 6.9197                12.4223

                     55                     56                     57
                      A                      A                      A
 Frequencies --   1349.4534              1365.4080              1383.6265
 Red. masses --      1.8454                 1.4343                 1.2061
 Frc consts  --      1.9799                 1.5754                 1.3604
 IR Inten    --      3.5003                10.7268                11.0677

                     58                     59                     60
                      A                      A                      A
 Frequencies --   1391.9034              1393.5710              1401.5775
 Red. masses --      2.6291                 1.2134                 2.4663
 Frc consts  --      3.0011                 1.3884                 2.8545
 IR Inten    --     12.0016                27.5721               169.1831

                     61                     62                     63
                      A                      A                      A
 Frequencies --   1448.7850              1483.7537              1485.1198
 Red. masses --      2.1806                 1.2212                 1.1463
 Frc consts  --      2.6968                 1.5840                 1.4895
 IR Inten    --     32.5293                16.3288                10.3450

                     64                     65                     66
                      A                      A                      A
 Frequencies --   1500.3480              1505.4404              1543.2475
 Red. masses --      2.6616                 1.0911                 2.1035
 Frc consts  --      3.5300                 1.4570                 2.9516
 IR Inten    --     15.8364                 6.8212               238.7089

                     67                     68                     69
                      A                      A                      A
 Frequencies --   1608.9532              1662.8376              1703.5405
 Red. masses --      3.7571                 1.0935                 7.7616
 Frc consts  --      5.7304                 1.7814                13.2710
 IR Inten    --      8.1095                30.5584               209.1599

                     70                     71                     72
                      A                      A                      A
 Frequencies --   1808.3127              3033.9657              3038.5897
 Red. masses --      9.8920                 1.0611                 1.0590
 Frc consts  --     19.0582                 5.7549                 5.7608
 IR Inten    --    290.4900                19.0844                 7.0133

                     73                     74                     75
                      A                      A                      A
 Frequencies --   3048.6771              3069.2111              3081.4144
 Red. masses --      1.0648                 1.0989                 1.0989
 Frc consts  --      5.8310                 6.0993                 6.1474
 IR Inten    --     27.1456                 7.4523                 2.2663

                     76                     77                     78
                      A                      A                      A
 Frequencies --   3095.8112              3103.4228              3234.1605
 Red. masses --      1.0856                 1.1062                 1.0961
 Frc consts  --      6.1298                 6.2774                 6.7552
 IR Inten    --      7.2047                21.4851                 6.1488

                     79                     80                     81
                      A                      A                      A
 Frequencies --   3247.2716              3508.3147              3519.7912
 Red. masses --      1.0980                 1.0482                 1.0836
 Frc consts  --      6.8218                 7.6010                 7.9092
 IR Inten    --      0.8744                 1.5172               229.5524

                     82                     83                     84
                      A                      A                      A
 Frequencies --   3588.3320              3625.5356              3749.4234
 Red. masses --      1.0944                 1.0774                 1.0643
 Frc consts  --      8.3027                 8.3437                 8.8154
 IR Inten    --      2.5815                53.6879                93.3008

 - Thermochemistry -
 -------------------
 Temperature   298.150 Kelvin.  Pressure   1.00000 Atm.
 Atom     1 has atomic number  8 and mass  15.99491

 Molecular mass:   226.10659 amu.
 Principal axes and moments of inertia in atomic units:
                           1         2         3
     Eigenvalues --  3120.839434427.721066559.52683
           X            0.54290   0.83803  -0.05443
           Y           -0.51568   0.38382   0.76600
           Z            0.66282  -0.38779   0.64053
 This molecule is an asymmetric top.
 Rotational symmetry number  1.
 Warning -- assumption of classical behavior for rotation
           may cause significant error
 Rotational temperatures (Kelvin)      0.02775     0.01956     0.01320
 Rotational constants (GHZ):           0.57829     0.40760     0.27513
 Zero-point vibrational energy     642720.5 (Joules/Mol)
                                  153.61389 (Kcal/Mol)
 Warning -- explicit consideration of  21 degrees of freedom as
           vibrations may cause significant error
 Vibrational temperatures:     27.81    36.73    74.08    83.06   103.59
          (Kelvin)            121.90   143.45   200.10   237.00   256.93
                              289.14   390.28   407.69   436.85   460.01
                              493.05   566.33   655.24   740.47   759.70
                              860.04   907.38   909.29   949.09   973.90
                             1010.02  1019.86  1093.33  1114.60  1133.22
                             1151.07  1189.63  1215.47  1290.47  1343.62
                             1360.92  1407.35  1427.21  1447.39  1471.31
                             1503.37  1580.19  1592.64  1637.14  1649.18
                             1650.53  1693.73  1765.31  1804.39  1815.31
                             1842.94  1849.10  1863.38  1911.82  1941.56
                             1964.52  1990.73  2002.64  2005.04  2016.55
                             2084.48  2134.79  2136.75  2158.66  2165.99
                             2220.39  2314.92  2392.45  2451.01  2601.76
                             4365.19  4371.85  4386.36  4415.90  4433.46
                             4454.18  4465.13  4653.23  4672.09  5047.68
                             5064.19  5162.80  5216.33  5394.58

 Zero-point correction=                           0.244799 (Hartree/Particle)
 Thermal correction to Energy=                    0.260895
 Thermal correction to Enthalpy=                  0.261839
 Thermal correction to Gibbs Free Energy=         0.198336
 Sum of electronic and zero-point Energies=           -796.195360
 Sum of electronic and thermal Energies=              -796.179264
 Sum of electronic and thermal Enthalpies=            -796.178320
 Sum of electronic and thermal Free Energies=         -796.241823

                     E (Thermal)             CV                S
                      KCal/Mol        Cal/Mol-Kelvin    Cal/Mol-Kelvin
 Total                  163.714             58.312            133.653
 Electronic               0.000              0.000              0.000
 Translational            0.889              2.981             42.150
 Rotational               0.889              2.981             32.872
 Vibrational            161.936             52.350             58.631
 Vibration     1          0.593              1.986              6.702
 Vibration     2          0.593              1.985              6.150
 Vibration     3          0.596              1.977              4.760
 Vibration     4          0.596              1.974              4.533
 Vibration     5          0.598              1.967              4.098
 Vibration     6          0.601              1.960              3.778
 Vibration     7          0.604              1.949              3.460
 Vibration     8          0.615              1.914              2.817
 Vibration     9          0.623              1.886              2.495
 Vibration    10          0.629              1.869              2.343
 Vibration    11          0.638              1.839              2.124
 Vibration    12          0.675              1.726              1.588
 Vibration    13          0.682              1.704              1.513
 Vibration    14          0.695              1.667              1.397
 Vibration    15          0.706              1.636              1.312
 Vibration    16          0.722              1.590              1.200
 Vibration    17          0.761              1.484              0.986
 Vibration    18          0.814              1.349              0.780
 Vibration    19          0.870              1.218              0.622
 Vibration    20          0.883              1.188              0.592
 Vibration    21          0.956              1.037              0.454

 Optimization completed.
    -- Stationary point found.
 Normal termination of Gaussian 09 at Sat Jul 24 19:40:43 2021.
