 Gaussian 09, Revision D.01,
 Gaussian 09:  ES64L-G09RevD.01 24-Apr-2013

 ----------------------------------------------------------------------
 # B3LYP/6-311++G(2df,2pd) EmpiricalDispersion=GD3BJ opt=calcfc freq=no
 raman nosymm integral(ultrafinegrid)
 ----------------------------------------------------------------------

 ------------------------------------------------------------
 Candidate Structure: Conf:273 OPT and FREQ calc in gas phase
 ------------------------------------------------------------
 Symbolic Z-matrix:
 Charge =  0 Multiplicity = 1

 SCF Done:  E(RB3LYP) =  -796.433429780     A.U. after   14 cycles
 SCF Done:  E(RB3LYP) =  -796.435796498     A.U. after   14 cycles
 SCF Done:  E(RB3LYP) =  -796.434675132     A.U. after   14 cycles
 SCF Done:  E(RB3LYP) =  -796.435860335     A.U. after   10 cycles
 SCF Done:  E(RB3LYP) =  -796.435968148     A.U. after   11 cycles
 SCF Done:  E(RB3LYP) =  -796.435922509     A.U. after   11 cycles
 SCF Done:  E(RB3LYP) =  -796.435977902     A.U. after   11 cycles
 SCF Done:  E(RB3LYP) =  -796.435979222     A.U. after    9 cycles
 SCF Done:  E(RB3LYP) =  -796.435979340     A.U. after    8 cycles
 Optimization completed.
    -- Stationary point found.
 Normal termination of Gaussian 09 at Sat Jul 24 11:51:28 2021.

 ----------------------------------------------------------------------
 #N Geom=AllCheck Guess=TCheck SCRF=Check GenChk RB3LYP/6-311++G(2df,2p
 d) Freq
 ----------------------------------------------------------------------

 Structure from the checkpoint file:  "conf-273.chk"
 ------------------------------------------------------------
 Candidate Structure: Conf:273 OPT and FREQ calc in gas phase
 ------------------------------------------------------------
 Charge =  0 Multiplicity = 1

                          Input orientation:
 ---------------------------------------------------------------------
 Center     Atomic      Atomic             Coordinates (Angstroms)
 Number     Number       Type             X           Y           Z
 ---------------------------------------------------------------------
      1          8           0        0.604968   -1.670678    1.655464
      2          6           0        0.840192   -0.647889    1.006542
      3          7           0        0.293078   -0.448933   -0.211203
      4          6           0       -0.799195   -1.269662   -0.738424
      5          6           0       -0.287755   -2.635891   -1.250269
      6          8           0        0.319679   -3.385216   -0.336531
      7          8           0       -0.447927   -3.000662   -2.384749
      8          6           0       -1.531728   -0.527121   -1.846729
      9          6           0       -2.139825    0.759587   -1.397635
     10          6           0       -2.319110    1.346468   -0.171007
     11          7           0       -2.972811    2.553110   -0.295046
     12          6           0       -3.191986    2.705310   -1.575721
     13          7           0       -2.703851    1.648896   -2.290782
     14          6           0        1.739879    0.441161    1.535782
     15          6           0        2.983695   -0.122169    2.218827
     16          7           0        3.758860    0.964889    2.812473
     17          1           0        0.459950    0.431612   -0.669046
     18          1           0       -1.484369   -1.477015    0.088781
     19          1           0        0.379580   -2.902021    0.527163
     20          1           0       -2.293379   -1.200480   -2.241516
     21          1           0       -0.837593   -0.361808   -2.675450
     22          1           0       -2.018850    0.972453    0.792347
     23          1           0       -3.686115    3.540739   -2.042094
     24          1           0       -2.761419    1.525743   -3.287172
     25          1           0        2.018422    1.130787    0.736040
     26          1           0        1.168166    1.017753    2.266915
     27          1           0        2.665482   -0.794651    3.013039
     28          1           0        3.546918   -0.727717    1.496842
     29          1           0        4.486177    0.604733    3.415828
     30          1           0        4.210831    1.528974    2.103371
 ---------------------------------------------------------------------

 SCF Done:  E(RB3LYP) =  -796.435979340     A.U. after    1 cycles

 Alpha  occ. eigenvalues --  -19.15893 -19.12720 -19.11429 -14.38582 -14.37702
 Alpha  occ. eigenvalues --  -14.30937 -14.30723 -10.30765 -10.30595 -10.25356
 Alpha  occ. eigenvalues --  -10.23865 -10.22495 -10.21207 -10.21126 -10.20016
 Alpha  occ. eigenvalues --  -10.19737  -1.10877  -1.07711  -1.03499  -1.02574
 Alpha  occ. eigenvalues --   -0.96739  -0.90262  -0.89059  -0.83133  -0.78578
 Alpha  occ. eigenvalues --   -0.75469  -0.69282  -0.65609  -0.63399  -0.62368
 Alpha  occ. eigenvalues --   -0.61448  -0.60575  -0.57286  -0.54471  -0.53930
 Alpha  occ. eigenvalues --   -0.52715  -0.51043  -0.48302  -0.47358  -0.46985
 Alpha  occ. eigenvalues --   -0.45891  -0.45230  -0.44597  -0.43985  -0.43878
 Alpha  occ. eigenvalues --   -0.42869  -0.42644  -0.41105  -0.40255  -0.38467
 Alpha  occ. eigenvalues --   -0.38169  -0.37041  -0.32561  -0.31862  -0.30396
 Alpha  occ. eigenvalues --   -0.29895  -0.28802  -0.27712  -0.26157  -0.24789
 Alpha virt. eigenvalues --   -0.02957  -0.02399  -0.01964  -0.00971  -0.00604
 Alpha virt. eigenvalues --   -0.00544   0.00240   0.00660   0.01392   0.01660
 Alpha virt. eigenvalues --    0.02351   0.03174   0.03924   0.03966   0.04060

 Mulliken charges:
               1
     1  O   -0.418970
     2  C   -0.033702
     3  N    0.145076
     4  C    0.223171
     5  C    0.120116
     6  O   -0.222505
     7  O   -0.368965
     8  C   -0.320018
     9  C    0.152496
    10  C   -0.303955
    11  N   -0.279510
    12  C    0.174745
    13  N   -0.024501
    14  C    0.069847
    15  C   -0.213968
    16  N   -0.164623
    17  H    0.137514
    18  H    0.083560
    19  H    0.254043
    20  H    0.090111
    21  H    0.106194
    22  H    0.115255
    23  H    0.115647
    24  H    0.132436
    25  H    0.011859
    26  H    0.089637
    27  H    0.068005
    28  H    0.053293
    29  H    0.114392
    30  H    0.093321
 Sum of Mulliken charges =   0.00000

 Dipole moment (field-independent basis, Debye):
    X=              1.4455    Y=              3.8311    Z=             -2.3167  Tot=              4.7047
 Quadrupole moment (field-independent basis, Debye-Ang):
   XX=            -84.5066   YY=           -119.1916   ZZ=            -93.5048
   XY=              4.8482   XZ=             13.3646   YZ=            -18.3072

  Exact polarizability: 136.234 -15.427 153.595  26.253   4.839 151.682
 Approx polarizability: 178.755 -15.359 216.958  16.526   0.764 243.299

                      1                      2                      3
                      A                      A                      A
 Frequencies --     11.6013                27.6487                44.0722
 Red. masses --      3.2450                 3.7407                 3.3789
 Frc consts  --      0.0003                 0.0017                 0.0039
 IR Inten    --      0.7628                 2.0928                 5.1369

                      4                      5                      6
                      A                      A                      A
 Frequencies --     62.9060                69.6818                84.6689
 Red. masses --      6.4989                 3.8864                 3.4605
 Frc consts  --      0.0152                 0.0111                 0.0146
 IR Inten    --      4.9409                10.7686                 0.7226

                      7                      8                      9
                      A                      A                      A
 Frequencies --     86.9972               161.4314               175.1764
 Red. masses --      7.2702                 4.6636                 3.9966
 Frc consts  --      0.0324                 0.0716                 0.0723
 IR Inten    --      1.1809                14.3121                 3.6953

                     10                     11                     12
                      A                      A                      A
 Frequencies --    215.3034               222.5252               235.1207
 Red. masses --      6.5295                 1.8379                 2.1469
 Frc consts  --      0.1783                 0.0536                 0.0699
 IR Inten    --      4.5532                20.4315                17.1784

                     13                     14                     15
                      A                      A                      A
 Frequencies --    258.9489               285.2949               317.9527
 Red. masses --      2.7814                 4.0906                 6.2400
 Frc consts  --      0.1099                 0.1962                 0.3717
 IR Inten    --     13.3571                15.1181                 4.1007

                     16                     17                     18
                      A                      A                      A
 Frequencies --    360.5469               386.6114               439.6331
 Red. masses --      5.8186                 4.4666                 3.0249
 Frc consts  --      0.4457                 0.3934                 0.3445
 IR Inten    --      1.8263                 1.6861                 6.0639

                     19                     20                     21
                      A                      A                      A
 Frequencies --    486.6649               529.2513               545.0170
 Red. masses --      1.2474                 1.4154                 4.3239
 Frc consts  --      0.1741                 0.2336                 0.7567
 IR Inten    --     80.4205                70.3196                21.3121

                     22                     23                     24
                      A                      A                      A
 Frequencies --    626.1400               634.0588               651.9373
 Red. masses --      5.4699                 2.7809                 2.3992
 Frc consts  --      1.2635                 0.6587                 0.6008
 IR Inten    --     10.2527                15.7914                14.5737

                     25                     26                     27
                      A                      A                      A
 Frequencies --    680.6738               734.6909               756.6067
 Red. masses --      3.0281                 4.5552                 3.6316
 Frc consts  --      0.8266                 1.4487                 1.2249
 IR Inten    --      6.8041                 2.0420                13.0844

                     28                     29                     30
                      A                      A                      A
 Frequencies --    777.0184               799.2275               823.1737
 Red. masses --      3.9648                 1.5674                 1.4164
 Frc consts  --      1.4104                 0.5899                 0.5655
 IR Inten    --     34.8218                20.2736                19.5333

                     31                     32                     33
                      A                      A                      A
 Frequencies --    826.7733               846.9867               880.5986
 Red. masses --      1.3446                 1.3660                 2.3882
 Frc consts  --      0.5415                 0.5774                 1.0911
 IR Inten    --     76.6763                13.1681                 8.5616

                     34                     35                     36
                      A                      A                      A
 Frequencies --    918.3495               940.2163               950.6166
 Red. masses --      1.1910                 5.0190                 3.4719
 Frc consts  --      0.5918                 2.6141                 1.8485
 IR Inten    --     81.5704                14.1031                 6.4026

                     37                     38                     39
                      A                      A                      A
 Frequencies --    967.2345              1000.8292              1027.8632
 Red. masses --      2.3641                 2.8359                 3.7529
 Frc consts  --      1.3031                 1.6737                 2.3361
 IR Inten    --      5.1102                 1.8955                 9.8352

                     40                     41                     42
                      A                      A                      A
 Frequencies --   1062.9145              1086.9233              1095.7915
 Red. masses --      2.8170                 2.4505                 2.4091
 Frc consts  --      1.8751                 1.7057                 1.7044
 IR Inten    --     17.6144                12.8680                26.7326

                     43                     44                     45
                      A                      A                      A
 Frequencies --   1108.2349              1120.0259              1147.2349
 Red. masses --      1.6353                 2.8434                 2.6887
 Frc consts  --      1.1833                 2.1016                 2.0849
 IR Inten    --     14.6751                 7.1767                14.3506

                     46                     47                     48
                      A                      A                      A
 Frequencies --   1159.2672              1203.0464              1221.3070
 Red. masses --      1.3739                 1.7284                 2.3877
 Frc consts  --      1.0879                 1.4739                 2.0984
 IR Inten    --      2.8303                24.2528                22.7776

                     49                     50                     51
                      A                      A                      A
 Frequencies --   1243.1999              1263.4208              1283.9155
 Red. masses --      1.6043                 1.4866                 1.5084
 Frc consts  --      1.4609                 1.3981                 1.4650
 IR Inten    --     20.0714                 5.7270                11.5798

                     52                     53                     54
                      A                      A                      A
 Frequencies --   1285.5161              1316.9835              1339.1757
 Red. masses --      1.4948                 1.7088                 1.1154
 Frc consts  --      1.4554                 1.7463                 1.1786
 IR Inten    --     43.3811                12.8520                 5.4978

                     55                     56                     57
                      A                      A                      A
 Frequencies --   1355.2068              1371.6323              1384.8005
 Red. masses --      1.7415                 1.5189                 1.5167
 Frc consts  --      1.8844                 1.6837                 1.7137
 IR Inten    --      2.2715                 9.6257                10.8481

                     58                     59                     60
                      A                      A                      A
 Frequencies --   1420.8112              1422.4653              1426.4393
 Red. masses --      2.8651                 2.0353                 1.5227
 Frc consts  --      3.4077                 2.4264                 1.8254
 IR Inten    --      4.9880                20.7115                29.1471

                     61                     62                     63
                      A                      A                      A
 Frequencies --   1463.4609              1469.7915              1484.0849
 Red. masses --      1.3322                 1.1107                 1.1867
 Frc consts  --      1.6810                 1.4137                 1.5400
 IR Inten    --    242.8482                 3.7167                30.7348

                     64                     65                     66
                      A                      A                      A
 Frequencies --   1500.0105              1519.4556              1538.5194
 Red. masses --      3.1267                 1.0838                 2.2460
 Frc consts  --      4.1450                 1.4742                 3.1324
 IR Inten    --     16.1049                 2.1064               344.8414

                     67                     68                     69
                      A                      A                      A
 Frequencies --   1607.0871              1663.1233              1686.2595
 Red. masses --      4.2212                 1.0986                 6.8278
 Frc consts  --      6.4234                 1.7904                11.4388
 IR Inten    --      9.9700                21.7755               234.1393

                     70                     71                     72
                      A                      A                      A
 Frequencies --   1822.9378              2965.6328              3023.7069
 Red. masses --      8.7305                 1.0739                 1.0778
 Frc consts  --     17.0936                 5.5648                 5.8058
 IR Inten    --    391.4327                54.6806                 3.3406

                     73                     74                     75
                      A                      A                      A
 Frequencies --   3035.2775              3036.3332              3071.0307
 Red. masses --      1.0597                 1.0718                 1.0992
 Frc consts  --      5.7522                 5.8218                 6.1079
 IR Inten    --     12.8367                13.9772                 5.5294

                     76                     77                     78
                      A                      A                      A
 Frequencies --   3073.1861              3101.6830              3244.4269
 Red. masses --      1.0938                 1.0914                 1.0948
 Frc consts  --      6.0865                 6.1865                 6.7900
 IR Inten    --      4.7601                12.7191                 6.3976

                     79                     80                     81
                      A                      A                      A
 Frequencies --   3249.0520              3254.6243              3509.7679
 Red. masses --      1.0996                 1.0739                 1.0498
 Frc consts  --      6.8389                 6.7020                 7.6196
 IR Inten    --      1.8894               747.5682                 0.6726

                     82                     83                     84
                      A                      A                      A
 Frequencies --   3588.7292              3624.8755              3648.7854
 Red. masses --      1.0930                 1.0779                 1.0811
 Frc consts  --      8.2936                 8.3447                 8.4802
 IR Inten    --      3.5403                39.5757                55.8789

 - Thermochemistry -
 -------------------
 Temperature   298.150 Kelvin.  Pressure   1.00000 Atm.
 Atom     1 has atomic number  8 and mass  15.99491

 Molecular mass:   226.10659 amu.
 Principal axes and moments of inertia in atomic units:
                           1         2         3
     Eigenvalues --  3038.565525499.595137947.24705
           X            0.79081   0.05612  -0.60948
           Y           -0.29628   0.90644  -0.30096
           Z            0.53557   0.41858   0.73345
 This molecule is an asymmetric top.
 Rotational symmetry number  1.
 Warning -- assumption of classical behavior for rotation
           may cause significant error
 Rotational temperatures (Kelvin)      0.02850     0.01575     0.01090
 Rotational constants (GHZ):           0.59395     0.32816     0.22709
 Zero-point vibrational energy     642096.8 (Joules/Mol)
                                  153.46482 (Kcal/Mol)
 Warning -- explicit consideration of  21 degrees of freedom as
           vibrations may cause significant error
 Vibrational temperatures:     16.69    39.78    63.41    90.51   100.26
          (Kelvin)            121.82   125.17   232.26   252.04   309.77
                              320.16   338.29   372.57   410.48   457.46
                              518.75   556.25   632.53   700.20   761.47
                              784.16   900.87   912.27   937.99   979.34
                             1057.06  1088.59  1117.95  1149.91  1184.36
                             1189.54  1218.62  1266.98  1321.30  1352.76
                             1367.72  1391.63  1439.97  1478.86  1529.29
                             1563.84  1576.60  1594.50  1611.47  1650.61
                             1667.92  1730.91  1757.19  1788.69  1817.78
                             1847.27  1849.57  1894.84  1926.77  1949.84
                             1973.47  1992.42  2044.23  2046.61  2052.33
                             2105.59  2114.70  2135.26  2158.18  2186.16
                             2213.58  2312.24  2392.86  2426.15  2622.80
                             4266.88  4350.43  4367.08  4368.60  4418.52
                             4421.62  4462.62  4668.00  4674.66  4682.67
                             5049.77  5163.37  5215.38  5249.78

 Zero-point correction=                           0.244562 (Hartree/Particle)
 Thermal correction to Energy=                    0.260624
 Thermal correction to Enthalpy=                  0.261568
 Thermal correction to Gibbs Free Energy=         0.197496
 Sum of electronic and zero-point Energies=           -796.191418
 Sum of electronic and thermal Energies=              -796.175355
 Sum of electronic and thermal Enthalpies=            -796.174411
 Sum of electronic and thermal Free Energies=         -796.238484

                     E (Thermal)             CV                S
                      KCal/Mol        Cal/Mol-Kelvin    Cal/Mol-Kelvin
 Total                  163.544             57.942            134.853
 Electronic               0.000              0.000              0.000
 Translational            0.889              2.981             42.150
 Rotational               0.889              2.981             33.251
 Vibrational            161.767             51.981             59.451
 Vibration     1          0.593              1.987              7.716
 Vibration     2          0.593              1.984              5.991
 Vibration     3          0.595              1.980              5.067
 Vibration     4          0.597              1.972              4.364
 Vibration     5          0.598              1.969              4.162
 Vibration     6          0.601              1.960              3.780
 Vibration     7          0.601              1.958              3.726
 Vibration     8          0.622              1.890              2.533
 Vibration     9          0.627              1.873              2.379
 Vibration    10          0.645              1.818              1.998
 Vibration    11          0.648              1.807              1.938
 Vibration    12          0.655              1.787              1.840
 Vibration    13          0.668              1.748              1.669
 Vibration    14          0.683              1.701              1.502
 Vibration    15          0.704              1.639              1.321
 Vibration    16          0.735              1.554              1.120
 Vibration    17          0.755              1.499              1.013
 Vibration    18          0.800              1.384              0.828
 Vibration    19          0.843              1.280              0.692
 Vibration    20          0.884              1.185              0.589
 Vibration    21          0.900              1.151              0.555

 Normal termination of Gaussian 09 at Sat Jul 24 18:17:34 2021.
