 Gaussian 09, Revision D.01,
 Gaussian 09:  ES64L-G09RevD.01 24-Apr-2013

 ----------------------------------------------------------------------
 # B3LYP/6-311++G(2df,2pd) EmpiricalDispersion=GD3BJ opt=calcfc freq=no
 raman nosymm integral(ultrafinegrid)
 ----------------------------------------------------------------------

 ------------------------------------------------------------
 Candidate Structure: Conf:150 OPT and FREQ calc in gas phase
 ------------------------------------------------------------
 Symbolic Z-matrix:
 Charge =  0 Multiplicity = 1

 SCF Done:  E(RB3LYP) =  -796.436227922     A.U. after   15 cycles
 SCF Done:  E(RB3LYP) =  -796.436722326     A.U. after   15 cycles
 SCF Done:  E(RB3LYP) =  -796.415565581     A.U. after   14 cycles
 SCF Done:  E(RB3LYP) =  -796.436755337     A.U. after    9 cycles
 SCF Done:  E(RB3LYP) =  -796.437597969     A.U. after   15 cycles
 SCF Done:  E(RB3LYP) =  -796.432769819     A.U. after   15 cycles
 SCF Done:  E(RB3LYP) =  -796.437601324     A.U. after    9 cycles
 SCF Done:  E(RB3LYP) =  -796.437727407     A.U. after   11 cycles
 SCF Done:  E(RB3LYP) =  -796.437795742     A.U. after   12 cycles
 SCF Done:  E(RB3LYP) =  -796.437813078     A.U. after   11 cycles
 SCF Done:  E(RB3LYP) =  -796.437815673     A.U. after   10 cycles
 SCF Done:  E(RB3LYP) =  -796.437816215     A.U. after    9 cycles
 SCF Done:  E(RB3LYP) =  -796.437816854     A.U. after    9 cycles
 SCF Done:  E(RB3LYP) =  -796.437817332     A.U. after    9 cycles
 SCF Done:  E(RB3LYP) =  -796.437817627     A.U. after    9 cycles
 SCF Done:  E(RB3LYP) =  -796.437817727     A.U. after   10 cycles
 Optimization completed.
    -- Stationary point found.
 Normal termination of Gaussian 09 at Sat Jul 24 16:24:29 2021.

 ----------------------------------------------------------------------
 #N Geom=AllCheck Guess=TCheck SCRF=Check GenChk RB3LYP/6-311++G(2df,2p
 d) Freq
 ----------------------------------------------------------------------

 Structure from the checkpoint file:  "conf-150.chk"
 ------------------------------------------------------------
 Candidate Structure: Conf:150 OPT and FREQ calc in gas phase
 ------------------------------------------------------------
 Charge =  0 Multiplicity = 1

                          Input orientation:
 ---------------------------------------------------------------------
 Center     Atomic      Atomic             Coordinates (Angstroms)
 Number     Number       Type             X           Y           Z
 ---------------------------------------------------------------------
      1          8           0       -1.049274   -1.859200   -0.878994
      2          6           0       -1.232292   -0.748598   -0.404266
      3          7           0       -0.382992   -0.209717    0.510923
      4          6           0        0.727525   -0.960191    1.053905
      5          6           0        1.133866   -0.299483    2.355365
      6          8           0        2.128246   -0.966285    2.963400
      7          8           0        0.636688    0.702499    2.800740
      8          6           0        1.926316   -1.061880    0.076862
      9          6           0        2.564826    0.245712   -0.225325
     10          6           0        3.730909    0.820578    0.209752
     11          7           0        3.888124    2.078562   -0.325113
     12          6           0        2.832794    2.275225   -1.076388
     13          7           0        1.998529    1.196300   -1.051694
     14          6           0       -2.388506    0.138147   -0.825984
     15          6           0       -3.680121   -0.654602   -0.997662
     16          7           0       -4.728202    0.207754   -1.542628
     17          1           0       -0.612794    0.649286    0.986017
     18          1           0        0.399416   -1.978981    1.273292
     19          1           0        2.360056   -0.478823    3.767155
     20          1           0        1.551378   -1.545408   -0.824912
     21          1           0        2.669554   -1.723848    0.515937
     22          1           0        4.464491    0.390823    0.870499
     23          1           0        2.619637    3.158979   -1.653602
     24          1           0        1.121738    1.103076   -1.533693
     25          1           0       -2.133593    0.592728   -1.786604
     26          1           0       -2.529689    0.955300   -0.114774
     27          1           0       -3.495422   -1.463940   -1.701348
     28          1           0       -3.944555   -1.121669   -0.039933
     29          1           0       -5.036171    0.890465   -0.860985
     30          1           0       -5.540170   -0.333200   -1.809404
 ---------------------------------------------------------------------

 SCF Done:  E(RB3LYP) =  -796.437817727     A.U. after    1 cycles

 Alpha  occ. eigenvalues --  -19.20065 -19.14492 -19.10344 -14.37349 -14.35656
 Alpha  occ. eigenvalues --  -14.30489 -14.29560 -10.33327 -10.28679 -10.24890
 Alpha  occ. eigenvalues --  -10.22696 -10.20996 -10.20444 -10.20090 -10.19057
 Alpha  occ. eigenvalues --  -10.18454  -1.14359  -1.05957  -1.05348  -1.02281
 Alpha  occ. eigenvalues --   -0.95108  -0.89703  -0.87824  -0.82296  -0.77627
 Alpha  occ. eigenvalues --   -0.75116  -0.69542  -0.66153  -0.62404  -0.61919
 Alpha  occ. eigenvalues --   -0.60840  -0.59803  -0.54697  -0.54437  -0.52274
 Alpha  occ. eigenvalues --   -0.51314  -0.50899  -0.49451  -0.48196  -0.46772
 Alpha  occ. eigenvalues --   -0.46381  -0.45320  -0.44430  -0.43586  -0.43078
 Alpha  occ. eigenvalues --   -0.41592  -0.41396  -0.40887  -0.40261  -0.39549
 Alpha  occ. eigenvalues --   -0.37006  -0.36193  -0.35813  -0.31654  -0.29272
 Alpha  occ. eigenvalues --   -0.28656  -0.27730  -0.27467  -0.25707  -0.23576
 Alpha virt. eigenvalues --   -0.03048  -0.02319  -0.01532  -0.01138  -0.00407
 Alpha virt. eigenvalues --    0.00130   0.00640   0.01417   0.01657   0.02106
 Alpha virt. eigenvalues --    0.02700   0.03302   0.03711   0.04200   0.04354

 Mulliken charges:
               1
     1  O   -0.407759
     2  C   -0.274378
     3  N    0.136785
     4  C   -0.072770
     5  C    0.235159
     6  O   -0.181809
     7  O   -0.375671
     8  C    0.146763
     9  C    0.104250
    10  C   -0.376536
    11  N   -0.274419
    12  C    0.099142
    13  N   -0.018142
    14  C    0.240132
    15  C   -0.207620
    16  N   -0.164005
    17  H    0.156494
    18  H    0.069996
    19  H    0.245350
    20  H    0.091135
    21  H    0.106531
    22  H    0.069779
    23  H    0.102850
    24  H    0.154500
    25  H    0.060189
    26  H    0.022253
    27  H    0.067536
    28  H    0.039715
    29  H    0.094211
    30  H    0.110339
 Sum of Mulliken charges =   0.00000

 Dipole moment (field-independent basis, Debye):
    X=             -2.9415    Y=             -0.6402    Z=              1.4349  Tot=              3.3349
 Quadrupole moment (field-independent basis, Debye-Ang):
   XX=            -99.0342   YY=           -103.7041   ZZ=            -91.9314
   XY=            -11.6298   XZ=              2.2315   YZ=             -7.5073

  Exact polarizability: 166.842   8.160 141.253  19.790  -7.060 132.630
 Approx polarizability: 215.433   2.990 229.328  24.772  -0.977 195.238

                      1                      2                      3
                      A                      A                      A
 Frequencies --      6.5188                13.0880                48.1534
 Red. masses --      4.4133                 3.6985                 3.5277
 Frc consts  --      0.0001                 0.0004                 0.0048
 IR Inten    --      1.5648                 1.1835                 3.4955

                      4                      5                      6
                      A                      A                      A
 Frequencies --     50.5563                64.4397                71.7881
 Red. masses --      4.7798                 7.5104                 8.0155
 Frc consts  --      0.0072                 0.0184                 0.0243
 IR Inten    --      9.9534                 0.0907                 1.9734

                      7                      8                      9
                      A                      A                      A
 Frequencies --     77.1361               122.6558               130.3352
 Red. masses --      3.0663                 4.8672                 4.1567
 Frc consts  --      0.0107                 0.0431                 0.0416
 IR Inten    --      1.5942                 2.9996                 5.6420

                     10                     11                     12
                      A                      A                      A
 Frequencies --    192.9666               215.3771               241.2620
 Red. masses --      5.0418                 2.6362                 1.5129
 Frc consts  --      0.1106                 0.0720                 0.0519
 IR Inten    --      1.8023                10.1460                39.3725

                     13                     14                     15
                      A                      A                      A
 Frequencies --    266.6460               306.2025               327.4908
 Red. masses --      4.4728                 5.5332                 5.8705
 Frc consts  --      0.1874                 0.3057                 0.3710
 IR Inten    --     13.3128                 0.9088                 1.6550

                     16                     17                     18
                      A                      A                      A
 Frequencies --    368.1258               396.7160               473.6217
 Red. masses --      2.2436                 3.5794                 3.1878
 Frc consts  --      0.1791                 0.3319                 0.4213
 IR Inten    --      2.7232                 4.0752                14.0763

                     19                     20                     21
                      A                      A                      A
 Frequencies --    503.1158               543.9269               569.8861
 Red. masses --      1.3063                 2.8852                 1.4257
 Frc consts  --      0.1948                 0.5029                 0.2728
 IR Inten    --    122.2990                29.5251                15.2226

                     22                     23                     24
                      A                      A                      A
 Frequencies --    591.4361               613.9794               645.9111
 Red. masses --      2.5752                 2.1834                 2.2297
 Frc consts  --      0.5307                 0.4849                 0.5481
 IR Inten    --     44.8536                70.3108                 1.5307

                     25                     26                     27
                      A                      A                      A
 Frequencies --    658.0339               682.8642               706.6704
 Red. masses --      2.5731                 2.8154                 3.4652
 Frc consts  --      0.6565                 0.7735                 1.0196
 IR Inten    --      8.2632                 5.4203                46.7717

                     28                     29                     30
                      A                      A                      A
 Frequencies --    743.0939               780.8305               806.0265
 Red. masses --      4.1243                 2.1032                 1.6767
 Frc consts  --      1.3418                 0.7555                 0.6418
 IR Inten    --      6.5901                41.7808                13.9865

                     31                     32                     33
                      A                      A                      A
 Frequencies --    820.3874               831.0933               855.4643
 Red. masses --      1.4452                 1.3575                 1.5421
 Frc consts  --      0.5731                 0.5524                 0.6649
 IR Inten    --     21.2773                93.8261                14.8277

                     34                     35                     36
                      A                      A                      A
 Frequencies --    875.4154               925.6743               943.4235
 Red. masses --      2.5825                 3.7135                 5.0840
 Frc consts  --      1.1661                 1.8748                 2.6661
 IR Inten    --      4.1626                 9.5833                13.3477

                     37                     38                     39
                      A                      A                      A
 Frequencies --    966.3510               982.8264              1022.7446
 Red. masses --      2.9672                 2.1090                 2.8911
 Frc consts  --      1.6325                 1.2003                 1.7818
 IR Inten    --      6.1991                 5.1315                27.5084

                     40                     41                     42
                      A                      A                      A
 Frequencies --   1031.8093              1061.5375              1091.2734
 Red. masses --      3.1284                 2.7538                 2.2231
 Frc consts  --      1.9623                 1.8283                 1.5598
 IR Inten    --      2.1870                16.6919                28.5747

                     43                     44                     45
                      A                      A                      A
 Frequencies --   1108.6207              1113.5787              1141.9283
 Red. masses --      1.6006                 2.3165                 2.2842
 Frc consts  --      1.1590                 1.6925                 1.7549
 IR Inten    --     10.3915                59.8354                12.7570

                     46                     47                     48
                      A                      A                      A
 Frequencies --   1158.4777              1176.4024              1211.0166
 Red. masses --      1.5789                 2.2072                 1.4395
 Frc consts  --      1.2485                 1.7997                 1.2439
 IR Inten    --     69.2864               154.4050                 1.5154

                     49                     50                     51
                      A                      A                      A
 Frequencies --   1238.5553              1250.0760              1261.1307
 Red. masses --      1.7581                 1.9271                 1.4913
 Frc consts  --      1.5890                 1.7743                 1.3975
 IR Inten    --     28.1404                14.7715                 2.2300

                     52                     53                     54
                      A                      A                      A
 Frequencies --   1267.3225              1290.7236              1313.6167
 Red. masses --      1.5609                 1.3200                 1.4367
 Frc consts  --      1.4771                 1.2956                 1.4606
 IR Inten    --     17.9444                 2.1042                 0.7216

                     55                     56                     57
                      A                      A                      A
 Frequencies --   1337.3251              1362.1546              1375.7789
 Red. masses --      1.1137                 1.4805                 1.8020
 Frc consts  --      1.1736                 1.6184                 2.0096
 IR Inten    --      7.8181                 7.3162                16.1146

                     58                     59                     60
                      A                      A                      A
 Frequencies --   1393.9325              1412.7232              1422.5640
 Red. masses --      2.2107                 2.3393                 2.2563
 Frc consts  --      2.5308                 2.7508                 2.6902
 IR Inten    --     21.4923               106.4785                14.7228

                     61                     62                     63
                      A                      A                      A
 Frequencies --   1425.0073              1473.3213              1488.4867
 Red. masses --      1.7361                 1.0966                 1.1993
 Frc consts  --      2.0771                 1.4025                 1.5655
 IR Inten    --     61.8846                 9.0800                11.1763

                     64                     65                     66
                      A                      A                      A
 Frequencies --   1497.1760              1519.4147              1525.9782
 Red. masses --      3.0012                 1.0841                 2.2056
 Frc consts  --      3.9635                 1.4746                 3.0260
 IR Inten    --     61.7326                 1.5480               299.9464

                     67                     68                     69
                      A                      A                      A
 Frequencies --   1609.0932              1662.1991              1729.1247
 Red. masses --      4.4757                 1.0910                 9.1774
 Frc consts  --      6.8277                 1.7761                16.1668
 IR Inten    --      7.3732                25.1626               252.6855

                     70                     71                     72
                      A                      A                      A
 Frequencies --   1806.8257              2963.8552              3029.6792
 Red. masses --      9.8827                 1.0739                 1.0589
 Frc consts  --     19.0090                 5.5582                 5.7265
 IR Inten    --    225.3724                56.8899                16.6629

                     73                     74                     75
                      A                      A                      A
 Frequencies --   3047.3420              3064.8696              3069.3393
 Red. masses --      1.0816                 1.1002                 1.0637
 Frc consts  --      5.9180                 6.0888                 5.9039
 IR Inten    --     10.8254                11.1863                 6.9081

                     76                     77                     78
                      A                      A                      A
 Frequencies --   3100.6983              3118.3606              3239.8938
 Red. masses --      1.0908                 1.1013                 1.0956
 Frc consts  --      6.1787                 6.3096                 6.7761
 IR Inten    --     13.6790                 4.6789                 5.2594

                     79                     80                     81
                      A                      A                      A
 Frequencies --   3247.1334              3507.2172              3585.7428
 Red. masses --      1.0987                 1.0498                 1.0929
 Frc consts  --      6.8257                 7.6081                 8.2793
 IR Inten    --      0.8182                 0.4882                 2.6481

                     82                     83                     84
                      A                      A                      A
 Frequencies --   3602.1373              3659.1550              3756.7199
 Red. masses --      1.0776                 1.0810                 1.0644
 Frc consts  --      8.2378                 8.5281                 8.8502
 IR Inten    --     71.3945                50.8560                94.3372

 - Thermochemistry -
 -------------------
 Temperature   298.150 Kelvin.  Pressure   1.00000 Atm.
 Atom     1 has atomic number  8 and mass  15.99491

 Molecular mass:   226.10659 amu.
 Principal axes and moments of inertia in atomic units:
                           1         2         3
     Eigenvalues --  2303.344536173.251827270.59032
           X            0.95223  -0.12038  -0.28067
           Y            0.18350  -0.50910   0.84092
           Z            0.24411   0.85225   0.46269
 This molecule is an asymmetric top.
 Rotational symmetry number  1.
 Warning -- assumption of classical behavior for rotation
           may cause significant error
 Rotational temperatures (Kelvin)      0.03760     0.01403     0.01191
 Rotational constants (GHZ):           0.78353     0.29235     0.24822
 Zero-point vibrational energy     641147.9 (Joules/Mol)
                                  153.23802 (Kcal/Mol)
 Warning -- explicit consideration of  23 degrees of freedom as
           vibrations may cause significant error
 Vibrational temperatures:      9.38    18.83    69.28    72.74    92.71
          (Kelvin)            103.29   110.98   176.47   187.52   277.64
                              309.88   347.12   383.64   440.56   471.19
                              529.65   570.79   681.44   723.87   782.59
                              819.94   850.94   883.38   929.32   946.76
                              982.49  1016.74  1069.14  1123.44  1159.69
                             1180.35  1195.76  1230.82  1259.53  1331.84
                             1357.37  1390.36  1414.07  1471.50  1484.54
                             1527.31  1570.10  1595.06  1602.19  1642.98
                             1666.79  1692.58  1742.38  1782.00  1798.58
                             1814.48  1823.39  1857.06  1890.00  1924.11
                             1959.83  1979.44  2005.56  2032.59  2046.75
                             2050.27  2119.78  2141.60  2154.10  2186.10
                             2195.54  2315.12  2391.53  2487.82  2599.62
                             4264.32  4359.03  4384.44  4409.66  4416.09
                             4461.21  4486.62  4661.48  4671.89  5046.10
                             5159.08  5182.67  5264.70  5405.08

 Zero-point correction=                           0.244200 (Hartree/Particle)
 Thermal correction to Energy=                    0.260578
 Thermal correction to Enthalpy=                  0.261522
 Thermal correction to Gibbs Free Energy=         0.195280
 Sum of electronic and zero-point Energies=           -796.193617
 Sum of electronic and thermal Energies=              -796.177240
 Sum of electronic and thermal Enthalpies=            -796.176296
 Sum of electronic and thermal Free Energies=         -796.242538

                     E (Thermal)             CV                S
                      KCal/Mol        Cal/Mol-Kelvin    Cal/Mol-Kelvin
 Total                  163.515             58.631            139.418
 Electronic               0.000              0.000              0.000
 Translational            0.889              2.981             42.150
 Rotational               0.889              2.981             33.002
 Vibrational            161.737             52.670             64.265
 Vibration     1          0.593              1.987              8.861
 Vibration     2          0.593              1.987              7.476
 Vibration     3          0.595              1.978              4.892
 Vibration     4          0.595              1.977              4.796
 Vibration     5          0.597              1.971              4.316
 Vibration     6          0.598              1.967              4.104
 Vibration     7          0.599              1.964              3.962
 Vibration     8          0.610              1.930              3.058
 Vibration     9          0.612              1.923              2.941
 Vibration    10          0.635              1.850              2.199
 Vibration    11          0.645              1.818              1.998
 Vibration    12          0.658              1.777              1.794
 Vibration    13          0.672              1.734              1.618
 Vibration    14          0.697              1.662              1.383
 Vibration    15          0.711              1.621              1.272
 Vibration    16          0.741              1.538              1.088
 Vibration    17          0.763              1.477              0.975
 Vibration    18          0.830              1.309              0.727
 Vibration    19          0.858              1.243              0.650
 Vibration    20          0.899              1.153              0.557
 Vibration    21          0.926              1.096              0.504
 Vibration    22          0.949              1.050              0.465
 Vibration    23          0.973              1.002              0.426

 Optimization completed on the basis of negligible forces.
    -- Stationary point found.
 Normal termination of Gaussian 09 at Sat Jul 24 22:42:12 2021.
