 Gaussian 09, Revision D.01,
 Gaussian 09:  ES64L-G09RevD.01 24-Apr-2013

 ----------------------------------------------------------------------
 # B3LYP/6-311++G(2df,2pd) EmpiricalDispersion=GD3BJ opt=calcfc freq=no
 raman nosymm integral(ultrafinegrid)
 ----------------------------------------------------------------------

 ------------------------------------------------------------
 Candidate Structure: Conf:118 OPT and FREQ calc in gas phase
 ------------------------------------------------------------
 Symbolic Z-matrix:
 Charge =  0 Multiplicity = 1

 SCF Done:  E(RB3LYP) =  -796.443523132     A.U. after   14 cycles
 SCF Done:  E(RB3LYP) =  -796.445569650     A.U. after   14 cycles
 SCF Done:  E(RB3LYP) =  -796.446069269     A.U. after   14 cycles
 SCF Done:  E(RB3LYP) =  -796.446551553     A.U. after   12 cycles
 SCF Done:  E(RB3LYP) =  -796.446834562     A.U. after   12 cycles
 SCF Done:  E(RB3LYP) =  -796.446843864     A.U. after   11 cycles
 SCF Done:  E(RB3LYP) =  -796.446908537     A.U. after   11 cycles
 SCF Done:  E(RB3LYP) =  -796.446911580     A.U. after    9 cycles
 SCF Done:  E(RB3LYP) =  -796.446911923     A.U. after    9 cycles
 SCF Done:  E(RB3LYP) =  -796.446911928     A.U. after    7 cycles
 Optimization completed.
    -- Stationary point found.
 Normal termination of Gaussian 09 at Sat Jul 24 13:15:16 2021.

 ----------------------------------------------------------------------
 #N Geom=AllCheck Guess=TCheck SCRF=Check GenChk RB3LYP/6-311++G(2df,2p
 d) Freq
 ----------------------------------------------------------------------

 Structure from the checkpoint file:  "conf-118.chk"
 ------------------------------------------------------------
 Candidate Structure: Conf:118 OPT and FREQ calc in gas phase
 ------------------------------------------------------------
 Charge =  0 Multiplicity = 1

                          Input orientation:
 ---------------------------------------------------------------------
 Center     Atomic      Atomic             Coordinates (Angstroms)
 Number     Number       Type             X           Y           Z
 ---------------------------------------------------------------------
      1          8           0       -0.964772   -1.996870    1.754062
      2          6           0       -0.992644   -1.363643    0.692201
      3          7           0        0.109515   -0.762700    0.203598
      4          6           0        1.435629   -0.900380    0.795628
      5          6           0        1.563572   -0.096101    2.107845
      6          8           0        0.720901   -0.451569    3.064529
      7          8           0        2.384184    0.775945    2.268973
      8          6           0        2.502020   -0.516766   -0.241642
      9          6           0        2.241320    0.781703   -0.923594
     10          6           0        1.818183    1.075363   -2.197298
     11          7           0        1.663099    2.433189   -2.357023
     12          6           0        1.983906    2.958296   -1.196998
     13          7           0        2.342117    2.003404   -0.296672
     14          6           0       -2.271499   -1.185950   -0.082571
     15          6           0       -3.277482   -0.319305    0.708798
     16          7           0       -4.569848   -0.130705    0.073120
     17          1           0        0.046465   -0.180161   -0.619303
     18          1           0        1.565010   -1.950254    1.070356
     19          1           0        0.096788   -1.154771    2.739563
     20          1           0        2.531423   -1.297691   -1.000915
     21          1           0        3.469718   -0.510205    0.258563
     22          1           0        1.644113    0.386569   -3.007635
     23          1           0        1.976453    4.007682   -0.955533
     24          1           0        2.577414    2.107818    0.680444
     25          1           0       -2.699029   -2.177493   -0.237888
     26          1           0       -2.083424   -0.741214   -1.061135
     27          1           0       -3.430869   -0.775455    1.685889
     28          1           0       -2.838254    0.664106    0.886851
     29          1           0       -4.489414    0.325392   -0.826472
     30          1           0       -5.054501   -1.008228   -0.064252
 ---------------------------------------------------------------------

 SCF Done:  E(RB3LYP) =  -796.446911928     A.U. after    1 cycles

 Alpha  occ. eigenvalues --  -19.17058 -19.12946 -19.12898 -14.37948 -14.37238
 Alpha  occ. eigenvalues --  -14.31218 -14.30236 -10.32125 -10.30864 -10.25802
 Alpha  occ. eigenvalues --  -10.23257 -10.21847 -10.21691 -10.21334 -10.20283
 Alpha  occ. eigenvalues --  -10.19497  -1.12151  -1.07976  -1.03872  -1.02750
 Alpha  occ. eigenvalues --   -0.97020  -0.90664  -0.88296  -0.83028  -0.78605
 Alpha  occ. eigenvalues --   -0.75410  -0.69212  -0.66182  -0.63124  -0.63007
 Alpha  occ. eigenvalues --   -0.61702  -0.60558  -0.57225  -0.56095  -0.53388
 Alpha  occ. eigenvalues --   -0.52205  -0.51645  -0.48669  -0.47502  -0.47104
 Alpha  occ. eigenvalues --   -0.46316  -0.45653  -0.44927  -0.44283  -0.43366
 Alpha  occ. eigenvalues --   -0.42513  -0.42345  -0.41794  -0.40648  -0.39852
 Alpha  occ. eigenvalues --   -0.38745  -0.37118  -0.33908  -0.32690  -0.30495
 Alpha  occ. eigenvalues --   -0.29748  -0.28780  -0.28249  -0.26124  -0.24676
 Alpha virt. eigenvalues --   -0.03302  -0.02855  -0.01481  -0.01289  -0.00415
 Alpha virt. eigenvalues --   -0.00111   0.00370   0.00941   0.01303   0.01988
 Alpha virt. eigenvalues --    0.02487   0.03144   0.03563   0.03810   0.04897

 Mulliken charges:
               1
     1  O   -0.416388
     2  C   -0.301003
     3  N    0.114954
     4  C    0.104267
     5  C    0.115704
     6  O   -0.195446
     7  O   -0.381644
     8  C   -0.303042
     9  C    0.315913
    10  C   -0.364579
    11  N   -0.266468
    12  C    0.105851
    13  N   -0.014173
    14  C    0.424461
    15  C   -0.211159
    16  N   -0.177961
    17  H    0.095260
    18  H    0.109458
    19  H    0.244950
    20  H    0.072343
    21  H    0.083356
    22  H    0.075567
    23  H    0.103688
    24  H    0.185760
    25  H    0.058642
    26  H    0.048301
    27  H    0.082483
    28  H    0.067468
    29  H    0.109451
    30  H    0.113986
 Sum of Mulliken charges =   0.00000

 Dipole moment (field-independent basis, Debye):
    X=             -0.6412    Y=             -2.5766    Z=             -2.3225  Tot=              3.5276
 Quadrupole moment (field-independent basis, Debye-Ang):
   XX=            -96.1128   YY=            -95.7972   ZZ=           -115.9778
   XY=             -0.5393   XZ=              5.5119   YZ=              9.4199

  Exact polarizability: 153.626  12.737 144.134   2.669 -12.400 143.925
 Approx polarizability: 202.021  14.884 222.060   8.978 -12.291 221.541

                      1                      2                      3
                      A                      A                      A
 Frequencies --     15.2909                42.8312                55.3543
 Red. masses --      4.2988                 6.3976                 3.0933
 Frc consts  --      0.0006                 0.0069                 0.0056
 IR Inten    --      0.1461                 1.1875                 4.3177

                      4                      5                      6
                      A                      A                      A
 Frequencies --     74.0056                84.2210                92.8866
 Red. masses --      4.3831                 2.8575                 4.7957
 Frc consts  --      0.0141                 0.0119                 0.0244
 IR Inten    --      6.4392                 0.2412                 4.5834

                      7                      8                      9
                      A                      A                      A
 Frequencies --    134.5914               154.4397               201.3729
 Red. masses --      8.9232                 5.5915                 4.2833
 Frc consts  --      0.0952                 0.0786                 0.1023
 IR Inten    --     10.8510                 6.7355                11.8975

                     10                     11                     12
                      A                      A                      A
 Frequencies --    211.7775               234.4391               277.2568
 Red. masses --      4.6780                 7.1467                 6.2450
 Frc consts  --      0.1236                 0.2314                 0.2828
 IR Inten    --      3.6125                16.0898                 0.7666

                     13                     14                     15
                      A                      A                      A
 Frequencies --    288.0553               304.9195               347.7884
 Red. masses --      1.1287                 5.3234                 4.5992
 Frc consts  --      0.0552                 0.2916                 0.3278
 IR Inten    --     37.1385                 1.5920                 4.4375

                     16                     17                     18
                      A                      A                      A
 Frequencies --    365.2923               383.9215               445.3059
 Red. masses --      2.3930                 4.0947                 3.3801
 Frc consts  --      0.1881                 0.3556                 0.3949
 IR Inten    --      6.2683                 4.6548                23.2220

                     19                     20                     21
                      A                      A                      A
 Frequencies --    573.0348               581.0700               607.7474
 Red. masses --      2.5682                 1.8825                 3.1213
 Frc consts  --      0.4969                 0.3745                 0.6792
 IR Inten    --     13.2395                38.8954                 8.9931

                     22                     23                     24
                      A                      A                      A
 Frequencies --    640.5595               668.1095               675.6886
 Red. masses --      3.4406                 2.8564                 3.3283
 Frc consts  --      0.8318                 0.7512                 0.8953
 IR Inten    --     12.1275                 6.3971                37.2954

                     25                     26                     27
                      A                      A                      A
 Frequencies --    733.3768               742.9227               766.7344
 Red. masses --      1.3980                 2.5948                 5.7179
 Frc consts  --      0.4430                 0.8438                 1.9805
 IR Inten    --     28.7558                45.4747                 6.4569

                     28                     29                     30
                      A                      A                      A
 Frequencies --    772.6702               787.6538               797.8379
 Red. masses --      1.2840                 2.7153                 1.8803
 Frc consts  --      0.4517                 0.9925                 0.7052
 IR Inten    --      3.3196                43.6555               189.8529

                     31                     32                     33
                      A                      A                      A
 Frequencies --    838.9688               848.3665               864.3371
 Red. masses --      1.4205                 1.7557                 2.1971
 Frc consts  --      0.5891                 0.7445                 0.9671
 IR Inten    --     22.7316                20.0607                13.1585

                     34                     35                     36
                      A                      A                      A
 Frequencies --    940.6619               945.6900               954.3538
 Red. masses --      1.5258                 5.4327                 1.6424
 Frc consts  --      0.7955                 2.8626                 0.8813
 IR Inten    --     51.8618                 9.8696                37.1139

                     37                     38                     39
                      A                      A                      A
 Frequencies --    978.6371               990.2793              1007.5622
 Red. masses --      1.3869                 3.9980                 4.7449
 Frc consts  --      0.7826                 2.3100                 2.8381
 IR Inten    --      0.6533                 9.0228                54.2111

                     40                     41                     42
                      A                      A                      A
 Frequencies --   1015.9604              1059.4620              1092.0283
 Red. masses --      4.0678                 2.3877                 2.1611
 Frc consts  --      2.4738                 1.5790                 1.5184
 IR Inten    --     11.4537                10.8395                 5.4991

                     43                     44                     45
                      A                      A                      A
 Frequencies --   1104.0484              1116.5625              1140.7035
 Red. masses --      3.7634                 1.5802                 1.5651
 Frc consts  --      2.7028                 1.1607                 1.1998
 IR Inten    --     20.0544                40.4307                 6.3466

                     46                     47                     48
                      A                      A                      A
 Frequencies --   1144.0770              1221.7817              1241.9627
 Red. masses --      2.0650                 1.6162                 2.4191
 Frc consts  --      1.5925                 1.4214                 2.1984
 IR Inten    --      5.5018                12.8781                41.9345

                     49                     50                     51
                      A                      A                      A
 Frequencies --   1260.4244              1262.4000              1288.9323
 Red. masses --      1.6603                 2.0307                 1.3242
 Frc consts  --      1.5541                 1.9067                 1.2962
 IR Inten    --     27.4697                 1.6692                 5.4517

                     52                     53                     54
                      A                      A                      A
 Frequencies --   1292.4749              1306.2170              1351.8348
 Red. masses --      1.3344                 1.4830                 1.7299
 Frc consts  --      1.3133                 1.4908                 1.8626
 IR Inten    --      1.6734                23.3600                16.7213

                     55                     56                     57
                      A                      A                      A
 Frequencies --   1369.6076              1382.2186              1385.5450
 Red. masses --      1.6251                 1.4915                 1.2099
 Frc consts  --      1.7961                 1.6789                 1.3685
 IR Inten    --     15.4619                 4.2791                15.4950

                     58                     59                     60
                      A                      A                      A
 Frequencies --   1392.4932              1397.4363              1422.6670
 Red. masses --      1.1970                 3.0089                 2.6489
 Frc consts  --      1.3675                 3.4619                 3.1588
 IR Inten    --     11.9697                20.9792                57.4789

                     61                     62                     63
                      A                      A                      A
 Frequencies --   1468.7655              1475.1341              1483.9396
 Red. masses --      1.3538                 1.1378                 1.1267
 Frc consts  --      1.7207                 1.4587                 1.4618
 IR Inten    --    209.6951                16.0817                 1.3180

                     64                     65                     66
                      A                      A                      A
 Frequencies --   1499.7698              1504.3310              1538.5373
 Red. masses --      3.2213                 1.0906                 2.4020
 Frc consts  --      4.2690                 1.4541                 3.3499
 IR Inten    --     18.9191                 6.3371               470.6355

                     67                     68                     69
                      A                      A                      A
 Frequencies --   1601.2083              1662.7563              1672.7504
 Red. masses --      4.3507                 1.1628                 5.0911
 Frc consts  --      6.5722                 1.8941                 8.3931
 IR Inten    --     13.8011                69.1682               183.8626

                     70                     71                     72
                      A                      A                      A
 Frequencies --   1799.6666              3038.9637              3039.3643
 Red. masses --      7.9736                 1.0617                 1.0806
 Frc consts  --     15.2155                 5.7768                 5.8813
 IR Inten    --    379.4133                 1.9067                 4.8886

                     73                     74                     75
                      A                      A                      A
 Frequencies --   3046.7733              3064.7801              3081.8726
 Red. masses --      1.0643                 1.0608                 1.0991
 Frc consts  --      5.8208                 5.8707                 6.1507
 IR Inten    --     27.1989                17.2718                 0.7233

                     76                     77                     78
                      A                      A                      A
 Frequencies --   3103.8857              3104.2723              3195.1736
 Red. masses --      1.1054                 1.1042                 1.0753
 Frc consts  --      6.2744                 6.2693                 6.4682
 IR Inten    --     17.1446                 5.6765               760.8600

                     79                     80                     81
                      A                      A                      A
 Frequencies --   3229.4561              3248.6369              3510.2402
 Red. masses --      1.0963                 1.0981                 1.0481
 Frc consts  --      6.7363                 6.8282                 7.6091
 IR Inten    --      5.8247                 0.7389                 2.1986

                     82                     83                     84
                      A                      A                      A
 Frequencies --   3559.5951              3580.7368              3590.7994
 Red. masses --      1.0787                 1.0826                 1.0946
 Frc consts  --      8.0526                 8.1782                 8.3157
 IR Inten    --    132.5382               198.9621                 3.4030

 - Thermochemistry -
 -------------------
 Temperature   298.150 Kelvin.  Pressure   1.00000 Atm.
 Atom     1 has atomic number  8 and mass  15.99491

 Molecular mass:   226.10659 amu.
 Principal axes and moments of inertia in atomic units:
                           1         2         3
     Eigenvalues --  2728.339925163.166106692.87406
           X            0.86775   0.43368  -0.24277
           Y            0.42574  -0.39657   0.81331
           Z           -0.25644   0.80911   0.52876
 This molecule is an asymmetric top.
 Rotational symmetry number  1.
 Warning -- assumption of classical behavior for rotation
           may cause significant error
 Rotational temperatures (Kelvin)      0.03175     0.01678     0.01294
 Rotational constants (GHZ):           0.66148     0.34954     0.26965
 Zero-point vibrational energy     644669.1 (Joules/Mol)
                                  154.07961 (Kcal/Mol)
 Warning -- explicit consideration of  21 degrees of freedom as
           vibrations may cause significant error
 Vibrational temperatures:     22.00    61.62    79.64   106.48   121.18
          (Kelvin)            133.64   193.65   222.20   289.73   304.70
                              337.31   398.91   414.45   438.71   500.39
                              525.57   552.38   640.70   824.47   836.03
                              874.41   921.62   961.26   972.16  1055.16
                             1068.90  1103.16  1111.70  1133.26  1147.91
                             1207.09  1220.61  1243.59  1353.40  1360.64
                             1373.10  1408.04  1424.79  1449.66  1461.74
                             1524.33  1571.18  1588.48  1606.48  1641.22
                             1646.07  1757.87  1786.91  1813.47  1816.31
                             1854.48  1859.58  1879.35  1944.99  1970.56
                             1988.70  1993.49  2003.48  2010.60  2046.90
                             2113.22  2122.39  2135.06  2157.83  2164.39
                             2213.61  2303.78  2392.33  2406.71  2589.32
                             4372.39  4372.96  4383.62  4409.53  4434.12
                             4465.79  4466.35  4597.14  4646.46  4674.06
                             5050.45  5121.46  5151.88  5166.35

 Zero-point correction=                           0.245541 (Hartree/Particle)
 Thermal correction to Energy=                    0.261005
 Thermal correction to Enthalpy=                  0.261949
 Thermal correction to Gibbs Free Energy=         0.200477
 Sum of electronic and zero-point Energies=           -796.201370
 Sum of electronic and thermal Energies=              -796.185907
 Sum of electronic and thermal Enthalpies=            -796.184963
 Sum of electronic and thermal Free Energies=         -796.246435

                     E (Thermal)             CV                S
                      KCal/Mol        Cal/Mol-Kelvin    Cal/Mol-Kelvin
 Total                  163.783             57.004            129.379
 Electronic               0.000              0.000              0.000
 Translational            0.889              2.981             42.150
 Rotational               0.889              2.981             32.911
 Vibrational            162.006             51.043             54.318
 Vibration     1          0.593              1.986              7.167
 Vibration     2          0.595              1.980              5.124
 Vibration     3          0.596              1.975              4.616
 Vibration     4          0.599              1.966              4.044
 Vibration     5          0.601              1.960              3.790
 Vibration     6          0.602              1.954              3.598
 Vibration     7          0.613              1.919              2.879
 Vibration     8          0.620              1.898              2.617
 Vibration     9          0.638              1.838              2.121
 Vibration    10          0.643              1.823              2.028
 Vibration    11          0.654              1.788              1.845
 Vibration    12          0.678              1.716              1.551
 Vibration    13          0.685              1.696              1.485
 Vibration    14          0.696              1.664              1.390
 Vibration    15          0.725              1.580              1.176
 Vibration    16          0.739              1.544              1.099
 Vibration    17          0.753              1.504              1.024
 Vibration    18          0.805              1.371              0.810
 Vibration    19          0.929              1.090              0.498
 Vibration    20          0.938              1.072              0.483
 Vibration    21          0.967              1.015              0.437

 Optimization completed.
    -- Stationary point found.
 Normal termination of Gaussian 09 at Sat Jul 24 19:44:07 2021.
