 Gaussian 09, Revision D.01,
 Gaussian 09:  ES64L-G09RevD.01 24-Apr-2013

 ----------------------------------------------------------------------
 # B3LYP/6-311++G(2df,2pd) EmpiricalDispersion=GD3BJ opt=calcfc freq=no
 raman nosymm integral(ultrafinegrid)
 ----------------------------------------------------------------------

 ------------------------------------------------------------
 Candidate Structure: Conf:900 OPT and FREQ calc in gas phase
 ------------------------------------------------------------
 Symbolic Z-matrix:
 Charge =  0 Multiplicity = 1

 SCF Done:  E(RB3LYP) =  -796.441329659     A.U. after   14 cycles
 SCF Done:  E(RB3LYP) =  -796.442726861     A.U. after   13 cycles
 SCF Done:  E(RB3LYP) =  -796.442577309     A.U. after   13 cycles
 SCF Done:  E(RB3LYP) =  -796.441727916     A.U. after   13 cycles
 SCF Done:  E(RB3LYP) =  -796.442868455     A.U. after   10 cycles
 SCF Done:  E(RB3LYP) =  -796.442990104     A.U. after   12 cycles
 SCF Done:  E(RB3LYP) =  -796.442995121     A.U. after   11 cycles
 SCF Done:  E(RB3LYP) =  -796.442995365     A.U. after    9 cycles
 SCF Done:  E(RB3LYP) =  -796.442995519     A.U. after    8 cycles
 SCF Done:  E(RB3LYP) =  -796.442995776     A.U. after   10 cycles
 SCF Done:  E(RB3LYP) =  -796.442995870     A.U. after    8 cycles
 Optimization completed.
    -- Stationary point found.
 Normal termination of Gaussian 09 at Sat Jul 24 14:10:49 2021.

 ----------------------------------------------------------------------
 #N Geom=AllCheck Guess=TCheck SCRF=Check GenChk RB3LYP/6-311++G(2df,2p
 d) Freq
 ----------------------------------------------------------------------

 Structure from the checkpoint file:  "conf-900.chk"
 ------------------------------------------------------------
 Candidate Structure: Conf:900 OPT and FREQ calc in gas phase
 ------------------------------------------------------------
 Charge =  0 Multiplicity = 1

                          Input orientation:
 ---------------------------------------------------------------------
 Center     Atomic      Atomic             Coordinates (Angstroms)
 Number     Number       Type             X           Y           Z
 ---------------------------------------------------------------------
      1          8           0       -0.756838    0.499001   -1.200164
      2          6           0       -1.185618   -0.576672   -0.784115
      3          7           0       -0.425163   -1.417884   -0.054419
      4          6           0        0.958498   -1.145376    0.264225
      5          6           0        1.577039   -2.439175    0.743542
      6          8           0        2.909752   -2.336137    0.855431
      7          8           0        0.959364   -3.437133    1.018459
      8          6           0        1.141365   -0.014084    1.340391
      9          6           0        1.935986    1.144815    0.861313
     10          6           0        3.104525    1.716141    1.294898
     11          7           0        3.439737    2.790828    0.504472
     12          6           0        2.490324    2.866895   -0.400502
     13          7           0        1.553465    1.895962   -0.228221
     14          6           0       -2.596052   -1.050630   -1.077819
     15          6           0       -3.545140    0.107235   -1.360439
     16          7           0       -3.631573    0.989938   -0.196009
     17          1           0       -0.797612   -2.296453    0.272537
     18          1           0        1.482049   -0.837390   -0.640485
     19          1           0        3.246318   -3.177446    1.196699
     20          1           0        0.137965    0.294838    1.636160
     21          1           0        1.622375   -0.415069    2.230525
     22          1           0        3.715801    1.412975    2.128176
     23          1           0        2.431299    3.594212   -1.192512
     24          1           0        0.734948    1.685852   -0.789084
     25          1           0       -2.966903   -1.640759   -0.238709
     26          1           0       -2.544018   -1.711236   -1.948190
     27          1           0       -4.536384   -0.302867   -1.554552
     28          1           0       -3.218089    0.620573   -2.270513
     29          1           0       -2.806249    1.574280   -0.145727
     30          1           0       -4.431036    1.605059   -0.265239
 ---------------------------------------------------------------------

 SCF Done:  E(RB3LYP) =  -796.442995870     A.U. after    1 cycles

 Alpha  occ. eigenvalues --  -19.20389 -19.14931 -19.11665 -14.36353 -14.35177
 Alpha  occ. eigenvalues --  -14.30040 -14.28351 -10.33777 -10.29706 -10.25322
 Alpha  occ. eigenvalues --  -10.21393 -10.20591 -10.20398 -10.19808 -10.19335
 Alpha  occ. eigenvalues --  -10.17433  -1.14749  -1.06889  -1.05843  -1.00831
 Alpha  occ. eigenvalues --   -0.95873  -0.89481  -0.86471  -0.82091  -0.77613
 Alpha  occ. eigenvalues --   -0.74971  -0.69087  -0.66801  -0.62299  -0.61436
 Alpha  occ. eigenvalues --   -0.60528  -0.58512  -0.54910  -0.54023  -0.52524
 Alpha  occ. eigenvalues --   -0.51895  -0.50285  -0.49562  -0.49033  -0.48382
 Alpha  occ. eigenvalues --   -0.45984  -0.44834  -0.44259  -0.43614  -0.42624
 Alpha  occ. eigenvalues --   -0.40757  -0.40479  -0.40128  -0.39923  -0.39258
 Alpha  occ. eigenvalues --   -0.38180  -0.37195  -0.36206  -0.32158  -0.29457
 Alpha  occ. eigenvalues --   -0.29080  -0.27682  -0.26422  -0.25541  -0.22512
 Alpha virt. eigenvalues --   -0.03452  -0.02326  -0.01748  -0.01099  -0.00064
 Alpha virt. eigenvalues --    0.00659   0.00774   0.01544   0.01959   0.02282
 Alpha virt. eigenvalues --    0.02735   0.03303   0.03710   0.04276   0.04832

 Mulliken charges:
               1
     1  O   -0.454983
     2  C   -0.021629
     3  N    0.117252
     4  C   -0.027836
     5  C    0.239057
     6  O   -0.178429
     7  O   -0.402703
     8  C    0.110369
     9  C    0.200721
    10  C   -0.393892
    11  N   -0.298924
    12  C    0.103164
    13  N   -0.128433
    14  C    0.024854
    15  C   -0.173916
    16  N   -0.205176
    17  H    0.148892
    18  H    0.086907
    19  H    0.239068
    20  H    0.060388
    21  H    0.079265
    22  H    0.059630
    23  H    0.098859
    24  H    0.288646
    25  H    0.025487
    26  H    0.047413
    27  H    0.041999
    28  H    0.062688
    29  H    0.123855
    30  H    0.127409
 Sum of Mulliken charges =   0.00000

 Dipole moment (field-independent basis, Debye):
    X=             -3.1152    Y=             -3.4781    Z=             -1.0270  Tot=              4.7809
 Quadrupole moment (field-independent basis, Debye-Ang):
   XX=            -99.6919   YY=           -100.9206   ZZ=            -92.9922
   XY=            -18.1575   XZ=              5.4659   YZ=             -3.7750

  Exact polarizability: 163.296  13.421 159.516  18.197 -13.863 122.872
 Approx polarizability: 219.640  22.692 228.421  16.950 -27.119 193.906

                      1                      2                      3
                      A                      A                      A
 Frequencies --     12.2142                34.4387                53.5964
 Red. masses --      3.7947                 5.9793                 4.5987
 Frc consts  --      0.0003                 0.0042                 0.0078
 IR Inten    --      0.9880                 0.9856                 1.3499

                      4                      5                      6
                      A                      A                      A
 Frequencies --     57.3219                79.1797                88.3891
 Red. masses --      9.8899                 4.8875                 6.1568
 Frc consts  --      0.0191                 0.0181                 0.0283
 IR Inten    --      1.4209                 1.5666                 6.0748

                      7                      8                      9
                      A                      A                      A
 Frequencies --    113.1305               132.1775               142.7659
 Red. masses --      4.3506                 4.0104                 5.2515
 Frc consts  --      0.0328                 0.0413                 0.0631
 IR Inten    --      2.2934                 4.6331                 3.5879

                     10                     11                     12
                      A                      A                      A
 Frequencies --    192.5423               243.2515               284.3173
 Red. masses --      4.6258                 2.1586                 1.4093
 Frc consts  --      0.1010                 0.0753                 0.0671
 IR Inten    --      2.5256                37.1957                38.3838

                     13                     14                     15
                      A                      A                      A
 Frequencies --    293.4668               300.5644               321.6494
 Red. masses --      5.6666                 2.2757                 3.7649
 Frc consts  --      0.2875                 0.1211                 0.2295
 IR Inten    --      2.1941                 1.3186                 3.1874

                     16                     17                     18
                      A                      A                      A
 Frequencies --    353.2858               405.9128               440.4826
 Red. masses --      5.3111                 3.5286                 2.7070
 Frc consts  --      0.3906                 0.3425                 0.3094
 IR Inten    --      1.0446                11.1829                27.0465

                     19                     20                     21
                      A                      A                      A
 Frequencies --    540.5483               563.3784               591.0993
 Red. masses --      1.5509                 2.7845                 1.3660
 Frc consts  --      0.2670                 0.5207                 0.2812
 IR Inten    --     56.4153                40.5748                72.8533

                     22                     23                     24
                      A                      A                      A
 Frequencies --    631.7085               634.8518               653.2906
 Red. masses --      4.1125                 2.2607                 3.0857
 Frc consts  --      0.9669                 0.5368                 0.7759
 IR Inten    --     26.8511                 5.5593                 0.1017

                     25                     26                     27
                      A                      A                      A
 Frequencies --    678.6135               684.7369               722.5870
 Red. masses --      3.3284                 2.7401                 3.5402
 Frc consts  --      0.9031                 0.7569                 1.0891
 IR Inten    --     51.0011                 3.4021                15.1279

                     28                     29                     30
                      A                      A                      A
 Frequencies --    776.2632               777.2956               827.7393
 Red. masses --      3.7346                 1.1430                 1.4390
 Frc consts  --      1.3259                 0.4069                 0.5809
 IR Inten    --     20.0513                26.1921                20.1472

                     31                     32                     33
                      A                      A                      A
 Frequencies --    844.0215               847.0859               862.3832
 Red. masses --      1.6042                 1.4134                 2.2087
 Frc consts  --      0.6733                 0.5976                 0.9678
 IR Inten    --     53.2714                56.2510                18.2513

                     34                     35                     36
                      A                      A                      A
 Frequencies --    892.1128               900.1006               946.6622
 Red. masses --      1.8977                 2.3631                 5.6870
 Frc consts  --      0.8898                 1.1280                 3.0028
 IR Inten    --     12.2147                11.2147                16.4814

                     37                     38                     39
                      A                      A                      A
 Frequencies --    956.0722               980.3201              1021.9714
 Red. masses --      2.8882                 4.1228                 2.9610
 Frc consts  --      1.5555                 2.3344                 1.8221
 IR Inten    --      3.0051                 7.1052                23.0263

                     40                     41                     42
                      A                      A                      A
 Frequencies --   1028.2453              1060.5420              1097.9927
 Red. masses --      3.6158                 2.3668                 2.8420
 Frc consts  --      2.2524                 1.5684                 2.0187
 IR Inten    --      0.9313                14.6803                38.5124

                     43                     44                     45
                      A                      A                      A
 Frequencies --   1125.2270              1128.4511              1143.3484
 Red. masses --      2.0051                 1.7539                 2.1893
 Frc consts  --      1.4958                 1.3159                 1.6862
 IR Inten    --     34.8091                40.9262                 2.7636

                     46                     47                     48
                      A                      A                      A
 Frequencies --   1166.4929              1182.8080              1210.0765
 Red. masses --      1.7049                 2.0965                 1.3282
 Frc consts  --      1.3669                 1.7281                 1.1458
 IR Inten    --    129.3865                67.7885                 7.3321

                     49                     50                     51
                      A                      A                      A
 Frequencies --   1232.7392              1259.3143              1261.2701
 Red. masses --      1.3004                 1.4901                 2.2259
 Frc consts  --      1.1643                 1.3923                 2.0863
 IR Inten    --     13.8487                24.7996                 6.5391

                     52                     53                     54
                      A                      A                      A
 Frequencies --   1280.4464              1292.2886              1329.5956
 Red. masses --      1.4329                 1.2921                 1.3868
 Frc consts  --      1.3842                 1.2713                 1.4445
 IR Inten    --      8.2005                 7.8127                 2.1768

                     55                     56                     57
                      A                      A                      A
 Frequencies --   1348.4916              1358.2117              1384.2807
 Red. masses --      1.2547                 1.4326                 1.7462
 Frc consts  --      1.3443                 1.5570                 1.9715
 IR Inten    --      5.9769                35.6147                40.9229

                     58                     59                     60
                      A                      A                      A
 Frequencies --   1388.4832              1420.5477              1422.2269
 Red. masses --      3.0788                 2.0908                 1.4520
 Frc consts  --      3.4972                 2.4858                 1.7304
 IR Inten    --      4.5582                63.3144                27.2099

                     61                     62                     63
                      A                      A                      A
 Frequencies --   1437.9735              1452.7973              1480.8366
 Red. masses --      2.4041                 1.1075                 1.1502
 Frc consts  --      2.9289                 1.3772                 1.4861
 IR Inten    --     82.6576                16.0864                13.9813

                     64                     65                     66
                      A                      A                      A
 Frequencies --   1499.4885              1501.4283              1542.4399
 Red. masses --      3.0462                 1.0921                 2.4475
 Frc consts  --      4.0354                 1.4505                 3.4308
 IR Inten    --     25.9426                 4.6534               318.5564

                     67                     68                     69
                      A                      A                      A
 Frequencies --   1610.7781              1653.9824              1705.1229
 Red. masses --      4.2832                 1.1609                 5.5632
 Frc consts  --      6.5477                 1.8711                 9.5299
 IR Inten    --     16.5141                82.0549               176.0565

                     70                     71                     72
                      A                      A                      A
 Frequencies --   1800.5491              3000.7950              3031.2553
 Red. masses --      9.6927                 1.0699                 1.0628
 Frc consts  --     18.5142                 5.6765                 5.7535
 IR Inten    --    327.4845                46.0761                12.3254

                     73                     74                     75
                      A                      A                      A
 Frequencies --   3049.9979              3072.1149              3075.0497
 Red. masses --      1.0652                 1.0927                 1.0838
 Frc consts  --      5.8380                 6.0762                 6.0379
 IR Inten    --     15.1674                25.4468                 8.6727

                     76                     77                     78
                      A                      A                      A
 Frequencies --   3082.4004              3102.5487              3236.6976
 Red. masses --      1.0989                 1.0982                 1.0958
 Frc consts  --      6.1517                 6.2282                 6.7640
 IR Inten    --     20.3127                 8.3619                 7.1861

                     79                     80                     81
                      A                      A                      A
 Frequencies --   3245.6835              3509.0798              3514.9345
 Red. masses --      1.0982                 1.0843                 1.0497
 Frc consts  --      6.8163                 7.8667                 7.6409
 IR Inten    --      0.8139               411.1921                 0.3209

                     82                     83                     84
                      A                      A                      A
 Frequencies --   3591.6945              3596.8655              3755.2412
 Red. masses --      1.0931                 1.0777                 1.0643
 Frc consts  --      8.3085                 8.2149                 8.8432
 IR Inten    --      7.7190                85.1999                97.9830

 - Thermochemistry -
 -------------------
 Temperature   298.150 Kelvin.  Pressure   1.00000 Atm.
 Atom     1 has atomic number  8 and mass  15.99491

 Molecular mass:   226.10659 amu.
 Principal axes and moments of inertia in atomic units:
                           1         2         3
     Eigenvalues --  3030.542724795.845527295.38590
           X            0.94193  -0.15801  -0.29631
           Y            0.20956   0.96607   0.15100
           Z            0.26240  -0.20432   0.94308
 This molecule is an asymmetric top.
 Rotational symmetry number  1.
 Warning -- assumption of classical behavior for rotation
           may cause significant error
 Rotational temperatures (Kelvin)      0.02858     0.01806     0.01187
 Rotational constants (GHZ):           0.59552     0.37631     0.24738
 Zero-point vibrational energy     643306.0 (Joules/Mol)
                                  153.75382 (Kcal/Mol)
 Warning -- explicit consideration of  21 degrees of freedom as
           vibrations may cause significant error
 Vibrational temperatures:     17.57    49.55    77.11    82.47   113.92
          (Kelvin)            127.17   162.77   190.17   205.41   277.03
                              349.98   409.07   422.23   432.44   462.78
                              508.30   584.02   633.76   777.73   810.57
                              850.46   908.89   913.41   939.94   976.37
                              985.18  1039.64  1116.87  1118.35  1190.93
                             1214.36  1218.77  1240.78  1283.55  1295.04
                             1362.03  1375.57  1410.46  1470.39  1479.41
                             1525.88  1579.76  1618.95  1623.59  1645.02
                             1678.32  1701.79  1741.03  1773.63  1811.87
                             1814.68  1842.27  1859.31  1912.99  1940.18
                             1954.16  1991.67  1997.72  2043.85  2046.26
                             2068.92  2090.25  2130.59  2157.43  2160.22
                             2219.22  2317.55  2379.71  2453.29  2590.59
                             4317.47  4361.29  4388.26  4420.08  4424.31
                             4434.88  4463.87  4656.88  4669.81  5048.78
                             5057.20  5167.64  5175.08  5402.95

 Zero-point correction=                           0.245022 (Hartree/Particle)
 Thermal correction to Energy=                    0.260925
 Thermal correction to Enthalpy=                  0.261869
 Thermal correction to Gibbs Free Energy=         0.198652
 Sum of electronic and zero-point Energies=           -796.197974
 Sum of electronic and thermal Energies=              -796.182071
 Sum of electronic and thermal Enthalpies=            -796.181127
 Sum of electronic and thermal Free Energies=         -796.244344

                     E (Thermal)             CV                S
                      KCal/Mol        Cal/Mol-Kelvin    Cal/Mol-Kelvin
 Total                  163.733             57.920            133.051
 Electronic               0.000              0.000              0.000
 Translational            0.889              2.981             42.150
 Rotational               0.889              2.981             33.028
 Vibrational            161.955             51.958             57.874
 Vibration     1          0.593              1.987              7.614
 Vibration     2          0.594              1.983              5.556
 Vibration     3          0.596              1.976              4.680
 Vibration     4          0.596              1.975              4.547
 Vibration     5          0.600              1.963              3.911
 Vibration     6          0.601              1.957              3.695
 Vibration     7          0.607              1.939              3.214
 Vibration     8          0.612              1.921              2.914
 Vibration     9          0.616              1.910              2.766
 Vibration    10          0.635              1.850              2.203
 Vibration    11          0.659              1.774              1.779
 Vibration    12          0.683              1.703              1.508
 Vibration    13          0.688              1.686              1.454
 Vibration    14          0.693              1.673              1.414
 Vibration    15          0.707              1.632              1.302
 Vibration    16          0.729              1.569              1.152
 Vibration    17          0.771              1.457              0.941
 Vibration    18          0.800              1.382              0.825
 Vibration    19          0.896              1.160              0.564
 Vibration    20          0.919              1.111              0.517
 Vibration    21          0.949              1.051              0.465

 Optimization completed.
    -- Stationary point found.
 Normal termination of Gaussian 09 at Sat Jul 24 20:32:53 2021.
