 Gaussian 09, Revision D.01,
 Gaussian 09:  ES64L-G09RevD.01 24-Apr-2013

 ----------------------------------------------------------------------
 # B3LYP/6-311++G(2df,2pd) EmpiricalDispersion=GD3BJ opt=calcfc freq=no
 raman nosymm integral(ultrafinegrid)
 ----------------------------------------------------------------------

 ------------------------------------------------------------
 Candidate Structure: Conf:295 OPT and FREQ calc in gas phase
 ------------------------------------------------------------
 Symbolic Z-matrix:
 Charge =  0 Multiplicity = 1

 SCF Done:  E(RB3LYP) =  -796.431965090     A.U. after   15 cycles
 SCF Done:  E(RB3LYP) =  -796.434714171     A.U. after   15 cycles
 SCF Done:  E(RB3LYP) =  -796.434640353     A.U. after   13 cycles
 SCF Done:  E(RB3LYP) =  -796.434940580     A.U. after   10 cycles
 SCF Done:  E(RB3LYP) =  -796.435325107     A.U. after   11 cycles
 SCF Done:  E(RB3LYP) =  -796.435606340     A.U. after   12 cycles
 SCF Done:  E(RB3LYP) =  -796.435787458     A.U. after   12 cycles
 SCF Done:  E(RB3LYP) =  -796.435875226     A.U. after   11 cycles
 SCF Done:  E(RB3LYP) =  -796.435888992     A.U. after   11 cycles
 SCF Done:  E(RB3LYP) =  -796.435898423     A.U. after   11 cycles
 SCF Done:  E(RB3LYP) =  -796.435899356     A.U. after   11 cycles
 SCF Done:  E(RB3LYP) =  -796.435899737     A.U. after   10 cycles
 Optimization completed.
    -- Stationary point found.
 Normal termination of Gaussian 09 at Sat Jul 24 14:26:04 2021.

 ----------------------------------------------------------------------
 #N Geom=AllCheck Guess=TCheck SCRF=Check GenChk RB3LYP/6-311++G(2df,2p
 d) Freq
 ----------------------------------------------------------------------

 Structure from the checkpoint file:  "conf-295.chk"
 ------------------------------------------------------------
 Candidate Structure: Conf:295 OPT and FREQ calc in gas phase
 ------------------------------------------------------------
 Charge =  0 Multiplicity = 1

                          Input orientation:
 ---------------------------------------------------------------------
 Center     Atomic      Atomic             Coordinates (Angstroms)
 Number     Number       Type             X           Y           Z
 ---------------------------------------------------------------------
      1          8           0        1.310068    1.040569   -0.587465
      2          6           0        1.742734    0.138264    0.114263
      3          7           0        0.929623   -0.572942    0.939174
      4          6           0       -0.469120   -0.243439    1.085705
      5          6           0       -0.943197   -0.890360    2.368941
      6          8           0       -2.227328   -0.588443    2.669139
      7          8           0       -0.281953   -1.618307    3.061956
      8          6           0       -1.313728   -0.698762   -0.147745
      9          6           0       -2.458577    0.179637   -0.507188
     10          6           0       -2.661755    0.969497   -1.609016
     11          7           0       -3.880434    1.603215   -1.540414
     12          6           0       -4.414958    1.211611   -0.409441
     13          7           0       -3.599735    0.342509    0.252624
     14          6           0        3.206110   -0.269315    0.140151
     15          6           0        3.997452    0.337908   -1.010118
     16          7           0        3.492182   -0.152979   -2.292800
     17          1           0        1.306529   -1.267291    1.564501
     18          1           0       -0.579133    0.839346    1.176651
     19          1           0       -2.439482   -1.049901    3.494057
     20          1           0       -0.631075   -0.690049   -0.992586
     21          1           0       -1.630323   -1.735331   -0.004804
     22          1           0       -1.992376    1.113128   -2.439845
     23          1           0       -5.372138    1.516531   -0.021098
     24          1           0       -3.739766   -0.042147    1.170320
     25          1           0        3.626768    0.052793    1.097243
     26          1           0        3.275296   -1.358236    0.104093
     27          1           0        5.038691    0.029313   -0.910733
     28          1           0        3.968437    1.429601   -0.922058
     29          1           0        2.609630    0.298835   -2.499746
     30          1           0        4.131576    0.074749   -3.042522
 ---------------------------------------------------------------------

 SCF Done:  E(RB3LYP) =  -796.435899737     A.U. after    1 cycles

 Alpha  occ. eigenvalues --  -19.21548 -19.15637 -19.10131 -14.36573 -14.35254
 Alpha  occ. eigenvalues --  -14.28981 -14.28967 -10.34453 -10.28278 -10.25250
 Alpha  occ. eigenvalues --  -10.22152 -10.20445 -10.20326 -10.19670 -10.18445
 Alpha  occ. eigenvalues --  -10.17799  -1.15634  -1.06728  -1.05496  -1.01674
 Alpha  occ. eigenvalues --   -0.94897  -0.88457  -0.87263  -0.82028  -0.77121
 Alpha  occ. eigenvalues --   -0.74904  -0.69524  -0.66391  -0.62047  -0.61482
 Alpha  occ. eigenvalues --   -0.60578  -0.59203  -0.55285  -0.53592  -0.53130
 Alpha  occ. eigenvalues --   -0.50905  -0.50774  -0.49225  -0.48984  -0.47111
 Alpha  occ. eigenvalues --   -0.46575  -0.45130  -0.43945  -0.43146  -0.42518
 Alpha  occ. eigenvalues --   -0.41092  -0.40889  -0.40226  -0.39939  -0.38286
 Alpha  occ. eigenvalues --   -0.37245  -0.37031  -0.36393  -0.32630  -0.28689
 Alpha  occ. eigenvalues --   -0.28252  -0.27296  -0.27031  -0.24539  -0.23032
 Alpha virt. eigenvalues --   -0.04044  -0.03232  -0.01090  -0.00423   0.00194
 Alpha virt. eigenvalues --    0.00455   0.00774   0.01148   0.01761   0.02339
 Alpha virt. eigenvalues --    0.03209   0.03456   0.03789   0.04347   0.04494

 Mulliken charges:
               1
     1  O   -0.430530
     2  C   -0.067379
     3  N    0.081821
     4  C   -0.008386
     5  C    0.207517
     6  O   -0.267441
     7  O   -0.388021
     8  C    0.303329
     9  C   -0.090300
    10  C   -0.251673
    11  N   -0.291481
    12  C    0.101596
    13  N   -0.000051
    14  C    0.123567
    15  C   -0.249310
    16  N   -0.202937
    17  H    0.152046
    18  H    0.104301
    19  H    0.262507
    20  H    0.104450
    21  H    0.054481
    22  H    0.079997
    23  H    0.098053
    24  H    0.158958
    25  H    0.036556
    26  H    0.031502
    27  H    0.042408
    28  H    0.064109
    29  H    0.123589
    30  H    0.116722
 Sum of Mulliken charges =   0.00000

 Dipole moment (field-independent basis, Debye):
    X=              0.6150    Y=             -2.4826    Z=              4.5753  Tot=              5.2417
 Quadrupole moment (field-independent basis, Debye-Ang):
   XX=            -86.6061   YY=           -104.2843   ZZ=            -93.4815
   XY=             10.7156   XZ=            -18.5842   YZ=              3.2846

  Exact polarizability: 176.486 -15.034 122.288  -6.356 -21.752 146.488
 Approx polarizability: 224.384 -23.039 198.944  -5.081 -35.744 217.790

                      1                      2                      3
                      A                      A                      A
 Frequencies --     10.7533                25.6855                33.9559
 Red. masses --      3.6017                 4.4976                 7.4872
 Frc consts  --      0.0002                 0.0017                 0.0051
 IR Inten    --      2.2667                 1.2241                 1.3212

                      4                      5                      6
                      A                      A                      A
 Frequencies --     44.6099                64.5855                77.0937
 Red. masses --      4.5809                 7.2442                 5.6565
 Frc consts  --      0.0054                 0.0178                 0.0198
 IR Inten    --      1.4814                 1.7450                 3.7820

                      7                      8                      9
                      A                      A                      A
 Frequencies --    125.7038               133.8891               148.4455
 Red. masses --      5.4833                 4.7175                 3.7916
 Frc consts  --      0.0510                 0.0498                 0.0492
 IR Inten    --      4.1671                 4.8782                 3.8834

                     10                     11                     12
                      A                      A                      A
 Frequencies --    193.7368               241.6930               279.8004
 Red. masses --      4.7295                 2.5897                 5.1037
 Frc consts  --      0.1046                 0.0891                 0.2354
 IR Inten    --      0.9687                31.3320                 2.0090

                     13                     14                     15
                      A                      A                      A
 Frequencies --    303.9374               310.3600               329.5115
 Red. masses --      1.6764                 1.6678                 3.5334
 Frc consts  --      0.0912                 0.0947                 0.2260
 IR Inten    --     23.9577                22.0828                 0.8548

                     16                     17                     18
                      A                      A                      A
 Frequencies --    345.5540               384.0427               431.0254
 Red. masses --      5.0537                 4.1724                 2.7184
 Frc consts  --      0.3555                 0.3626                 0.2976
 IR Inten    --      6.1175                 5.0133                35.1683

                     19                     20                     21
                      A                      A                      A
 Frequencies --    495.0714               562.1886               570.6486
 Red. masses --      1.2808                 2.2435                 1.6892
 Frc consts  --      0.1850                 0.4178                 0.3241
 IR Inten    --     65.4782                22.8662                46.9043

                     22                     23                     24
                      A                      A                      A
 Frequencies --    592.9389               619.1889               630.6162
 Red. masses --      1.7202                 2.1448                 3.7227
 Frc consts  --      0.3563                 0.4845                 0.8722
 IR Inten    --     47.1729                 2.0634                39.8903

                     25                     26                     27
                      A                      A                      A
 Frequencies --    666.6151               676.9623               684.9185
 Red. masses --      2.2674                 3.0891                 2.4730
 Frc consts  --      0.5936                 0.8341                 0.6835
 IR Inten    --     76.8475                 5.6453                 1.1917

                     28                     29                     30
                      A                      A                      A
 Frequencies --    740.2416               775.6430               817.3564
 Red. masses --      3.3826                 4.0493                 2.6851
 Frc consts  --      1.0921                 1.4353                 1.0569
 IR Inten    --     15.9378                 4.5110                12.8810

                     31                     32                     33
                      A                      A                      A
 Frequencies --    818.7524               856.9570               861.2888
 Red. masses --      1.4444                 1.4880                 1.4613
 Frc consts  --      0.5705                 0.6438                 0.6387
 IR Inten    --     17.3856                85.3505                23.4243

                     34                     35                     36
                      A                      A                      A
 Frequencies --    887.4044               903.7132               942.1996
 Red. masses --      1.9131                 2.2093                 5.4934
 Frc consts  --      0.8876                 1.0631                 2.8733
 IR Inten    --      9.4283                20.4807                13.0446

                     37                     38                     39
                      A                      A                      A
 Frequencies --    957.6683              1004.9639              1015.3331
 Red. masses --      2.3484                 4.8226                 3.2336
 Frc consts  --      1.2690                 2.8697                 1.9640
 IR Inten    --      7.7567                 5.1399                12.8103

                     40                     41                     42
                      A                      A                      A
 Frequencies --   1032.8837              1062.8888              1098.8869
 Red. masses --      3.4742                 2.4821                 3.2481
 Frc consts  --      2.1838                 1.6522                 2.3109
 IR Inten    --     11.2147                13.8274                44.2056

                     43                     44                     45
                      A                      A                      A
 Frequencies --   1115.2852              1122.0951              1142.6640
 Red. masses --      1.5906                 1.8250                 2.2622
 Frc consts  --      1.1657                 1.3539                 1.7403
 IR Inten    --     24.8116                27.8537                18.6862

                     46                     47                     48
                      A                      A                      A
 Frequencies --   1162.1440              1185.6259              1193.3969
 Red. masses --      1.7902                 2.1642                 1.4139
 Frc consts  --      1.4246                 1.7924                 1.1864
 IR Inten    --    163.5924                52.8704                12.0570

                     49                     50                     51
                      A                      A                      A
 Frequencies --   1234.7751              1242.5432              1259.8487
 Red. masses --      1.3432                 1.4856                 2.2531
 Frc consts  --      1.2066                 1.3513                 2.1070
 IR Inten    --     19.2393                18.5887                17.1931

                     52                     53                     54
                      A                      A                      A
 Frequencies --   1278.7448              1305.3698              1326.6974
 Red. masses --      1.4630                 1.3978                 1.2375
 Frc consts  --      1.4095                 1.4034                 1.2834
 IR Inten    --      6.5118                 5.3394                 2.6625

                     55                     56                     57
                      A                      A                      A
 Frequencies --   1349.5005              1356.1998              1379.1078
 Red. masses --      1.2542                 1.5895                 1.5277
 Frc consts  --      1.3458                 1.7225                 1.7119
 IR Inten    --      5.4744                47.3730                20.1713

                     58                     59                     60
                      A                      A                      A
 Frequencies --   1391.0176              1414.3065              1424.8144
 Red. masses --      2.8120                 2.1973                 1.3924
 Frc consts  --      3.2057                 2.5896                 1.6655
 IR Inten    --     18.6264                67.0920                10.9630

                     61                     62                     63
                      A                      A                      A
 Frequencies --   1425.6480              1452.0130              1474.3522
 Red. masses --      2.5901                 1.1072                 1.1588
 Frc consts  --      3.1016                 1.3754                 1.4841
 IR Inten    --     29.2160                19.8971                23.4375

                     64                     65                     66
                      A                      A                      A
 Frequencies --   1498.9725              1501.6088              1527.9082
 Red. masses --      3.0882                 1.0856                 2.1801
 Frc consts  --      4.0882                 1.4422                 2.9986
 IR Inten    --     21.8653                 2.5668               323.6883

                     67                     68                     69
                      A                      A                      A
 Frequencies --   1607.3199              1652.3370              1730.0848
 Red. masses --      4.3420                 1.1274                 7.0602
 Frc consts  --      6.6091                 1.8135                12.4509
 IR Inten    --      5.4539                72.2680               170.3784

                     70                     71                     72
                      A                      A                      A
 Frequencies --   1808.2125              2992.2505              3025.9615
 Red. masses --      9.5028                 1.0704                 1.0718
 Frc consts  --     18.3063                 5.6469                 5.7824
 IR Inten    --    315.9497                51.0285                23.7184

                     73                     74                     75
                      A                      A                      A
 Frequencies --   3028.0291              3052.7608              3066.3230
 Red. masses --      1.0621                 1.0825                 1.0919
 Frc consts  --      5.7374                 5.9436                 6.0490
 IR Inten    --     14.6387                11.7505                29.9327

                     76                     77                     78
                      A                      A                      A
 Frequencies --   3074.3935              3127.6220              3242.5039
 Red. masses --      1.0990                 1.0912                 1.0946
 Frc consts  --      6.1200                 6.2891                 6.7804
 IR Inten    --     18.9322                 1.0912                 4.4969

                     79                     80                     81
                      A                      A                      A
 Frequencies --   3246.5092              3510.9444              3588.2040
 Red. masses --      1.0999                 1.0495                 1.0931
 Frc consts  --      6.8302                 7.6220                 8.2919
 IR Inten    --      1.4355                 5.3979                 9.4980

                     82                     83                     84
                      A                      A                      A
 Frequencies --   3610.9279              3660.0998              3746.3045
 Red. masses --      1.0777                 1.0807                 1.0642
 Frc consts  --      8.2789                 8.5298                 8.8002
 IR Inten    --     72.0070               103.8721                94.6666

 - Thermochemistry -
 -------------------
 Temperature   298.150 Kelvin.  Pressure   1.00000 Atm.
 Atom     1 has atomic number  8 and mass  15.99491

 Molecular mass:   226.10659 amu.
 Principal axes and moments of inertia in atomic units:
                           1         2         3
     Eigenvalues --  2484.216415877.418738017.66782
           X            0.98959   0.07542   0.12259
           Y           -0.07839  -0.43194   0.89849
           Z           -0.12072   0.89874   0.42153
 This molecule is an asymmetric top.
 Rotational symmetry number  1.
 Warning -- assumption of classical behavior for rotation
           may cause significant error
 Rotational temperatures (Kelvin)      0.03487     0.01474     0.01080
 Rotational constants (GHZ):           0.72648     0.30706     0.22510
 Zero-point vibrational energy     641767.5 (Joules/Mol)
                                  153.38610 (Kcal/Mol)
 Warning -- explicit consideration of  23 degrees of freedom as
           vibrations may cause significant error
 Vibrational temperatures:     15.47    36.96    48.85    64.18    92.92
          (Kelvin)            110.92   180.86   192.64   213.58   278.74
                              347.74   402.57   437.30   446.54   474.09
                              497.17   552.55   620.15   712.30   808.86
                              821.03   853.11   890.87   907.31   959.11
                              974.00   985.44  1065.04  1115.98  1175.99
                             1178.00  1232.97  1239.20  1276.78  1300.24
                             1355.61  1377.87  1445.92  1460.84  1486.09
                             1529.26  1581.05  1604.64  1614.44  1644.04
                             1672.06  1705.85  1717.03  1776.56  1787.74
                             1812.64  1839.83  1878.13  1908.82  1941.63
                             1951.27  1984.23  2001.36  2034.87  2049.99
                             2051.19  2089.12  2121.26  2156.68  2160.48
                             2198.32  2312.57  2377.34  2489.20  2601.61
                             4305.18  4353.68  4356.65  4392.24  4411.75
                             4423.36  4499.94  4665.23  4671.00  5051.46
                             5162.62  5195.31  5266.06  5390.09

 Zero-point correction=                           0.244436 (Hartree/Particle)
 Thermal correction to Energy=                    0.260583
 Thermal correction to Enthalpy=                  0.261527
 Thermal correction to Gibbs Free Energy=         0.196829
 Sum of electronic and zero-point Energies=           -796.191463
 Sum of electronic and thermal Energies=              -796.175316
 Sum of electronic and thermal Enthalpies=            -796.174372
 Sum of electronic and thermal Free Energies=         -796.239071

                     E (Thermal)             CV                S
                      KCal/Mol        Cal/Mol-Kelvin    Cal/Mol-Kelvin
 Total                  163.518             58.512            136.169
 Electronic               0.000              0.000              0.000
 Translational            0.889              2.981             42.150
 Rotational               0.889              2.981             33.126
 Vibrational            161.741             52.551             60.894
 Vibration     1          0.593              1.987              7.867
 Vibration     2          0.593              1.985              6.138
 Vibration     3          0.594              1.983              5.584
 Vibration     4          0.595              1.980              5.043
 Vibration     5          0.597              1.971              4.312
 Vibration     6          0.599              1.964              3.964
 Vibration     7          0.611              1.927              3.011
 Vibration     8          0.613              1.919              2.889
 Vibration     9          0.618              1.904              2.692
 Vibration    10          0.635              1.849              2.192
 Vibration    11          0.658              1.776              1.790
 Vibration    12          0.680              1.711              1.535
 Vibration    13          0.695              1.666              1.395
 Vibration    14          0.699              1.654              1.360
 Vibration    15          0.712              1.617              1.262
 Vibration    16          0.724              1.584              1.186
 Vibration    17          0.753              1.504              1.023
 Vibration    18          0.792              1.403              0.855
 Vibration    19          0.851              1.261              0.671
 Vibration    20          0.918              1.113              0.519
 Vibration    21          0.927              1.095              0.503
 Vibration    22          0.950              1.047              0.462
 Vibration    23          0.979              0.991              0.418

 Normal termination of Gaussian 09 at Sat Jul 24 21:07:10 2021.
