 Gaussian 09, Revision D.01,
 Gaussian 09:  ES64L-G09RevD.01 24-Apr-2013

 ----------------------------------------------------------------------
 # B3LYP/6-311++G(2df,2pd) EmpiricalDispersion=GD3BJ opt=calcfc freq=no
 raman nosymm integral(ultrafinegrid)
 ----------------------------------------------------------------------

 ------------------------------------------------------------
 Candidate Structure: Conf:455 OPT and FREQ calc in gas phase
 ------------------------------------------------------------
 Symbolic Z-matrix:
 Charge =  0 Multiplicity = 1

 SCF Done:  E(RB3LYP) =  -796.423817858     A.U. after   14 cycles
 SCF Done:  E(RB3LYP) =  -796.425585367     A.U. after   15 cycles
 SCF Done:  E(RB3LYP) =  -796.425752391     A.U. after   14 cycles
 SCF Done:  E(RB3LYP) =  -796.426312942     A.U. after   13 cycles
 SCF Done:  E(RB3LYP) =  -796.426543628     A.U. after   12 cycles
 SCF Done:  E(RB3LYP) =  -796.426631964     A.U. after   13 cycles
 SCF Done:  E(RB3LYP) =  -796.426626072     A.U. after   11 cycles
 SCF Done:  E(RB3LYP) =  -796.426655253     A.U. after   11 cycles
 SCF Done:  E(RB3LYP) =  -796.426657912     A.U. after   10 cycles
 SCF Done:  E(RB3LYP) =  -796.426658562     A.U. after    9 cycles
 SCF Done:  E(RB3LYP) =  -796.426658614     A.U. after    8 cycles
 Optimization completed.
    -- Stationary point found.
 Normal termination of Gaussian 09 at Sat Jul 24 13:51:55 2021.

 ----------------------------------------------------------------------
 #N Geom=AllCheck Guess=TCheck SCRF=Check GenChk RB3LYP/6-311++G(2df,2p
 d) Freq
 ----------------------------------------------------------------------

 Structure from the checkpoint file:  "conf-455.chk"
 ------------------------------------------------------------
 Candidate Structure: Conf:455 OPT and FREQ calc in gas phase
 ------------------------------------------------------------
 Charge =  0 Multiplicity = 1

                          Input orientation:
 ---------------------------------------------------------------------
 Center     Atomic      Atomic             Coordinates (Angstroms)
 Number     Number       Type             X           Y           Z
 ---------------------------------------------------------------------
      1          8           0        0.431905   -0.967493   -1.170174
      2          6           0        1.045941   -0.566636   -0.187587
      3          7           0        0.561530   -0.711296    1.072384
      4          6           0       -0.574625   -1.548624    1.391596
      5          6           0       -0.177375   -3.035307    1.262809
      6          8           0       -1.192569   -3.923508    1.185093
      7          8           0        0.956664   -3.409864    1.295219
      8          6           0       -1.879865   -1.180849    0.634923
      9          6           0       -2.117599    0.281970    0.507066
     10          6           0       -2.773120    1.193579    1.294232
     11          7           0       -2.691193    2.453332    0.748536
     12          6           0       -1.997729    2.311684   -0.357466
     13          7           0       -1.630899    1.015799   -0.551915
     14          6           0        2.339959    0.202361   -0.319058
     15          6           0        2.110717    1.535961   -1.060072
     16          7           0        3.302432    2.332966   -1.303595
     17          1           0        1.176033   -0.478137    1.831864
     18          1           0       -0.767391   -1.393591    2.455206
     19          1           0       -2.043812   -3.482009    1.091384
     20          1           0       -2.720899   -1.603773    1.190401
     21          1           0       -1.862366   -1.635314   -0.353500
     22          1           0       -3.304824    1.010963    2.213231
     23          1           0       -1.740214    3.096762   -1.048014
     24          1           0       -1.056303    0.632434   -1.287655
     25          1           0        2.796294    0.391976    0.654094
     26          1           0        3.026689   -0.418357   -0.896159
     27          1           0        1.639865    1.318157   -2.018508
     28          1           0        1.405171    2.144370   -0.490892
     29          1           0        3.760641    2.599278   -0.441527
     30          1           0        3.976850    1.833064   -1.868961
 ---------------------------------------------------------------------

 SCF Done:  E(RB3LYP) =  -796.426658614     A.U. after    1 cycles

 Alpha  occ. eigenvalues --  -19.19353 -19.13009 -19.11389 -14.37027 -14.36825
 Alpha  occ. eigenvalues --  -14.31001 -14.29769 -10.32399 -10.29634 -10.26161
 Alpha  occ. eigenvalues --  -10.22783 -10.21754 -10.21446 -10.21399 -10.19530
 Alpha  occ. eigenvalues --  -10.18863  -1.12975  -1.06865  -1.04876  -1.02392
 Alpha  occ. eigenvalues --   -0.96070  -0.90392  -0.87934  -0.82831  -0.78089
 Alpha  occ. eigenvalues --   -0.75090  -0.69579  -0.65800  -0.64100  -0.62265
 Alpha  occ. eigenvalues --   -0.61370  -0.60121  -0.57241  -0.54533  -0.54499
 Alpha  occ. eigenvalues --   -0.52601  -0.49947  -0.48609  -0.47518  -0.46754
 Alpha  occ. eigenvalues --   -0.46355  -0.44826  -0.44535  -0.43702  -0.42992
 Alpha  occ. eigenvalues --   -0.42755  -0.41884  -0.41737  -0.40949  -0.40061
 Alpha  occ. eigenvalues --   -0.38663  -0.36615  -0.34703  -0.30866  -0.29746
 Alpha  occ. eigenvalues --   -0.29222  -0.28953  -0.27748  -0.25790  -0.23951
 Alpha virt. eigenvalues --   -0.03628  -0.02526  -0.01952  -0.01327  -0.00707
 Alpha virt. eigenvalues --    0.00187   0.00616   0.00890   0.01280   0.01943
 Alpha virt. eigenvalues --    0.02863   0.03349   0.03413   0.03978   0.04403

 Mulliken charges:
               1
     1  O   -0.384000
     2  C   -0.430599
     3  N    0.135360
     4  C    0.336863
     5  C    0.094950
     6  O   -0.172848
     7  O   -0.330000
     8  C   -0.114021
     9  C    0.128903
    10  C   -0.367147
    11  N   -0.267287
    12  C    0.001272
    13  N    0.095292
    14  C    0.362561
    15  C   -0.309685
    16  N   -0.161066
    17  H    0.153260
    18  H    0.067381
    19  H    0.187435
    20  H    0.035928
    21  H    0.117813
    22  H    0.069274
    23  H    0.102834
    24  H    0.165001
    25  H    0.014416
    26  H    0.050779
    27  H    0.094097
    28  H    0.095208
    29  H    0.113166
    30  H    0.114861
 Sum of Mulliken charges =   0.00000

 Dipole moment (field-independent basis, Debye):
    X=              0.9309    Y=             -0.0627    Z=              1.3744  Tot=              1.6612
 Quadrupole moment (field-independent basis, Debye-Ang):
   XX=            -90.6348   YY=           -122.7946   ZZ=            -91.3350
   XY=             18.1972   XZ=              0.8822   YZ=             -2.3644

  Exact polarizability: 149.493   0.493 161.927 -15.135 -13.868 126.827
 Approx polarizability: 208.706  -1.915 222.177 -16.492  -3.954 213.868

                      1                      2                      3
                      A                      A                      A
 Frequencies --     19.6624                28.1643                43.1752
 Red. masses --      4.1016                 5.7563                 4.2913
 Frc consts  --      0.0009                 0.0027                 0.0047
 IR Inten    --      0.4786                 3.7287                 9.2789

                      4                      5                      6
                      A                      A                      A
 Frequencies --     61.0811                75.0243                89.0368
 Red. masses --      4.7074                 5.1014                 5.1167
 Frc consts  --      0.0103                 0.0169                 0.0239
 IR Inten    --      2.6326                 7.5390                 1.2856

                      7                      8                      9
                      A                      A                      A
 Frequencies --     92.2730               122.0706               160.9142
 Red. masses --      2.3504                 5.1509                 5.2577
 Frc consts  --      0.0118                 0.0452                 0.0802
 IR Inten    --      1.2818                 9.7468                11.0844

                     10                     11                     12
                      A                      A                      A
 Frequencies --    203.3968               207.3703               281.3939
 Red. masses --      5.3833                 5.6631                 1.3319
 Frc consts  --      0.1312                 0.1435                 0.0621
 IR Inten    --      6.2289                12.0440                38.1725

                     13                     14                     15
                      A                      A                      A
 Frequencies --    289.6752               330.1625               345.7543
 Red. masses --      2.9182                 4.2147                 2.3903
 Frc consts  --      0.1443                 0.2707                 0.1684
 IR Inten    --      4.0335                 1.6703                 5.1868

                     16                     17                     18
                      A                      A                      A
 Frequencies --    353.8996               403.2479               414.7426
 Red. masses --      5.3399                 3.1855                 2.8729
 Frc consts  --      0.3940                 0.3052                 0.2912
 IR Inten    --     17.1917                10.3177                29.6684

                     19                     20                     21
                      A                      A                      A
 Frequencies --    483.6856               497.5038               518.2516
 Red. masses --      1.3514                 1.3653                 3.7261
 Frc consts  --      0.1863                 0.1991                 0.5896
 IR Inten    --     46.8068                51.5903                 5.7918

                     22                     23                     24
                      A                      A                      A
 Frequencies --    599.8789               639.8292               671.6739
 Red. masses --      3.8886                 2.5450                 4.3098
 Frc consts  --      0.8245                 0.6139                 1.1456
 IR Inten    --      8.8289                57.1118                14.4990

                     25                     26                     27
                      A                      A                      A
 Frequencies --    681.2910               718.4433               722.8755
 Red. masses --      3.5450                 3.6878                 1.3393
 Frc consts  --      0.9695                 1.1215                 0.4123
 IR Inten    --     27.4722                 4.2601                53.6966

                     28                     29                     30
                      A                      A                      A
 Frequencies --    759.7507               773.0987               790.9087
 Red. masses --      5.0450                 1.2064                 3.2056
 Frc consts  --      1.7158                 0.4248                 1.1814
 IR Inten    --      8.9951                 2.8760                 8.1317

                     31                     32                     33
                      A                      A                      A
 Frequencies --    806.8105               827.6037               839.7493
 Red. masses --      1.5128                 1.4421                 1.9700
 Frc consts  --      0.5802                 0.5820                 0.8185
 IR Inten    --    196.4845                20.4621                16.0761

                     34                     35                     36
                      A                      A                      A
 Frequencies --    867.1590               925.7628               939.7386
 Red. masses --      2.3848                 2.6717                 4.4436
 Frc consts  --      1.0566                 1.3491                 2.3121
 IR Inten    --      5.9878                 6.0168                 8.5930

                     37                     38                     39
                      A                      A                      A
 Frequencies --    951.5331               982.7179              1015.2981
 Red. masses --      4.4729                 1.4075                 4.7795
 Frc consts  --      2.3861                 0.8009                 2.9028
 IR Inten    --     10.2590                 1.0316                47.6054

                     40                     41                     42
                      A                      A                      A
 Frequencies --   1030.7120              1042.2400              1096.2823
 Red. masses --      3.4812                 3.0834                 2.3303
 Frc consts  --      2.1790                 1.9734                 1.6501
 IR Inten    --     22.0766                 5.7846                25.6011

                     43                     44                     45
                      A                      A                      A
 Frequencies --   1108.4936              1119.3544              1143.4301
 Red. masses --      2.2867                 1.5966                 2.3093
 Frc consts  --      1.6555                 1.1787                 1.7789
 IR Inten    --      8.9921                22.6202                10.6013

                     46                     47                     48
                      A                      A                      A
 Frequencies --   1155.5210              1176.5842              1206.1969
 Red. masses --      2.1478                 2.2365                 1.4786
 Frc consts  --      1.6897                 1.8241                 1.2675
 IR Inten    --     25.0335                 1.5955                 5.2881

                     49                     50                     51
                      A                      A                      A
 Frequencies --   1257.5281              1264.0015              1278.9400
 Red. masses --      1.7786                 2.0497                 1.4160
 Frc consts  --      1.6571                 1.9294                 1.3647
 IR Inten    --    112.9886                28.7389                29.8441

                     52                     53                     54
                      A                      A                      A
 Frequencies --   1294.7099              1295.7026              1305.9805
 Red. masses --      1.3131                 1.6413                 1.4796
 Frc consts  --      1.2969                 1.6235                 1.4868
 IR Inten    --      2.3297               261.1319               101.0047

                     55                     56                     57
                      A                      A                      A
 Frequencies --   1344.8111              1358.8347              1382.7035
 Red. masses --      1.4986                 1.4493                 1.3884
 Frc consts  --      1.5969                 1.5767                 1.5639
 IR Inten    --     19.3704                18.9711                24.6548

                     58                     59                     60
                      A                      A                      A
 Frequencies --   1384.1845              1393.5316              1404.0716
 Red. masses --      1.3033                 1.1977                 2.7381
 Frc consts  --      1.4712                 1.3704                 3.1804
 IR Inten    --     17.0292                10.6804                12.1290

                     61                     62                     63
                      A                      A                      A
 Frequencies --   1431.8207              1481.9695              1487.9274
 Red. masses --      2.8636                 1.1254                 1.1362
 Frc consts  --      3.4590                 1.4562                 1.4821
 IR Inten    --     22.7437                 5.3999                12.2001

                     64                     65                     66
                      A                      A                      A
 Frequencies --   1496.2806              1508.3883              1549.6756
 Red. masses --      3.1781                 1.0921                 1.8904
 Frc consts  --      4.1923                 1.4639                 2.6748
 IR Inten    --     27.3073                 4.3613               193.6338

                     67                     68                     69
                      A                      A                      A
 Frequencies --   1606.5345              1663.4581              1718.2001
 Red. masses --      4.3470                 1.0913                 7.7603
 Frc consts  --      6.6103                 1.7792                13.4981
 IR Inten    --      8.0529                28.8342               172.2560

                     70                     71                     72
                      A                      A                      A
 Frequencies --   1846.4533              3026.2120              3036.8357
 Red. masses --     10.9354                 1.0687                 1.0591
 Frc consts  --     21.9665                 5.7661                 5.7548
 IR Inten    --    276.2405                32.2360                 5.5440

                     73                     74                     75
                      A                      A                      A
 Frequencies --   3044.3066              3051.2626              3076.6549
 Red. masses --      1.0635                 1.0822                 1.0992
 Frc consts  --      5.8073                 5.9361                 6.1302
 IR Inten    --     32.7929                 9.9666                 1.1412

                     76                     77                     78
                      A                      A                      A
 Frequencies --   3098.8384              3105.1508              3232.5523
 Red. masses --      1.1063                 1.0949                 1.0963
 Frc consts  --      6.2595                 6.2202                 6.7495
 IR Inten    --     22.2375                 3.1819                 6.1399

                     79                     80                     81
                      A                      A                      A
 Frequencies --   3247.7118              3507.7697              3587.2184
 Red. masses --      1.0981                 1.0482                 1.0943
 Frc consts  --      6.8242                 7.5993                 8.2969
 IR Inten    --      1.0371                 1.6775                 3.3210

                     82                     83                     84
                      A                      A                      A
 Frequencies --   3594.3939              3650.4368              3808.4613
 Red. masses --      1.0825                 1.0778                 1.0655
 Frc consts  --      8.2401                 8.4623                 9.1058
 IR Inten    --    128.7997                36.3365                67.8562

 - Thermochemistry -
 -------------------
 Temperature   298.150 Kelvin.  Pressure   1.00000 Atm.
 Atom     1 has atomic number  8 and mass  15.99491

 Molecular mass:   226.10659 amu.
 Principal axes and moments of inertia in atomic units:
                           1         2         3
     Eigenvalues --  3247.780053979.965436595.10123
           X            0.27461   0.92338   0.26823
           Y            0.89505  -0.34741   0.27962
           Z           -0.35138  -0.16330   0.92188
 This molecule is an asymmetric top.
 Rotational symmetry number  1.
 Warning -- assumption of classical behavior for rotation
           may cause significant error
 Rotational temperatures (Kelvin)      0.02667     0.02176     0.01313
 Rotational constants (GHZ):           0.55568     0.45346     0.27365
 Zero-point vibrational energy     642615.6 (Joules/Mol)
                                  153.58881 (Kcal/Mol)
 Warning -- explicit consideration of  22 degrees of freedom as
           vibrations may cause significant error
 Vibrational temperatures:     28.29    40.52    62.12    87.88   107.94
          (Kelvin)            128.10   132.76   175.63   231.52   292.64
                              298.36   404.86   416.78   475.03   497.46
                              509.18   580.18   596.72   695.91   715.80
                              745.65   863.09   920.57   966.39   980.22
                             1033.68  1040.06  1093.11  1112.32  1137.94
                             1160.82  1190.74  1208.21  1247.65  1331.96
                             1352.07  1369.04  1413.91  1460.79  1482.96
                             1499.55  1577.30  1594.87  1610.50  1645.14
                             1662.53  1692.84  1735.45  1809.30  1818.61
                             1840.11  1862.80  1864.22  1879.01  1934.88
                             1955.06  1989.40  1991.53  2004.98  2020.14
                             2060.07  2132.22  2140.79  2152.81  2170.23
                             2229.63  2311.44  2393.34  2472.10  2656.63
                             4354.04  4369.32  4380.07  4390.08  4426.61
                             4458.53  4467.61  4650.92  4672.73  5046.89
                             5161.20  5171.52  5252.16  5479.52

 Zero-point correction=                           0.244759 (Hartree/Particle)
 Thermal correction to Energy=                    0.260880
 Thermal correction to Enthalpy=                  0.261824
 Thermal correction to Gibbs Free Energy=         0.198355
 Sum of electronic and zero-point Energies=           -796.181899
 Sum of electronic and thermal Energies=              -796.165779
 Sum of electronic and thermal Enthalpies=            -796.164835
 Sum of electronic and thermal Free Energies=         -796.228304

                     E (Thermal)             CV                S
                      KCal/Mol        Cal/Mol-Kelvin    Cal/Mol-Kelvin
 Total                  163.704             58.585            133.582
 Electronic               0.000              0.000              0.000
 Translational            0.889              2.981             42.150
 Rotational               0.889              2.981             32.811
 Vibrational            161.927             52.624             58.621
 Vibration     1          0.593              1.986              6.668
 Vibration     2          0.593              1.984              5.955
 Vibration     3          0.595              1.980              5.108
 Vibration     4          0.597              1.973              4.422
 Vibration     5          0.599              1.966              4.017
 Vibration     6          0.602              1.957              3.681
 Vibration     7          0.602              1.955              3.611
 Vibration     8          0.610              1.931              3.067
 Vibration     9          0.622              1.890              2.539
 Vibration    10          0.639              1.835              2.102
 Vibration    11          0.641              1.829              2.067
 Vibration    12          0.681              1.708              1.525
 Vibration    13          0.686              1.693              1.476
 Vibration    14          0.713              1.615              1.259
 Vibration    15          0.724              1.584              1.185
 Vibration    16          0.730              1.567              1.149
 Vibration    17          0.769              1.463              0.951
 Vibration    18          0.778              1.438              0.910
 Vibration    19          0.840              1.286              0.700
 Vibration    20          0.853              1.256              0.664
 Vibration    21          0.873              1.210              0.614
 Vibration    22          0.958              1.032              0.450

 Optimization completed.
    -- Stationary point found.
 Normal termination of Gaussian 09 at Sat Jul 24 20:39:30 2021.
