 Gaussian 09, Revision D.01,
 Gaussian 09:  ES64L-G09RevD.01 24-Apr-2013

 ----------------------------------------------------------------------
 # B3LYP/6-311++G(2df,2pd) EmpiricalDispersion=GD3BJ opt=calcfc freq=no
 raman nosymm integral(ultrafinegrid)
 ----------------------------------------------------------------------

 ------------------------------------------------------------
 Candidate Structure: Conf:801 OPT and FREQ calc in gas phase
 ------------------------------------------------------------
 Symbolic Z-matrix:
 Charge =  0 Multiplicity = 1

 SCF Done:  E(RB3LYP) =  -796.428523896     A.U. after   15 cycles
 SCF Done:  E(RB3LYP) =  -796.430879494     A.U. after   15 cycles
 SCF Done:  E(RB3LYP) =  -796.430154755     A.U. after   16 cycles
 SCF Done:  E(RB3LYP) =  -796.431398635     A.U. after   12 cycles
 SCF Done:  E(RB3LYP) =  -796.431855546     A.U. after   13 cycles
 SCF Done:  E(RB3LYP) =  -796.431959104     A.U. after   13 cycles
 SCF Done:  E(RB3LYP) =  -796.432029463     A.U. after   14 cycles
 SCF Done:  E(RB3LYP) =  -796.430092062     A.U. after   14 cycles
 SCF Done:  E(RB3LYP) =  -796.432134277     A.U. after   10 cycles
 SCF Done:  E(RB3LYP) =  -796.432288536     A.U. after   12 cycles
 SCF Done:  E(RB3LYP) =  -796.432332268     A.U. after   11 cycles
 SCF Done:  E(RB3LYP) =  -796.432354862     A.U. after   11 cycles
 SCF Done:  E(RB3LYP) =  -796.432367772     A.U. after   12 cycles
 SCF Done:  E(RB3LYP) =  -796.432382336     A.U. after   12 cycles
 SCF Done:  E(RB3LYP) =  -796.432388909     A.U. after   10 cycles
 SCF Done:  E(RB3LYP) =  -796.432393370     A.U. after   11 cycles
 SCF Done:  E(RB3LYP) =  -796.432393439     A.U. after    9 cycles
 SCF Done:  E(RB3LYP) =  -796.432393444     A.U. after    8 cycles
 Optimization completed.
    -- Stationary point found.
 Normal termination of Gaussian 09 at Sat Jul 24 17:22:21 2021.

 ----------------------------------------------------------------------
 #N Geom=AllCheck Guess=TCheck SCRF=Check GenChk RB3LYP/6-311++G(2df,2p
 d) Freq
 ----------------------------------------------------------------------

 Structure from the checkpoint file:  "conf-801.chk"
 ------------------------------------------------------------
 Candidate Structure: Conf:801 OPT and FREQ calc in gas phase
 ------------------------------------------------------------
 Charge =  0 Multiplicity = 1

                          Input orientation:
 ---------------------------------------------------------------------
 Center     Atomic      Atomic             Coordinates (Angstroms)
 Number     Number       Type             X           Y           Z
 ---------------------------------------------------------------------
      1          8           0        1.471087    0.981243   -1.013224
      2          6           0        1.758762    0.317433   -0.027917
      3          7           0        0.813974   -0.070993    0.870016
      4          6           0       -0.548088    0.389328    0.770990
      5          6           0       -1.197905    0.237610    2.144641
      6          8           0       -2.408813    0.792791    2.289406
      7          8           0       -0.674236   -0.352617    3.051624
      8          6           0       -1.326600   -0.382643   -0.328529
      9          6           0       -2.697601    0.151409   -0.570064
     10          6           0       -3.155928    1.401469   -0.913762
     11          7           0       -4.532482    1.416371   -0.975853
     12          6           0       -4.913247    0.200144   -0.676483
     13          7           0       -3.841371   -0.604710   -0.419040
     14          6           0        3.177763   -0.113442    0.281856
     15          6           0        3.930791   -0.541390   -0.973179
     16          7           0        5.330273   -0.816257   -0.649432
     17          1           0        1.063719   -0.533745    1.730597
     18          1           0       -0.546212    1.445659    0.491976
     19          1           0       -2.718105    1.177571    1.451656
     20          1           0       -1.369909   -1.436771   -0.050312
     21          1           0       -0.722955   -0.306890   -1.231611
     22          1           0       -2.571552    2.276787   -1.142394
     23          1           0       -5.928745   -0.154307   -0.627567
     24          1           0       -3.872828   -1.571526   -0.143738
     25          1           0        3.183322   -0.913476    1.025686
     26          1           0        3.695775    0.739396    0.726719
     27          1           0        3.895014    0.275508   -1.691385
     28          1           0        3.408254   -1.390696   -1.433470
     29          1           0        5.421986   -1.653031   -0.086483
     30          1           0        5.875625   -0.960326   -1.489010
 ---------------------------------------------------------------------

 SCF Done:  E(RB3LYP) =  -796.432393444     A.U. after    1 cycles

 Alpha  occ. eigenvalues --  -19.18849 -19.13392 -19.10055 -14.39328 -14.35382
 Alpha  occ. eigenvalues --  -14.31433 -14.30197 -10.32617 -10.28378 -10.25221
 Alpha  occ. eigenvalues --  -10.24469 -10.23230 -10.21441 -10.20421 -10.20128
 Alpha  occ. eigenvalues --  -10.18561  -1.12996  -1.05619  -1.04887  -1.04210
 Alpha  occ. eigenvalues --   -0.94891  -0.89733  -0.89396  -0.82899  -0.77967
 Alpha  occ. eigenvalues --   -0.75088  -0.69818  -0.64981  -0.64070  -0.63064
 Alpha  occ. eigenvalues --   -0.61945  -0.60143  -0.57604  -0.55616  -0.51518
 Alpha  occ. eigenvalues --   -0.51273  -0.49696  -0.49458  -0.47886  -0.47075
 Alpha  occ. eigenvalues --   -0.46617  -0.45582  -0.44380  -0.43601  -0.43388
 Alpha  occ. eigenvalues --   -0.43289  -0.42575  -0.40678  -0.40139  -0.40000
 Alpha  occ. eigenvalues --   -0.36541  -0.35850  -0.34865  -0.31235  -0.30725
 Alpha  occ. eigenvalues --   -0.29343  -0.28506  -0.27306  -0.25460  -0.25365
 Alpha virt. eigenvalues --   -0.02980  -0.02341  -0.01604  -0.00739  -0.00166
 Alpha virt. eigenvalues --   -0.00033   0.00052   0.00913   0.01300   0.01862
 Alpha virt. eigenvalues --    0.02436   0.02827   0.03118   0.03850   0.04076

 Mulliken charges:
               1
     1  O   -0.406125
     2  C   -0.080496
     3  N    0.079601
     4  C    0.062605
     5  C    0.052719
     6  O   -0.196136
     7  O   -0.352960
     8  C    0.052838
     9  C   -0.013589
    10  C   -0.306159
    11  N   -0.259784
    12  C    0.087059
    13  N    0.053561
    14  C    0.131620
    15  C   -0.148707
    16  N   -0.170998
    17  H    0.144900
    18  H    0.121778
    19  H    0.274047
    20  H    0.031672
    21  H    0.119572
    22  H    0.097558
    23  H    0.101418
    24  H    0.136508
    25  H    0.013109
    26  H    0.072726
    27  H    0.063053
    28  H    0.037944
    29  H    0.093421
    30  H    0.107244
 Sum of Mulliken charges =   0.00000

 Dipole moment (field-independent basis, Debye):
    X=             -0.0036    Y=             -4.6403    Z=             -1.0065  Tot=              4.7482
 Quadrupole moment (field-independent basis, Debye-Ang):
   XX=            -93.5000   YY=            -92.5349   ZZ=           -111.6370
   XY=              6.3796   XZ=             -0.4908   YZ=              6.0318

  Exact polarizability: 193.648 -10.367 123.514   2.901  -9.300 128.978
 Approx polarizability: 234.635  -9.165 209.694   6.289 -25.317 197.000

                      1                      2                      3
                      A                      A                      A
 Frequencies --      9.1190                23.0670                43.5819
 Red. masses --      3.4211                 4.9723                 5.1999
 Frc consts  --      0.0002                 0.0016                 0.0058
 IR Inten    --      0.2742                 2.0418                 1.7526

                      4                      5                      6
                      A                      A                      A
 Frequencies --     51.7003                73.0834                81.6894
 Red. masses --      2.4889                 6.0009                 4.3892
 Frc consts  --      0.0039                 0.0189                 0.0173
 IR Inten    --      5.4431                11.1739                 3.7253

                      7                      8                      9
                      A                      A                      A
 Frequencies --     95.2774               100.6327               162.2162
 Red. masses --      4.8205                 7.1165                 4.2762
 Frc consts  --      0.0258                 0.0425                 0.0663
 IR Inten    --      1.9961                 3.2080                 8.7936

                     10                     11                     12
                      A                      A                      A
 Frequencies --    188.3006               209.6670               240.4978
 Red. masses --      3.9324                 4.6545                 1.2277
 Frc consts  --      0.0821                 0.1206                 0.0418
 IR Inten    --      8.3424                 9.3366                43.4397

                     13                     14                     15
                      A                      A                      A
 Frequencies --    279.6154               324.1327               329.8194
 Red. masses --      5.8980                 5.3263                 2.6548
 Frc consts  --      0.2717                 0.3297                 0.1701
 IR Inten    --      1.2254                 2.5195                 3.4367

                     16                     17                     18
                      A                      A                      A
 Frequencies --    347.5054               393.5656               403.4949
 Red. masses --      5.6473                 3.8376                 4.4470
 Frc consts  --      0.4018                 0.3502                 0.4266
 IR Inten    --      8.1726                 8.2661                 6.6883

                     19                     20                     21
                      A                      A                      A
 Frequencies --    534.7817               551.5498               556.5673
 Red. masses --      1.9592                 1.3646                 1.7968
 Frc consts  --      0.3301                 0.2446                 0.3279
 IR Inten    --     59.6944                57.2018                40.7115

                     22                     23                     24
                      A                      A                      A
 Frequencies --    615.5818               642.0731               648.4988
 Red. masses --      1.9078                 1.9867                 2.4452
 Frc consts  --      0.4259                 0.4826                 0.6059
 IR Inten    --     64.4693                24.1450                 5.4421

                     25                     26                     27
                      A                      A                      A
 Frequencies --    675.0537               684.8388               737.4127
 Red. masses --      2.6615                 3.3053                 3.4411
 Frc consts  --      0.7146                 0.9134                 1.1025
 IR Inten    --      7.7593                24.2666                 8.6156

                     28                     29                     30
                      A                      A                      A
 Frequencies --    753.6841               768.0976               797.9240
 Red. masses --      3.4098                 3.6941                 1.4392
 Frc consts  --      1.1412                 1.2841                 0.5399
 IR Inten    --     19.5400                 7.7242                35.2313

                     31                     32                     33
                      A                      A                      A
 Frequencies --    825.2664               829.1001               831.9577
 Red. masses --      2.0505                 1.3535                 1.6128
 Frc consts  --      0.8228                 0.5482                 0.6577
 IR Inten    --      7.2112                90.0472                 7.5365

                     34                     35                     36
                      A                      A                      A
 Frequencies --    864.0124               943.4804               953.9403
 Red. masses --      1.4624                 5.7785                 3.0318
 Frc consts  --      0.6432                 3.0306                 1.6255
 IR Inten    --     29.7256                12.4450                19.6922

                     37                     38                     39
                      A                      A                      A
 Frequencies --    981.2484              1013.4053              1031.2916
 Red. masses --      2.2032                 3.4404                 3.5357
 Frc consts  --      1.2498                 2.0817                 2.2156
 IR Inten    --      4.6607                 7.3015                 8.0553

                     40                     41                     42
                      A                      A                      A
 Frequencies --   1037.3055              1062.9787              1093.2433
 Red. masses --      3.4813                 2.7892                 2.2394
 Frc consts  --      2.2070                 1.8569                 1.5769
 IR Inten    --      4.6962                18.7524                28.5221

                     43                     44                     45
                      A                      A                      A
 Frequencies --   1108.1968              1125.7750              1141.1148
 Red. masses --      1.6203                 2.0875                 2.4646
 Frc consts  --      1.1724                 1.5588                 1.8909
 IR Inten    --     13.4157                18.4757                10.4857

                     46                     47                     48
                      A                      A                      A
 Frequencies --   1167.4566              1171.5232              1209.6305
 Red. masses --      1.5069                 1.7505                 2.1344
 Frc consts  --      1.2101                 1.4155                 1.8401
 IR Inten    --      9.2310                18.7305                34.3105

                     49                     50                     51
                      A                      A                      A
 Frequencies --   1228.6546              1251.4195              1262.7027
 Red. masses --      1.6039                 1.9369                 1.4303
 Frc consts  --      1.4266                 1.7872                 1.3436
 IR Inten    --     26.1716                19.8144                 6.5635

                     52                     53                     54
                      A                      A                      A
 Frequencies --   1282.8582              1312.0831              1324.9615
 Red. masses --      1.4518                 1.3981                 1.4486
 Frc consts  --      1.4077                 1.4182                 1.4983
 IR Inten    --      1.4206                13.0470                98.6124

                     55                     56                     57
                      A                      A                      A
 Frequencies --   1335.7940              1360.8597              1363.4586
 Red. masses --      1.1115                 1.4537                 1.4041
 Frc consts  --      1.1685                 1.5861                 1.5379
 IR Inten    --     11.1767               147.7410                 0.5345

                     58                     59                     60
                      A                      A                      A
 Frequencies --   1399.1948              1409.3752              1424.9007
 Red. masses --      2.3822                 1.9174                 2.5664
 Frc consts  --      2.7478                 2.2439                 3.0700
 IR Inten    --     51.1332                77.5174                 1.3761

                     61                     62                     63
                      A                      A                      A
 Frequencies --   1425.3555              1472.2677              1486.1538
 Red. masses --      1.6679                 1.0948                 1.9273
 Frc consts  --      1.9965                 1.3982                 2.5080
 IR Inten    --     69.6865                 8.7898                18.3346

                     64                     65                     66
                      A                      A                      A
 Frequencies --   1492.8230              1519.3316              1520.2048
 Red. masses --      1.6066                 1.1844                 1.9228
 Frc consts  --      2.1095                 1.6109                 2.6181
 IR Inten    --     21.1556                47.1604               291.9968

                     67                     68                     69
                      A                      A                      A
 Frequencies --   1596.8908              1661.4119              1725.1920
 Red. masses --      4.0679                 1.0914                 9.2605
 Frc consts  --      6.1119                 1.7749                16.2391
 IR Inten    --     11.2166                24.3489               232.3025

                     70                     71                     72
                      A                      A                      A
 Frequencies --   1821.9768              2958.2643              3032.6358
 Red. masses --      9.5468                 1.0741                 1.0597
 Frc consts  --     18.6722                 5.5380                 5.7421
 IR Inten    --    316.2702                64.2576                15.6941

                     73                     74                     75
                      A                      A                      A
 Frequencies --   3041.2143              3055.3963              3069.4053
 Red. masses --      1.0777                 1.0664                 1.0988
 Frc consts  --      5.8726                 5.8657                 6.0995
 IR Inten    --      7.6152                17.3955                 7.8446

                     76                     77                     78
                      A                      A                      A
 Frequencies --   3099.9785              3101.4306              3239.0974
 Red. masses --      1.0909                 1.1023                 1.0963
 Frc consts  --      6.1766                 6.2473                 6.7767
 IR Inten    --     14.4359                 1.6065                 3.1836

                     79                     80                     81
                      A                      A                      A
 Frequencies --   3251.0884              3507.1063              3585.9531
 Red. masses --      1.0987                 1.0497                 1.0930
 Frc consts  --      6.8418                 7.6069                 8.2808
 IR Inten    --      1.1824                 0.5115                 2.4068

                     82                     83                     84
                      A                      A                      A
 Frequencies --   3598.6751              3633.9455              3648.7106
 Red. masses --      1.0776                 1.0668                 1.0812
 Frc consts  --      8.2221                 8.3006                 8.4809
 IR Inten    --     72.8425               306.1268                60.9562

 - Thermochemistry -
 -------------------
 Temperature   298.150 Kelvin.  Pressure   1.00000 Atm.
 Atom     1 has atomic number  8 and mass  15.99491

 Molecular mass:   226.10659 amu.
 Principal axes and moments of inertia in atomic units:
                           1         2         3
     Eigenvalues --  1701.275837742.411438791.56820
           X            0.99340   0.02328   0.11231
           Y           -0.10971  -0.09295   0.98961
           Z           -0.03348   0.99540   0.08979
 This molecule is an asymmetric top.
 Rotational symmetry number  1.
 Warning -- assumption of classical behavior for rotation
           may cause significant error
 Rotational temperatures (Kelvin)      0.05091     0.01119     0.00985
 Rotational constants (GHZ):           1.06082     0.23310     0.20528
 Zero-point vibrational energy     641286.5 (Joules/Mol)
                                  153.27115 (Kcal/Mol)
 Warning -- explicit consideration of  22 degrees of freedom as
           vibrations may cause significant error
 Vibrational temperatures:     13.12    33.19    62.70    74.39   105.15
          (Kelvin)            117.53   137.08   144.79   233.39   270.92
                              301.66   346.02   402.30   466.35   474.54
                              499.98   566.25   580.54   769.43   793.56
                              800.78   885.68   923.80   933.04   971.25
                              985.33  1060.97  1084.38  1105.12  1148.03
                             1187.37  1192.89  1197.00  1243.12  1357.46
                             1372.51  1411.80  1458.06  1483.80  1492.45
                             1529.39  1572.93  1594.45  1619.74  1641.81
                             1679.71  1685.56  1740.39  1767.76  1800.51
                             1816.75  1845.74  1887.79  1906.32  1921.91
                             1957.97  1961.71  2013.13  2027.77  2050.11
                             2050.77  2118.26  2138.24  2147.84  2185.98
                             2187.23  2297.57  2390.40  2482.16  2621.41
                             4256.28  4363.28  4375.62  4396.03  4416.18
                             4460.17  4462.26  4660.33  4677.59  5045.94
                             5159.38  5177.68  5228.43  5249.67

 Zero-point correction=                           0.244253 (Hartree/Particle)
 Thermal correction to Energy=                    0.260512
 Thermal correction to Enthalpy=                  0.261456
 Thermal correction to Gibbs Free Energy=         0.196384
 Sum of electronic and zero-point Energies=           -796.188140
 Sum of electronic and thermal Energies=              -796.171882
 Sum of electronic and thermal Enthalpies=            -796.170938
 Sum of electronic and thermal Free Energies=         -796.236009

                     E (Thermal)             CV                S
                      KCal/Mol        Cal/Mol-Kelvin    Cal/Mol-Kelvin
 Total                  163.474             58.422            136.955
 Electronic               0.000              0.000              0.000
 Translational            0.889              2.981             42.150
 Rotational               0.889              2.981             33.115
 Vibrational            161.696             52.460             61.690
 Vibration     1          0.593              1.987              8.194
 Vibration     2          0.593              1.985              6.351
 Vibration     3          0.595              1.980              5.089
 Vibration     4          0.596              1.977              4.751
 Vibration     5          0.599              1.967              4.069
 Vibration     6          0.600              1.962              3.850
 Vibration     7          0.603              1.953              3.549
 Vibration     8          0.604              1.949              3.442
 Vibration     9          0.622              1.889              2.524
 Vibration    10          0.633              1.856              2.244
 Vibration    11          0.642              1.826              2.047
 Vibration    12          0.658              1.778              1.799
 Vibration    13          0.680              1.711              1.536
 Vibration    14          0.709              1.627              1.289
 Vibration    15          0.713              1.616              1.261
 Vibration    16          0.725              1.580              1.177
 Vibration    17          0.761              1.484              0.987
 Vibration    18          0.769              1.463              0.950
 Vibration    19          0.890              1.173              0.577
 Vibration    20          0.907              1.136              0.541
 Vibration    21          0.912              1.125              0.531
 Vibration    22          0.975              0.999              0.424

 Optimization completed.
    -- Stationary point found.
 Normal termination of Gaussian 09 at Sat Jul 24 23:08:04 2021.
