 Gaussian 09, Revision D.01,
 Gaussian 09:  ES64L-G09RevD.01 24-Apr-2013

 ----------------------------------------------------------------------
 # B3LYP/6-311++G(2df,2pd) EmpiricalDispersion=GD3BJ opt=calcfc freq=no
 raman nosymm integral(ultrafinegrid)
 ----------------------------------------------------------------------

 ------------------------------------------------------------
 Candidate Structure: Conf:599 OPT and FREQ calc in gas phase
 ------------------------------------------------------------
 Symbolic Z-matrix:
 Charge =  0 Multiplicity = 1

 SCF Done:  E(RB3LYP) =  -796.428361883     A.U. after   14 cycles
 SCF Done:  E(RB3LYP) =  -796.429816338     A.U. after   15 cycles
 SCF Done:  E(RB3LYP) =  -796.429223164     A.U. after   15 cycles
 SCF Done:  E(RB3LYP) =  -796.430032118     A.U. after   12 cycles
 SCF Done:  E(RB3LYP) =  -796.430119023     A.U. after   12 cycles
 SCF Done:  E(RB3LYP) =  -796.430124122     A.U. after   10 cycles
 SCF Done:  E(RB3LYP) =  -796.430124356     A.U. after   10 cycles
 SCF Done:  E(RB3LYP) =  -796.430124374     A.U. after    8 cycles
 Optimization completed.
    -- Stationary point found.
 Normal termination of Gaussian 09 at Sat Jul 24 11:32:29 2021.

 ----------------------------------------------------------------------
 #N Geom=AllCheck Guess=TCheck SCRF=Check GenChk RB3LYP/6-311++G(2df,2p
 d) Freq
 ----------------------------------------------------------------------

 Structure from the checkpoint file:  "conf-599.chk"
 ------------------------------------------------------------
 Candidate Structure: Conf:599 OPT and FREQ calc in gas phase
 ------------------------------------------------------------
 Charge =  0 Multiplicity = 1

                          Input orientation:
 ---------------------------------------------------------------------
 Center     Atomic      Atomic             Coordinates (Angstroms)
 Number     Number       Type             X           Y           Z
 ---------------------------------------------------------------------
      1          8           0        2.708352    1.639721    0.775568
      2          6           0        1.893050    0.833195    0.377942
      3          7           0        1.063039    1.167539   -0.684892
      4          6           0       -0.200825    0.516198   -1.003134
      5          6           0       -0.364484    0.403343   -2.527041
      6          8           0        0.777686    0.388900   -3.222257
      7          8           0       -1.430174    0.301028   -3.075121
      8          6           0       -1.419933    1.179692   -0.321259
      9          6           0       -2.564908    0.264279   -0.061367
     10          6           0       -3.118184   -0.173801    1.115466
     11          7           0       -4.172433   -1.021140    0.870744
     12          6           0       -4.259608   -1.100066   -0.436862
     13          7           0       -3.312606   -0.337983   -1.048608
     14          6           0        1.753397   -0.558193    0.963918
     15          6           0        2.865766   -0.885985    1.967817
     16          7           0        4.215748   -0.948558    1.431967
     17          1           0        1.109671    2.159960   -0.883368
     18          1           0       -0.137948   -0.513598   -0.652887
     19          1           0        1.510755    0.548992   -2.604220
     20          1           0       -1.730543    2.045266   -0.911851
     21          1           0       -1.082840    1.556782    0.643404
     22          1           0       -2.821352    0.085514    2.118160
     23          1           0       -4.976251   -1.684795   -0.988305
     24          1           0       -3.112315   -0.247824   -2.034048
     25          1           0        0.776109   -0.631422    1.452706
     26          1           0        1.746078   -1.296235    0.156872
     27          1           0        2.853927   -0.139437    2.761049
     28          1           0        2.631150   -1.845274    2.431268
     29          1           0        4.308311   -1.652339    0.711000
     30          1           0        4.491291   -0.053701    1.049629
 ---------------------------------------------------------------------

 SCF Done:  E(RB3LYP) =  -796.430124374     A.U. after    2 cycles

 Alpha  occ. eigenvalues --  -19.20456 -19.14891 -19.12895 -14.38067 -14.36843
 Alpha  occ. eigenvalues --  -14.30114 -14.29703 -10.34163 -10.31066 -10.27008
 Alpha  occ. eigenvalues --  -10.22751 -10.21835 -10.21417 -10.21048 -10.20737
 Alpha  occ. eigenvalues --  -10.18882  -1.14713  -1.08282  -1.06539  -1.02321
 Alpha  occ. eigenvalues --   -0.97227  -0.89810  -0.87869  -0.82604  -0.78696
 Alpha  occ. eigenvalues --   -0.75914  -0.69912  -0.67095  -0.65247  -0.61889
 Alpha  occ. eigenvalues --   -0.60525  -0.60080  -0.58332  -0.55653  -0.54575
 Alpha  occ. eigenvalues --   -0.52238  -0.50169  -0.49636  -0.49285  -0.48329
 Alpha  occ. eigenvalues --   -0.46968  -0.45489  -0.45068  -0.44523  -0.44193
 Alpha  occ. eigenvalues --   -0.42923  -0.41966  -0.41733  -0.40890  -0.39901
 Alpha  occ. eigenvalues --   -0.39236  -0.37478  -0.36312  -0.33353  -0.31362
 Alpha  occ. eigenvalues --   -0.29470  -0.29111  -0.27727  -0.25451  -0.23963
 Alpha virt. eigenvalues --   -0.04378  -0.03595  -0.02535  -0.01536  -0.00806
 Alpha virt. eigenvalues --   -0.00276   0.00517   0.00904   0.01506   0.01663
 Alpha virt. eigenvalues --    0.02484   0.03020   0.03338   0.03790   0.04254

 Mulliken charges:
               1
     1  O   -0.406024
     2  C    0.250494
     3  N   -0.170041
     4  C   -0.139128
     5  C    0.031903
     6  O   -0.169466
     7  O   -0.371938
     8  C    0.134164
     9  C    0.126110
    10  C   -0.379302
    11  N   -0.282683
    12  C    0.106993
    13  N   -0.006418
    14  C    0.204615
    15  C   -0.286927
    16  N   -0.134966
    17  H    0.196899
    18  H    0.110997
    19  H    0.221849
    20  H    0.076562
    21  H    0.073743
    22  H    0.065509
    23  H    0.102168
    24  H    0.193890
    25  H    0.019883
    26  H    0.061459
    27  H    0.079214
    28  H    0.060920
    29  H    0.093634
    30  H    0.135887
 Sum of Mulliken charges =   0.00000

 Dipole moment (field-independent basis, Debye):
    X=              1.2364    Y=              0.3673    Z=             -1.8354  Tot=              2.2432
 Quadrupole moment (field-independent basis, Debye-Ang):
   XX=           -120.4064   YY=            -94.7370   ZZ=           -108.1036
   XY=             -7.0780   XZ=             -1.6065   YZ=              1.7888

  Exact polarizability: 176.710  17.609 121.304  10.852  -4.312 146.745
 Approx polarizability: 231.442  30.957 190.080  12.321   0.595 223.108

                      1                      2                      3
                      A                      A                      A
 Frequencies --     12.6499                33.5787                47.0611
 Red. masses --      5.5191                 4.8888                 3.5116
 Frc consts  --      0.0005                 0.0032                 0.0046
 IR Inten    --      0.2518                 0.3616                 2.5675

                      4                      5                      6
                      A                      A                      A
 Frequencies --     62.5411                76.8522                85.8067
 Red. masses --      6.6324                 5.1720                 6.0727
 Frc consts  --      0.0153                 0.0180                 0.0263
 IR Inten    --      0.6043                 0.5745                10.7004

                      7                      8                      9
                      A                      A                      A
 Frequencies --    134.2364               141.6627               152.1324
 Red. masses --      4.6647                 6.0647                 3.3382
 Frc consts  --      0.0495                 0.0717                 0.0455
 IR Inten    --      2.7606                12.3937                 4.2814

                     10                     11                     12
                      A                      A                      A
 Frequencies --    206.9165               247.3719               285.2377
 Red. masses --      4.6310                 2.5526                 4.4880
 Frc consts  --      0.1168                 0.0920                 0.2151
 IR Inten    --      8.0720                 6.0762                 8.6585

                     13                     14                     15
                      A                      A                      A
 Frequencies --    315.7503               339.4693               342.3418
 Red. masses --      4.4171                 1.3922                 1.9224
 Frc consts  --      0.2595                 0.0945                 0.1327
 IR Inten    --      1.6177                28.0566                27.2783

                     16                     17                     18
                      A                      A                      A
 Frequencies --    364.8506               416.1940               446.7259
 Red. masses --      5.0486                 3.2255                 4.5283
 Frc consts  --      0.3960                 0.3292                 0.5324
 IR Inten    --     13.3516                 9.7392                 0.4707

                     19                     20                     21
                      A                      A                      A
 Frequencies --    523.0430               555.7648               604.3628
 Red. masses --      2.2767                 2.7422                 3.9575
 Frc consts  --      0.3670                 0.4990                 0.8517
 IR Inten    --     17.5510                 3.5661                 8.1286

                     22                     23                     24
                      A                      A                      A
 Frequencies --    630.5747               650.7387               669.0839
 Red. masses --      3.2780                 3.1303                 1.6082
 Frc consts  --      0.7680                 0.7810                 0.4242
 IR Inten    --     36.5199                10.6280                40.5491

                     25                     26                     27
                      A                      A                      A
 Frequencies --    681.3045               724.1329               729.9447
 Red. masses --      2.5597                 3.4932                 1.2715
 Frc consts  --      0.7000                 1.0792                 0.3992
 IR Inten    --     61.4169                 4.6914                54.6138

                     28                     29                     30
                      A                      A                      A
 Frequencies --    745.6441               783.4111               800.7707
 Red. masses --      3.3411                 1.2148                 1.7638
 Frc consts  --      1.0945                 0.4393                 0.6664
 IR Inten    --      1.0299               129.5235               150.0179

                     31                     32                     33
                      A                      A                      A
 Frequencies --    825.1755               831.8513               836.9939
 Red. masses --      2.2790                 1.4523                 2.3275
 Frc consts  --      0.9143                 0.5921                 0.9607
 IR Inten    --     83.1510                15.5925                14.8459

                     34                     35                     36
                      A                      A                      A
 Frequencies --    855.1488               887.7491               926.7606
 Red. masses --      1.4672                 2.5242                 1.6349
 Frc consts  --      0.6321                 1.1721                 0.8273
 IR Inten    --     20.7647                 4.2808                 3.7951

                     37                     38                     39
                      A                      A                      A
 Frequencies --    945.4461               985.3384              1025.5278
 Red. masses --      5.6504                 2.7536                 2.2067
 Frc consts  --      2.9758                 1.5751                 1.3674
 IR Inten    --     13.9391                 4.6056                36.4118

                     40                     41                     42
                      A                      A                      A
 Frequencies --   1030.1515              1053.6555              1106.3334
 Red. masses --      3.8372                 4.4997                 2.8561
 Frc consts  --      2.3992                 2.9433                 2.0597
 IR Inten    --      6.1838                21.9672                 8.4841

                     43                     44                     45
                      A                      A                      A
 Frequencies --   1117.3553              1135.0378              1145.4985
 Red. masses --      1.5783                 3.2644                 2.4100
 Frc consts  --      1.1610                 2.4778                 1.8632
 IR Inten    --     52.8222                24.4038                16.3993

                     46                     47                     48
                      A                      A                      A
 Frequencies --   1163.4096              1196.9376              1200.8345
 Red. masses --      1.4123                 2.2188                 1.3312
 Frc consts  --      1.1262                 1.8729                 1.1310
 IR Inten    --     30.7383                23.6012                 0.8726

                     49                     50                     51
                      A                      A                      A
 Frequencies --   1241.9351              1260.6549              1271.1440
 Red. masses --      1.6583                 2.2133                 1.6695
 Frc consts  --      1.5070                 2.0725                 1.5893
 IR Inten    --     87.1608                17.1934               138.5994

                     52                     53                     54
                      A                      A                      A
 Frequencies --   1279.4672              1307.8088              1321.0215
 Red. masses --      1.5284                 1.2785                 1.3484
 Frc consts  --      1.4742                 1.2884                 1.3864
 IR Inten    --     33.0325                 6.3278                49.4074

                     55                     56                     57
                      A                      A                      A
 Frequencies --   1360.0065              1367.0992              1380.5853
 Red. masses --      1.9660                 1.4841                 1.5263
 Frc consts  --      2.1425                 1.6342                 1.7140
 IR Inten    --    280.9230                 2.1406               145.7362

                     58                     59                     60
                      A                      A                      A
 Frequencies --   1392.8094              1397.4931              1408.8890
 Red. masses --      3.4955                 1.2528                 1.4921
 Frc consts  --      3.9952                 1.4415                 1.7450
 IR Inten    --     22.7243                 3.7119                57.6555

                     61                     62                     63
                      A                      A                      A
 Frequencies --   1425.8935              1453.1037              1478.5527
 Red. masses --      2.6958                 1.1234                 1.1566
 Frc consts  --      3.2293                 1.3975                 1.4898
 IR Inten    --     32.1204                 8.2387                21.0588

                     64                     65                     66
                      A                      A                      A
 Frequencies --   1480.1342              1487.9595              1498.8059
 Red. masses --      1.4058                 1.0907                 3.0609
 Frc consts  --      1.8146                 1.4228                 4.0513
 IR Inten    --     21.4301                 8.4574                20.9154

                     67                     68                     69
                      A                      A                      A
 Frequencies --   1603.2245              1655.3763              1760.6097
 Red. masses --      4.3875                 1.0948                 8.0028
 Frc consts  --      6.6444                 1.7676                14.6157
 IR Inten    --     13.6138                27.9628               422.9006

                     70                     71                     72
                      A                      A                      A
 Frequencies --   1823.1818              3012.8328              3031.5828
 Red. masses --      9.9100                 1.0610                 1.0667
 Frc consts  --     19.4082                 5.6741                 5.7762
 IR Inten    --    263.9374                21.6667                20.7401

                     73                     74                     75
                      A                      A                      A
 Frequencies --   3044.7909              3053.0563              3086.0621
 Red. masses --      1.0857                 1.0757                 1.0819
 Frc consts  --      5.9305                 5.9078                 6.0706
 IR Inten    --      6.4234                32.6779                 8.0111

                     76                     77                     78
                      A                      A                      A
 Frequencies --   3094.4910              3094.7205              3232.6383
 Red. masses --      1.1011                 1.0971                 1.0963
 Frc consts  --      6.2121                 6.1907                 6.7498
 IR Inten    --     13.8127                 5.4002                 6.4502

                     79                     80                     81
                      A                      A                      A
 Frequencies --   3247.9219              3512.5758              3538.2601
 Red. masses --      1.0981                 1.0481                 1.0748
 Frc consts  --      6.8247                 7.6189                 7.9282
 IR Inten    --      0.9577                 2.3067                23.6934

                     82                     83                     84
                      A                      A                      A
 Frequencies --   3590.0613              3598.1338              3658.8921
 Red. masses --      1.0822                 1.0945                 1.0646
 Frc consts  --      8.2179                 8.3484                 8.3969
 IR Inten    --    194.1010                 8.0492               181.3268

 - Thermochemistry -
 -------------------
 Temperature   298.150 Kelvin.  Pressure   1.00000 Atm.
 Atom     1 has atomic number  8 and mass  15.99491

 Molecular mass:   226.10659 amu.
 Principal axes and moments of inertia in atomic units:
                           1         2         3
     Eigenvalues --  2422.021766166.449897648.63364
           X            0.97338  -0.19302  -0.12361
           Y            0.06177  -0.29844   0.95243
           Z            0.22073   0.93471   0.27857
 This molecule is an asymmetric top.
 Rotational symmetry number  1.
 Warning -- assumption of classical behavior for rotation
           may cause significant error
 Rotational temperatures (Kelvin)      0.03576     0.01405     0.01132
 Rotational constants (GHZ):           0.74514     0.29267     0.23596
 Zero-point vibrational energy     643179.0 (Joules/Mol)
                                  153.72347 (Kcal/Mol)
 Warning -- explicit consideration of  21 degrees of freedom as
           vibrations may cause significant error
 Vibrational temperatures:     18.20    48.31    67.71    89.98   110.57
          (Kelvin)            123.46   193.14   203.82   218.88   297.71
                              355.91   410.39   454.29   488.42   492.55
                              524.94   598.81   642.74   752.54   799.62
                              869.54   907.26   936.27   962.66   980.24
                             1041.86  1050.23  1072.81  1127.15  1152.13
                             1187.24  1196.85  1204.25  1230.37  1277.27
                             1333.40  1360.28  1417.68  1475.50  1482.16
                             1515.97  1591.76  1607.62  1633.06  1648.11
                             1673.88  1722.12  1727.73  1786.87  1813.80
                             1828.89  1840.87  1881.64  1900.65  1956.74
                             1966.95  1986.35  2003.94  2010.68  2027.07
                             2051.54  2090.69  2127.30  2129.58  2140.84
                             2156.44  2306.68  2381.71  2533.12  2623.15
                             4334.79  4361.77  4380.77  4392.66  4440.15
                             4452.28  4452.61  4651.04  4673.03  5053.81
                             5090.76  5165.29  5176.91  5264.32

 Zero-point correction=                           0.244974 (Hartree/Particle)
 Thermal correction to Energy=                    0.260684
 Thermal correction to Enthalpy=                  0.261628
 Thermal correction to Gibbs Free Energy=         0.198870
 Sum of electronic and zero-point Energies=           -796.185150
 Sum of electronic and thermal Energies=              -796.169441
 Sum of electronic and thermal Enthalpies=            -796.168497
 Sum of electronic and thermal Free Energies=         -796.231255

                     E (Thermal)             CV                S
                      KCal/Mol        Cal/Mol-Kelvin    Cal/Mol-Kelvin
 Total                  163.581             57.785            132.085
 Electronic               0.000              0.000              0.000
 Translational            0.889              2.981             42.150
 Rotational               0.889              2.981             33.102
 Vibrational            161.804             51.824             56.834
 Vibration     1          0.593              1.987              7.544
 Vibration     2          0.594              1.983              5.606
 Vibration     3          0.595              1.979              4.937
 Vibration     4          0.597              1.972              4.375
 Vibration     5          0.599              1.965              3.970
 Vibration     6          0.601              1.959              3.753
 Vibration     7          0.613              1.919              2.884
 Vibration     8          0.615              1.912              2.781
 Vibration     9          0.619              1.900              2.645
 Vibration    10          0.641              1.830              2.071
 Vibration    11          0.661              1.767              1.749
 Vibration    12          0.683              1.701              1.502
 Vibration    13          0.703              1.644              1.332
 Vibration    14          0.719              1.597              1.215
 Vibration    15          0.721              1.591              1.201
 Vibration    16          0.738              1.545              1.101
 Vibration    17          0.779              1.435              0.905
 Vibration    18          0.806              1.368              0.806
 Vibration    19          0.878              1.199              0.603
 Vibration    20          0.911              1.127              0.532
 Vibration    21          0.963              1.023              0.442

 Normal termination of Gaussian 09 at Sat Jul 24 17:52:04 2021.
