 Gaussian 09, Revision D.01,
 Gaussian 09:  ES64L-G09RevD.01 24-Apr-2013

 ----------------------------------------------------------------------
 # B3LYP/6-311++G(2df,2pd) EmpiricalDispersion=GD3BJ opt=calcfc freq=no
 raman nosymm integral(ultrafinegrid)
 ----------------------------------------------------------------------

 ------------------------------------------------------------
 Candidate Structure: Conf:609 OPT and FREQ calc in gas phase
 ------------------------------------------------------------
 Symbolic Z-matrix:
 Charge =  0 Multiplicity = 1

 SCF Done:  E(RB3LYP) =  -796.427772940     A.U. after   14 cycles
 SCF Done:  E(RB3LYP) =  -796.429696663     A.U. after   13 cycles
 SCF Done:  E(RB3LYP) =  -796.429993685     A.U. after   14 cycles
 SCF Done:  E(RB3LYP) =  -796.430222843     A.U. after   13 cycles
 SCF Done:  E(RB3LYP) =  -796.428898930     A.U. after   13 cycles
 SCF Done:  E(RB3LYP) =  -796.430547396     A.U. after   11 cycles
 SCF Done:  E(RB3LYP) =  -796.430683223     A.U. after   12 cycles
 SCF Done:  E(RB3LYP) =  -796.430709279     A.U. after   11 cycles
 SCF Done:  E(RB3LYP) =  -796.430715015     A.U. after   10 cycles
 SCF Done:  E(RB3LYP) =  -796.430715723     A.U. after    9 cycles
 SCF Done:  E(RB3LYP) =  -796.430715870     A.U. after    8 cycles
 SCF Done:  E(RB3LYP) =  -796.430715891     A.U. after    7 cycles
 Optimization completed.
    -- Stationary point found.
 Normal termination of Gaussian 09 at Sat Jul 24 13:12:26 2021.

 ----------------------------------------------------------------------
 #N Geom=AllCheck Guess=TCheck SCRF=Check GenChk RB3LYP/6-311++G(2df,2p
 d) Freq
 ----------------------------------------------------------------------

 Structure from the checkpoint file:  "conf-609.chk"
 ------------------------------------------------------------
 Candidate Structure: Conf:609 OPT and FREQ calc in gas phase
 ------------------------------------------------------------
 Charge =  0 Multiplicity = 1

                          Input orientation:
 ---------------------------------------------------------------------
 Center     Atomic      Atomic             Coordinates (Angstroms)
 Number     Number       Type             X           Y           Z
 ---------------------------------------------------------------------
      1          8           0        1.399419    1.196380   -0.592911
      2          6           0        1.628052    0.384300    0.289201
      3          7           0        0.640479   -0.422573    0.775557
      4          6           0       -0.663775   -0.444068    0.136985
      5          6           0       -0.467130   -0.778904   -1.347450
      6          8           0       -1.309125   -0.119339   -2.178006
      7          8           0        0.322492   -1.587844   -1.747848
      8          6           0       -1.490237    0.828138    0.440006
      9          6           0       -2.964843    0.620132    0.451473
     10          6           0       -3.860316    0.562484    1.489091
     11          7           0       -5.137508    0.347145    1.025134
     12          6           0       -5.026377    0.272817   -0.279153
     13          7           0       -3.733287    0.433368   -0.678394
     14          6           0        3.008255    0.183547    0.868238
     15          6           0        3.947581   -0.436266   -0.188928
     16          7           0        5.326459   -0.625286    0.236332
     17          1           0        0.893407   -1.193717    1.367253
     18          1           0       -1.200101   -1.298710    0.552806
     19          1           0       -1.083170   -0.400097   -3.077025
     20          1           0       -1.201229    1.153054    1.437789
     21          1           0       -1.194784    1.619546   -0.245846
     22          1           0       -3.652912    0.676669    2.539900
     23          1           0       -5.831257    0.107822   -0.975412
     24          1           0       -3.366933    0.391454   -1.613777
     25          1           0        3.390860    1.162394    1.159713
     26          1           0        2.981618   -0.446707    1.759715
     27          1           0        3.548425   -1.402509   -0.501608
     28          1           0        3.938713    0.202297   -1.071119
     29          1           0        5.393440   -1.238688    1.038517
     30          1           0        5.763852    0.253169    0.484216
 ---------------------------------------------------------------------

 SCF Done:  E(RB3LYP) =  -796.430715891     A.U. after    1 cycles

 Alpha  occ. eigenvalues --  -19.20039 -19.13596 -19.10560 -14.36708 -14.36072
 Alpha  occ. eigenvalues --  -14.30418 -14.29270 -10.32909 -10.28656 -10.25287
 Alpha  occ. eigenvalues --  -10.22350 -10.20689 -10.20526 -10.19643 -10.18968
 Alpha  occ. eigenvalues --  -10.18160  -1.13950  -1.06156  -1.04772  -1.01894
 Alpha  occ. eigenvalues --   -0.95163  -0.89720  -0.87470  -0.81910  -0.77434
 Alpha  occ. eigenvalues --   -0.74538  -0.68905  -0.66215  -0.63162  -0.61871
 Alpha  occ. eigenvalues --   -0.60192  -0.59443  -0.55766  -0.53416  -0.52381
 Alpha  occ. eigenvalues --   -0.51666  -0.51362  -0.49248  -0.47501  -0.46300
 Alpha  occ. eigenvalues --   -0.45759  -0.44525  -0.44126  -0.43098  -0.42564
 Alpha  occ. eigenvalues --   -0.41785  -0.41300  -0.40635  -0.40086  -0.39361
 Alpha  occ. eigenvalues --   -0.38245  -0.35912  -0.35102  -0.30837  -0.29261
 Alpha  occ. eigenvalues --   -0.28698  -0.28239  -0.27322  -0.25195  -0.23280
 Alpha virt. eigenvalues --   -0.03463  -0.02351  -0.01931  -0.00568  -0.00406
 Alpha virt. eigenvalues --    0.00460   0.00829   0.01199   0.01651   0.02038
 Alpha virt. eigenvalues --    0.02246   0.03228   0.03629   0.04413   0.04473

 Mulliken charges:
               1
     1  O   -0.357793
     2  C   -0.162046
     3  N    0.129982
     4  C    0.012147
     5  C    0.111409
     6  O   -0.259621
     7  O   -0.361622
     8  C    0.045439
     9  C    0.294220
    10  C   -0.429413
    11  N   -0.290449
    12  C    0.107288
    13  N   -0.054642
    14  C    0.205086
    15  C   -0.201516
    16  N   -0.183488
    17  H    0.144580
    18  H    0.069638
    19  H    0.258357
    20  H    0.056299
    21  H    0.116415
    22  H    0.063647
    23  H    0.096770
    24  H    0.167382
    25  H    0.048567
    26  H    0.007080
    27  H    0.064068
    28  H    0.081923
    29  H    0.107970
    30  H    0.112322
 Sum of Mulliken charges =   0.00000

 Dipole moment (field-independent basis, Debye):
    X=              1.7895    Y=             -1.0042    Z=              0.3730  Tot=              2.0856
 Quadrupole moment (field-independent basis, Debye-Ang):
   XX=           -117.3617   YY=            -99.9069   ZZ=            -85.8617
   XY=              4.4458   XZ=             27.1444   YZ=             -3.5272

  Exact polarizability: 197.575  -4.550 112.494   1.072   2.306 138.949
 Approx polarizability: 236.945  -0.536 183.237  -0.612  -6.983 222.387

                      1                      2                      3
                      A                      A                      A
 Frequencies --     16.6436                24.3102                35.5917
 Red. masses --      4.1186                 4.9408                 5.5217
 Frc consts  --      0.0007                 0.0017                 0.0041
 IR Inten    --      1.1971                 9.4346                 5.1122

                      4                      5                      6
                      A                      A                      A
 Frequencies --     52.3003                69.0996                89.7769
 Red. masses --      5.0071                 3.0943                 2.4765
 Frc consts  --      0.0081                 0.0087                 0.0118
 IR Inten    --      1.6626                 3.6921                 2.2695

                      7                      8                      9
                      A                      A                      A
 Frequencies --     92.9462               128.4270               144.0461
 Red. masses --      9.1016                 6.3225                 6.5633
 Frc consts  --      0.0463                 0.0614                 0.0802
 IR Inten    --      2.5835                 2.5402                 5.1484

                     10                     11                     12
                      A                      A                      A
 Frequencies --    192.7215               220.6264               279.0542
 Red. masses --      4.4362                 5.2986                 1.6956
 Frc consts  --      0.0971                 0.1520                 0.0778
 IR Inten    --      9.8664                 2.1923                29.3166

                     13                     14                     15
                      A                      A                      A
 Frequencies --    289.6722               307.6986               340.1709
 Red. masses --      1.7848                 3.4740                 3.7556
 Frc consts  --      0.0882                 0.1938                 0.2560
 IR Inten    --     16.4966                 6.7021                 1.3820

                     16                     17                     18
                      A                      A                      A
 Frequencies --    369.2891               389.8814               431.1683
 Red. masses --      3.5879                 3.6951                 1.2283
 Frc consts  --      0.2883                 0.3309                 0.1345
 IR Inten    --      0.9067                11.5525                61.3379

                     19                     20                     21
                      A                      A                      A
 Frequencies --    445.2765               521.4991               548.1407
 Red. masses --      4.1127                 3.5849                 2.6223
 Frc consts  --      0.4804                 0.5744                 0.4642
 IR Inten    --      2.8008                31.6978                27.3681

                     22                     23                     24
                      A                      A                      A
 Frequencies --    592.2854               610.6649               674.2812
 Red. masses --      1.5454                 1.9593                 2.5759
 Frc consts  --      0.3194                 0.4305                 0.6900
 IR Inten    --     36.7157                89.2138                45.9646

                     25                     26                     27
                      A                      A                      A
 Frequencies --    684.0130               690.5284               732.8989
 Red. masses --      3.0935                 2.0449                 3.9264
 Frc consts  --      0.8528                 0.5745                 1.2426
 IR Inten    --     35.0476                 0.7878                21.4508

                     28                     29                     30
                      A                      A                      A
 Frequencies --    745.1886               771.1085               779.7342
 Red. masses --      5.6927                 1.3404                 2.5854
 Frc consts  --      1.8625                 0.4696                 0.9261
 IR Inten    --      5.1355                 1.9663                 2.1441

                     31                     32                     33
                      A                      A                      A
 Frequencies --    804.5267               820.5664               846.1238
 Red. masses --      1.4748                 1.4346                 1.9680
 Frc consts  --      0.5624                 0.5691                 0.8301
 IR Inten    --    204.1007                21.1194                21.5467

                     34                     35                     36
                      A                      A                      A
 Frequencies --    859.7116               913.1001               943.1544
 Red. masses --      2.2006                 2.5201                 5.5417
 Frc consts  --      0.9583                 1.2380                 2.9044
 IR Inten    --      8.6976                 0.4574                15.0899

                     37                     38                     39
                      A                      A                      A
 Frequencies --    968.6048               990.6413              1011.0780
 Red. masses --      1.6994                 2.1783                 4.8571
 Frc consts  --      0.9394                 1.2595                 2.9255
 IR Inten    --      6.5711                15.1672                70.8494

                     40                     41                     42
                      A                      A                      A
 Frequencies --   1031.3242              1051.1676              1088.0249
 Red. masses --      3.6268                 4.6996                 1.8659
 Frc consts  --      2.2728                 3.0596                 1.3014
 IR Inten    --     17.5485                 4.3796                13.3368

                     43                     44                     45
                      A                      A                      A
 Frequencies --   1098.8340              1112.3813              1136.9454
 Red. masses --      3.5087                 1.5669                 1.8012
 Frc consts  --      2.4961                 1.1423                 1.3718
 IR Inten    --     26.3996                39.1277                37.1452

                     46                     47                     48
                      A                      A                      A
 Frequencies --   1142.8314              1157.3608              1200.6603
 Red. masses --      2.3369                 2.2496                 1.5079
 Frc consts  --      1.7982                 1.7754                 1.2808
 IR Inten    --     76.5304               144.7251                30.7629

                     49                     50                     51
                      A                      A                      A
 Frequencies --   1253.8048              1260.3297              1278.9112
 Red. masses --      1.8721                 2.0685                 1.3871
 Frc consts  --      1.7339                 1.9358                 1.3367
 IR Inten    --     35.1353                42.3101                 4.3030

                     52                     53                     54
                      A                      A                      A
 Frequencies --   1293.0630              1308.3567              1327.7925
 Red. masses --      1.3346                 1.2754                 1.3789
 Frc consts  --      1.3148                 1.2864                 1.4323
 IR Inten    --      5.9974                 2.1594                 4.8218

                     55                     56                     57
                      A                      A                      A
 Frequencies --   1331.3687              1350.8784              1378.5804
 Red. masses --      1.5012                 1.8484                 1.7398
 Frc consts  --      1.5678                 1.9874                 1.9481
 IR Inten    --     58.3226                 6.3859                 5.2892

                     58                     59                     60
                      A                      A                      A
 Frequencies --   1384.4617              1392.5234              1396.0794
 Red. masses --      1.1980                 1.2130                 3.1130
 Frc consts  --      1.3529                 1.3858                 3.5748
 IR Inten    --     11.4774                15.1525                10.2141

                     61                     62                     63
                      A                      A                      A
 Frequencies --   1423.0448              1484.3163              1488.8686
 Red. masses --      2.7526                 1.1107                 1.2150
 Frc consts  --      3.2842                 1.4418                 1.5869
 IR Inten    --     26.6778                 2.4433                16.2874

                     64                     65                     66
                      A                      A                      A
 Frequencies --   1498.2523              1505.2822              1524.1677
 Red. masses --      2.7168                 1.0901                 1.9343
 Frc consts  --      3.5931                 1.4552                 2.6475
 IR Inten    --     32.7782                 5.2893               219.5709

                     67                     68                     69
                      A                      A                      A
 Frequencies --   1605.6747              1662.6294              1733.9465
 Red. masses --      4.3824                 1.0907                 9.0865
 Frc consts  --      6.6569                 1.7764                16.0960
 IR Inten    --      8.0011                27.8054               192.9812

                     70                     71                     72
                      A                      A                      A
 Frequencies --   1818.7426              3034.9218              3049.0965
 Red. masses --     10.1746                 1.0599                 1.0661
 Frc consts  --     19.8295                 5.7521                 5.8399
 IR Inten    --    300.6371                13.7940                20.2306

                     73                     74                     75
                      A                      A                      A
 Frequencies --   3061.5369              3077.1688              3080.0666
 Red. masses --      1.0817                 1.0618                 1.0971
 Frc consts  --      5.9738                 5.9238                 6.1323
 IR Inten    --      2.2696                 9.1318                 4.6531

                     76                     77                     78
                      A                      A                      A
 Frequencies --   3103.7364              3117.5323              3235.1311
 Red. masses --      1.1054                 1.1035                 1.0959
 Frc consts  --      6.2738                 6.3191                 6.7580
 IR Inten    --     21.3659                 2.7270                 6.7361

                     79                     80                     81
                      A                      A                      A
 Frequencies --   3245.3936              3506.0307              3585.3392
 Red. masses --      1.0982                 1.0482                 1.0942
 Frc consts  --      6.8147                 7.5913                 8.2875
 IR Inten    --      0.9964                 1.7748                 2.1546

                     82                     83                     84
                      A                      A                      A
 Frequencies --   3650.6351              3653.2514              3747.4468
 Red. masses --      1.0784                 1.0809                 1.0642
 Frc consts  --      8.4677                 8.4998                 8.8050
 IR Inten    --     28.8364               114.6671                82.3227

 - Thermochemistry -
 -------------------
 Temperature   298.150 Kelvin.  Pressure   1.00000 Atm.
 Atom     1 has atomic number  8 and mass  15.99491

 Molecular mass:   226.10659 amu.
 Principal axes and moments of inertia in atomic units:
                           1         2         3
     Eigenvalues --  1282.247857897.008748586.58237
           X            0.99632   0.04582   0.07245
           Y           -0.08387   0.34588   0.93452
           Z           -0.01776   0.93716  -0.34845
 This molecule is an asymmetric top.
 Rotational symmetry number  1.
 Warning -- assumption of classical behavior for rotation
           may cause significant error
 Rotational temperatures (Kelvin)      0.06755     0.01097     0.01009
 Rotational constants (GHZ):           1.40748     0.22853     0.21018
 Zero-point vibrational energy     641763.3 (Joules/Mol)
                                  153.38511 (Kcal/Mol)
 Warning -- explicit consideration of  23 degrees of freedom as
           vibrations may cause significant error
 Vibrational temperatures:     23.95    34.98    51.21    75.25    99.42
          (Kelvin)            129.17   133.73   184.78   207.25   277.28
                              317.43   401.50   416.77   442.71   489.43
                              531.32   560.95   620.35   640.65   750.32
                              788.65   852.17   878.61   970.14   984.14
                              993.52  1054.48  1072.16  1109.45  1121.86
                             1157.53  1180.61  1217.38  1236.93  1313.75
                             1356.99  1393.60  1425.31  1454.71  1483.84
                             1512.39  1565.42  1580.98  1600.47  1635.81
                             1644.28  1665.18  1727.48  1803.94  1813.33
                             1840.07  1860.43  1882.43  1910.39  1915.54
                             1943.61  1983.47  1991.93  2003.53  2008.64
                             2047.44  2135.60  2142.15  2155.65  2165.76
                             2192.93  2310.20  2392.15  2494.76  2616.76
                             4366.57  4386.96  4404.86  4427.35  4431.52
                             4465.58  4485.43  4654.63  4669.39  5044.39
                             5158.50  5252.44  5256.21  5391.73

 Zero-point correction=                           0.244435 (Hartree/Particle)
 Thermal correction to Energy=                    0.260679
 Thermal correction to Enthalpy=                  0.261624
 Thermal correction to Gibbs Free Energy=         0.197323
 Sum of electronic and zero-point Energies=           -796.186281
 Sum of electronic and thermal Energies=              -796.170037
 Sum of electronic and thermal Enthalpies=            -796.169092
 Sum of electronic and thermal Free Energies=         -796.233393

                     E (Thermal)             CV                S
                      KCal/Mol        Cal/Mol-Kelvin    Cal/Mol-Kelvin
 Total                  163.579             58.797            135.332
 Electronic               0.000              0.000              0.000
 Translational            0.889              2.981             42.150
 Rotational               0.889              2.981             32.830
 Vibrational            161.801             52.835             60.351
 Vibration     1          0.593              1.986              6.999
 Vibration     2          0.593              1.985              6.247
 Vibration     3          0.594              1.982              5.490
 Vibration     4          0.596              1.977              4.728
 Vibration     5          0.598              1.969              4.179
 Vibration     6          0.602              1.956              3.665
 Vibration     7          0.602              1.954              3.597
 Vibration     8          0.611              1.925              2.969
 Vibration     9          0.616              1.909              2.749
 Vibration    10          0.635              1.850              2.201
 Vibration    11          0.647              1.810              1.954
 Vibration    12          0.679              1.712              1.539
 Vibration    13          0.686              1.693              1.476
 Vibration    14          0.698              1.659              1.375
 Vibration    15          0.720              1.595              1.211
 Vibration    16          0.742              1.535              1.083
 Vibration    17          0.758              1.492              1.001
 Vibration    18          0.792              1.402              0.855
 Vibration    19          0.805              1.371              0.810
 Vibration    20          0.876              1.202              0.606
 Vibration    21          0.903              1.144              0.548
 Vibration    22          0.950              1.048              0.463
 Vibration    23          0.970              1.009              0.432

 Optimization completed.
    -- Stationary point found.
 Normal termination of Gaussian 09 at Sat Jul 24 19:16:19 2021.
