 Gaussian 09, Revision D.01,
 Gaussian 09:  ES64L-G09RevD.01 24-Apr-2013

 ----------------------------------------------------------------------
 # B3LYP/6-311++G(2df,2pd) EmpiricalDispersion=GD3BJ opt=calcfc freq=no
 raman nosymm integral(ultrafinegrid)
 ----------------------------------------------------------------------

 ------------------------------------------------------------
 Candidate Structure: Conf:422 OPT and FREQ calc in gas phase
 ------------------------------------------------------------
 Symbolic Z-matrix:
 Charge =  0 Multiplicity = 1

 SCF Done:  E(RB3LYP) =  -796.430500468     A.U. after   14 cycles
 SCF Done:  E(RB3LYP) =  -796.431757678     A.U. after   12 cycles
 SCF Done:  E(RB3LYP) =  -796.431797565     A.U. after   12 cycles
 SCF Done:  E(RB3LYP) =  -796.431901651     A.U. after   11 cycles
 SCF Done:  E(RB3LYP) =  -796.431909159     A.U. after   11 cycles
 SCF Done:  E(RB3LYP) =  -796.431910057     A.U. after   10 cycles
 SCF Done:  E(RB3LYP) =  -796.431910294     A.U. after    8 cycles
 SCF Done:  E(RB3LYP) =  -796.431910362     A.U. after    8 cycles
 Optimization completed.
    -- Stationary point found.
 Normal termination of Gaussian 09 at Sat Jul 24 10:52:39 2021.

 ----------------------------------------------------------------------
 #N Geom=AllCheck Guess=TCheck SCRF=Check GenChk RB3LYP/6-311++G(2df,2p
 d) Freq
 ----------------------------------------------------------------------

 Structure from the checkpoint file:  "conf-422.chk"
 ------------------------------------------------------------
 Candidate Structure: Conf:422 OPT and FREQ calc in gas phase
 ------------------------------------------------------------
 Charge =  0 Multiplicity = 1

                          Input orientation:
 ---------------------------------------------------------------------
 Center     Atomic      Atomic             Coordinates (Angstroms)
 Number     Number       Type             X           Y           Z
 ---------------------------------------------------------------------
      1          8           0        0.776528    0.639504    1.582754
      2          6           0        1.106946    0.103611    0.538390
      3          7           0        0.295682   -0.776394   -0.120058
      4          6           0       -0.961202   -1.218631    0.426376
      5          6           0       -0.914783   -2.719077    0.666671
      6          8           0       -1.892554   -3.121547    1.500957
      7          8           0       -0.130969   -3.474848    0.154811
      8          6           0       -2.160582   -0.898249   -0.488049
      9          6           0       -2.378882    0.564584   -0.677036
     10          6           0       -1.947835    1.679986   -0.007980
     11          7           0       -2.477006    2.820159   -0.576265
     12          6           0       -3.218152    2.411586   -1.573330
     13          7           0       -3.193445    1.050081   -1.682485
     14          6           0        2.419324    0.404891   -0.155808
     15          6           0        3.526338    0.760862    0.828330
     16          7           0        4.735304    1.149620    0.100740
     17          1           0        0.686335   -1.321540   -0.870404
     18          1           0       -1.089863   -0.716293    1.383807
     19          1           0       -1.827760   -4.083885    1.587837
     20          1           0       -3.049496   -1.364480   -0.055917
     21          1           0       -1.993276   -1.380883   -1.456587
     22          1           0       -1.277298    1.727400    0.832316
     23          1           0       -3.785679    3.034887   -2.243660
     24          1           0       -3.683034    0.498876   -2.365663
     25          1           0        2.720248   -0.437318   -0.784473
     26          1           0        2.253605    1.252437   -0.825475
     27          1           0        3.676673   -0.077589    1.520158
     28          1           0        3.196888    1.605843    1.429566
     29          1           0        5.159669    0.353591   -0.359611
     30          1           0        5.428296    1.532726    0.730087
 ---------------------------------------------------------------------

 SCF Done:  E(RB3LYP) =  -796.431910362     A.U. after    1 cycles

 Alpha  occ. eigenvalues --  -19.19877 -19.14195 -19.09620 -14.37227 -14.34967
 Alpha  occ. eigenvalues --  -14.29678 -14.29156 -10.32926 -10.27968 -10.24491
 Alpha  occ. eigenvalues --  -10.22397 -10.20966 -10.20926 -10.19467 -10.18088
 Alpha  occ. eigenvalues --  -10.17721  -1.14019  -1.05366  -1.04882  -1.01980
 Alpha  occ. eigenvalues --   -0.94630  -0.88846  -0.87538  -0.82223  -0.76958
 Alpha  occ. eigenvalues --   -0.74739  -0.69234  -0.65673  -0.62035  -0.61672
 Alpha  occ. eigenvalues --   -0.60176  -0.58944  -0.55525  -0.53129  -0.52068
 Alpha  occ. eigenvalues --   -0.51095  -0.49277  -0.49161  -0.48557  -0.46315
 Alpha  occ. eigenvalues --   -0.45939  -0.44923  -0.44095  -0.43077  -0.42589
 Alpha  occ. eigenvalues --   -0.41697  -0.41046  -0.40573  -0.39575  -0.38909
 Alpha  occ. eigenvalues --   -0.36425  -0.35596  -0.35279  -0.31312  -0.28806
 Alpha  occ. eigenvalues --   -0.27950  -0.27190  -0.26831  -0.24854  -0.23236
 Alpha virt. eigenvalues --   -0.02668  -0.02540  -0.01567  -0.01094  -0.00081
 Alpha virt. eigenvalues --    0.00510   0.01011   0.01276   0.02004   0.02295
 Alpha virt. eigenvalues --    0.02499   0.03363   0.04088   0.04504   0.04957

 Mulliken charges:
               1
     1  O   -0.390263
     2  C   -0.180015
     3  N    0.200333
     4  C   -0.178736
     5  C    0.217443
     6  O   -0.177498
     7  O   -0.369833
     8  C   -0.071981
     9  C    0.337719
    10  C   -0.445314
    11  N   -0.275592
    12  C    0.141152
    13  N   -0.035931
    14  C    0.260783
    15  C   -0.246676
    16  N   -0.165120
    17  H    0.151625
    18  H    0.139578
    19  H    0.231299
    20  H    0.071507
    21  H    0.055612
    22  H    0.102208
    23  H    0.109049
    24  H    0.124427
    25  H    0.000758
    26  H    0.082838
    27  H    0.040923
    28  H    0.068565
    29  H    0.093814
    30  H    0.107324
 Sum of Mulliken charges =   0.00000

 Dipole moment (field-independent basis, Debye):
    X=             -1.3371    Y=             -4.9830    Z=             -2.8067  Tot=              5.8733
 Quadrupole moment (field-independent basis, Debye-Ang):
   XX=            -76.9214   YY=           -105.9043   ZZ=            -90.7163
   XY=              7.7939   XZ=             11.2460   YZ=             -4.4209

  Exact polarizability: 156.575   1.482 158.900  11.134  -5.468 126.804
 Approx polarizability: 200.334   0.560 229.044  10.623  12.753 209.148

                      1                      2                      3
                      A                      A                      A
 Frequencies --      6.2721                28.7919                46.0734
 Red. masses --      3.2186                 3.0341                10.3521
 Frc consts  --      0.0001                 0.0015                 0.0129
 IR Inten    --      1.4273                 2.3984                 2.6766

                      4                      5                      6
                      A                      A                      A
 Frequencies --     47.5612                60.1539                73.3992
 Red. masses --      3.8252                 4.1052                 6.0887
 Frc consts  --      0.0051                 0.0088                 0.0193
 IR Inten    --      3.7801                 9.0054                 4.6962

                      7                      8                      9
                      A                      A                      A
 Frequencies --     89.3064               100.3439               139.0425
 Red. masses --      4.5739                 4.0249                 3.8858
 Frc consts  --      0.0215                 0.0239                 0.0443
 IR Inten    --      0.2519                 4.4486                 4.2761

                     10                     11                     12
                      A                      A                      A
 Frequencies --    179.2155               216.3004               238.0268
 Red. masses --      6.4537                 2.5480                 1.6783
 Frc consts  --      0.1221                 0.0702                 0.0560
 IR Inten    --      2.1539                 7.3010                30.8161

                     13                     14                     15
                      A                      A                      A
 Frequencies --    252.6897               282.3312               309.6707
 Red. masses --      2.7841                 3.4598                 4.2330
 Frc consts  --      0.1047                 0.1625                 0.2392
 IR Inten    --     16.5236                 1.4527                 6.6488

                     16                     17                     18
                      A                      A                      A
 Frequencies --    350.5241               396.8386               446.4087
 Red. masses --      4.5329                 3.8621                 2.9315
 Frc consts  --      0.3281                 0.3583                 0.3442
 IR Inten    --      3.0413                11.4673                21.4708

                     19                     20                     21
                      A                      A                      A
 Frequencies --    482.0373               502.3795               531.5637
 Red. masses --      1.5506                 1.3981                 3.2142
 Frc consts  --      0.2123                 0.2079                 0.5351
 IR Inten    --     53.9421                79.6699                15.4503

                     22                     23                     24
                      A                      A                      A
 Frequencies --    595.0996               620.0152               649.7235
 Red. masses --      1.3106                 2.4941                 3.0202
 Frc consts  --      0.2735                 0.5649                 0.7512
 IR Inten    --     92.6402                 3.3597                40.1650

                     25                     26                     27
                      A                      A                      A
 Frequencies --    653.5005               681.5822               695.6917
 Red. masses --      3.5580                 3.3073                 3.5687
 Frc consts  --      0.8953                 0.9052                 1.0176
 IR Inten    --     23.1193                11.4253                19.1733

                     28                     29                     30
                      A                      A                      A
 Frequencies --    735.1649               787.8028               797.9988
 Red. masses --      4.2159                 3.8022                 1.3836
 Frc consts  --      1.3425                 1.3903                 0.5191
 IR Inten    --     10.7310                23.2017                30.0557

                     31                     32                     33
                      A                      A                      A
 Frequencies --    814.4331               831.7073               878.0316
 Red. masses --      1.4190                 1.3492                 1.4568
 Frc consts  --      0.5546                 0.5499                 0.6617
 IR Inten    --     19.1065                87.6824                13.5194

                     34                     35                     36
                      A                      A                      A
 Frequencies --    906.0352               922.2594               943.6915
 Red. masses --      1.8028                 4.0741                 5.8022
 Frc consts  --      0.8720                 2.0417                 3.0444
 IR Inten    --     15.4114                 8.1174                 8.8461

                     37                     38                     39
                      A                      A                      A
 Frequencies --    978.3274               997.2325              1028.3656
 Red. masses --      2.4607                 2.7972                 3.6349
 Frc consts  --      1.3876                 1.6389                 2.2648
 IR Inten    --      6.0139                 9.0795                13.4076

                     40                     41                     42
                      A                      A                      A
 Frequencies --   1060.4423              1063.9085              1094.8180
 Red. masses --      2.9394                 3.0968                 2.2233
 Frc consts  --      1.9475                 2.0652                 1.5701
 IR Inten    --     24.8162                 1.5179                37.6270

                     43                     44                     45
                      A                      A                      A
 Frequencies --   1106.1421              1118.3992              1142.6141
 Red. masses --      1.6345                 2.5092                 2.8111
 Frc consts  --      1.1783                 1.8492                 2.1623
 IR Inten    --     15.6191                84.5369                18.3785

                     46                     47                     48
                      A                      A                      A
 Frequencies --   1155.5770              1174.7541              1203.8152
 Red. masses --      1.6612                 2.0600                 1.9274
 Frc consts  --      1.3070                 1.6750                 1.6457
 IR Inten    --    130.4944                60.6185                29.4991

                     49                     50                     51
                      A                      A                      A
 Frequencies --   1230.1377              1254.5593              1267.2989
 Red. masses --      1.6164                 1.4335                 1.4625
 Frc consts  --      1.4411                 1.3293                 1.3839
 IR Inten    --     34.7670                34.6708                23.2147

                     52                     53                     54
                      A                      A                      A
 Frequencies --   1286.0342              1297.1765              1336.3809
 Red. masses --      1.3196                 1.4449                 1.1101
 Frc consts  --      1.2859                 1.4324                 1.1681
 IR Inten    --     10.5425                 2.0448                 4.6969

                     55                     56                     57
                      A                      A                      A
 Frequencies --   1337.4535              1351.7586              1371.3397
 Red. masses --      1.6407                 1.6042                 1.6417
 Frc consts  --      1.7292                 1.7270                 1.8190
 IR Inten    --      6.3743                 2.9692                13.5304

                     58                     59                     60
                      A                      A                      A
 Frequencies --   1396.6417              1412.3484              1422.7702
 Red. masses --      2.1197                 2.2877                 2.5734
 Frc consts  --      2.4361                 2.6886                 3.0692
 IR Inten    --     98.5410                19.0314                21.2320

                     61                     62                     63
                      A                      A                      A
 Frequencies --   1428.2439              1468.3395              1485.4398
 Red. masses --      1.5111                 1.0881                 1.4040
 Frc consts  --      1.8161                 1.3823                 1.8252
 IR Inten    --     44.5297                 9.8360                33.3804

                     64                     65                     66
                      A                      A                      A
 Frequencies --   1500.7457              1518.5694              1540.2684
 Red. masses --      2.3162                 1.0839                 1.8563
 Frc consts  --      3.0736                 1.4727                 2.5947
 IR Inten    --      7.6125                 1.9529               241.1844

                     67                     68                     69
                      A                      A                      A
 Frequencies --   1608.2723              1661.4944              1740.3586
 Red. masses --      4.1893                 1.0907                 8.6660
 Frc consts  --      6.3843                 1.7740                15.4649
 IR Inten    --     13.8305                25.2624               204.6949

                     70                     71                     72
                      A                      A                      A
 Frequencies --   1809.7826              2969.3780              3007.7836
 Red. masses --      9.9304                 1.0741                 1.0636
 Frc consts  --     19.1633                 5.5800                 5.6694
 IR Inten    --    282.7893                56.7364                30.5545

                     73                     74                     75
                      A                      A                      A
 Frequencies --   3027.0211              3044.9660              3064.2982
 Red. masses --      1.0611                 1.0961                 1.0975
 Frc consts  --      5.7285                 5.9880                 6.0719
 IR Inten    --     18.0006                10.0904                 7.9798

                     76                     77                     78
                      A                      A                      A
 Frequencies --   3101.0894              3101.6181              3244.2876
 Red. masses --      1.0843                 1.0898                 1.0959
 Frc consts  --      6.1438                 6.1772                 6.7963
 IR Inten    --     14.9780                 8.9696                 0.7426

                     79                     80                     81
                      A                      A                      A
 Frequencies --   3251.7516              3506.0715              3584.8773
 Red. masses --      1.0999                 1.0498                 1.0928
 Frc consts  --      6.8523                 7.6032                 8.2744
 IR Inten    --      5.1154                 0.5347                 2.2238

                     82                     83                     84
                      A                      A                      A
 Frequencies --   3627.9010              3652.8313              3750.0273
 Red. masses --      1.0768                 1.0809                 1.0643
 Frc consts  --      8.3502                 8.4973                 8.8181
 IR Inten    --     34.2811                45.8676                83.3089

 - Thermochemistry -
 -------------------
 Temperature   298.150 Kelvin.  Pressure   1.00000 Atm.
 Atom     1 has atomic number  8 and mass  15.99491

 Molecular mass:   226.10659 amu.
 Principal axes and moments of inertia in atomic units:
                           1         2         3
     Eigenvalues --  3357.641325106.331647681.21134
           X            0.97810   0.10150  -0.18171
           Y           -0.05119   0.96352   0.26270
           Z            0.20174  -0.24764   0.94761
 This molecule is an asymmetric top.
 Rotational symmetry number  1.
 Warning -- assumption of classical behavior for rotation
           may cause significant error
 Rotational temperatures (Kelvin)      0.02580     0.01696     0.01128
 Rotational constants (GHZ):           0.53750     0.35343     0.23496
 Zero-point vibrational energy     640453.0 (Joules/Mol)
                                  153.07194 (Kcal/Mol)
 Warning -- explicit consideration of  23 degrees of freedom as
           vibrations may cause significant error
 Vibrational temperatures:      9.02    41.43    66.29    68.43    86.55
          (Kelvin)            105.60   128.49   144.37   200.05   257.85
                              311.21   342.47   363.56   406.21   445.55
                              504.33   570.96   642.28   693.54   722.81
                              764.80   856.21   892.06   934.81   940.24
                              980.64  1000.94  1057.74  1133.47  1148.14
                             1171.79  1196.64  1263.29  1303.58  1326.92
                             1357.76  1407.59  1434.79  1479.59  1525.74
                             1530.73  1575.20  1591.49  1609.13  1643.96
                             1662.62  1690.21  1732.02  1769.89  1805.03
                             1823.36  1850.31  1866.35  1922.75  1924.29
                             1944.88  1973.05  2009.45  2032.05  2047.05
                             2054.92  2112.61  2137.21  2159.24  2184.88
                             2216.10  2313.94  2390.52  2503.98  2603.87
                             4272.27  4327.52  4355.20  4381.02  4408.84
                             4461.77  4462.53  4667.80  4678.54  5044.45
                             5157.83  5219.73  5255.60  5395.45

 Zero-point correction=                           0.243936 (Hartree/Particle)
 Thermal correction to Energy=                    0.260487
 Thermal correction to Enthalpy=                  0.261431
 Thermal correction to Gibbs Free Energy=         0.195263
 Sum of electronic and zero-point Energies=           -796.187975
 Sum of electronic and thermal Energies=              -796.171423
 Sum of electronic and thermal Enthalpies=            -796.170479
 Sum of electronic and thermal Free Energies=         -796.236647

                     E (Thermal)             CV                S
                      KCal/Mol        Cal/Mol-Kelvin    Cal/Mol-Kelvin
 Total                  163.458             58.948            139.262
 Electronic               0.000              0.000              0.000
 Translational            0.889              2.981             42.150
 Rotational               0.889              2.981             33.243
 Vibrational            161.681             52.987             63.869
 Vibration     1          0.593              1.987              8.938
 Vibration     2          0.593              1.984              5.911
 Vibration     3          0.595              1.979              4.979
 Vibration     4          0.595              1.979              4.916
 Vibration     5          0.597              1.973              4.452
 Vibration     6          0.599              1.967              4.060
 Vibration     7          0.602              1.957              3.675
 Vibration     8          0.604              1.949              3.448
 Vibration     9          0.615              1.914              2.817
 Vibration    10          0.629              1.868              2.337
 Vibration    11          0.645              1.816              1.990
 Vibration    12          0.656              1.782              1.818
 Vibration    13          0.664              1.758              1.712
 Vibration    14          0.681              1.706              1.520
 Vibration    15          0.699              1.655              1.364
 Vibration    16          0.727              1.574              1.164
 Vibration    17          0.763              1.477              0.974
 Vibration    18          0.806              1.369              0.807
 Vibration    19          0.838              1.290              0.705
 Vibration    20          0.858              1.245              0.652
 Vibration    21          0.887              1.180              0.584
 Vibration    22          0.953              1.042              0.458
 Vibration    23          0.980              0.990              0.416

 Optimization completed on the basis of negligible forces.
    -- Stationary point found.
 Normal termination of Gaussian 09 at Sat Jul 24 17:09:55 2021.
