 Gaussian 09, Revision D.01,
 Gaussian 09:  ES64L-G09RevD.01 24-Apr-2013

 ----------------------------------------------------------------------
 # B3LYP/6-311++G(2df,2pd) EmpiricalDispersion=GD3BJ opt=calcfc freq=no
 raman nosymm integral(ultrafinegrid)
 ----------------------------------------------------------------------

 ------------------------------------------------------------
 Candidate Structure: Conf:591 OPT and FREQ calc in gas phase
 ------------------------------------------------------------
 Symbolic Z-matrix:
 Charge =  0 Multiplicity = 1

 SCF Done:  E(RB3LYP) =  -796.433032690     A.U. after   15 cycles
 SCF Done:  E(RB3LYP) =  -796.435105663     A.U. after   13 cycles
 SCF Done:  E(RB3LYP) =  -796.435145041     A.U. after   14 cycles
 SCF Done:  E(RB3LYP) =  -796.425192942     A.U. after   17 cycles
 SCF Done:  E(RB3LYP) =  -796.435335984     A.U. after   12 cycles
 SCF Done:  E(RB3LYP) =  -796.435707750     A.U. after   12 cycles
 SCF Done:  E(RB3LYP) =  -796.435851038     A.U. after   12 cycles
 SCF Done:  E(RB3LYP) =  -796.436684309     A.U. after   15 cycles
 SCF Done:  E(RB3LYP) =  -796.437797891     A.U. after   14 cycles
 SCF Done:  E(RB3LYP) =  -796.439615842     A.U. after   13 cycles
 SCF Done:  E(RB3LYP) =  -796.439952031     A.U. after   11 cycles
 SCF Done:  E(RB3LYP) =  -796.439902772     A.U. after   13 cycles
 SCF Done:  E(RB3LYP) =  -796.440271361     A.U. after    9 cycles
 SCF Done:  E(RB3LYP) =  -796.440283161     A.U. after   13 cycles
 SCF Done:  E(RB3LYP) =  -796.440466168     A.U. after   12 cycles
 SCF Done:  E(RB3LYP) =  -796.440496422     A.U. after   10 cycles
 SCF Done:  E(RB3LYP) =  -796.440497883     A.U. after    9 cycles
 SCF Done:  E(RB3LYP) =  -796.440498191     A.U. after    8 cycles
 SCF Done:  E(RB3LYP) =  -796.440498261     A.U. after    8 cycles
 Optimization completed.
    -- Stationary point found.
 Normal termination of Gaussian 09 at Mon Jul 26 15:08:35 2021.

 ----------------------------------------------------------------------
 #N Geom=AllCheck Guess=TCheck SCRF=Check GenChk RB3LYP/6-311++G(2df,2p
 d) Freq
 ----------------------------------------------------------------------

 Structure from the checkpoint file:  "conf-591.chk"
 ------------------------------------------------------------
 Candidate Structure: Conf:591 OPT and FREQ calc in gas phase
 ------------------------------------------------------------
 Charge =  0 Multiplicity = 1

                          Input orientation:
 ---------------------------------------------------------------------
 Center     Atomic      Atomic             Coordinates (Angstroms)
 Number     Number       Type             X           Y           Z
 ---------------------------------------------------------------------
      1          8           0       -0.814093    0.293807   -1.020899
      2          6           0       -1.275062    0.152745    0.110147
      3          7           0       -0.507093   -0.210457    1.159801
      4          6           0        0.906463   -0.487592    1.031850
      5          6           0        1.338339   -1.224410    2.279643
      6          8           0        2.582488   -1.710759    2.158913
      7          8           0        0.667833   -1.345876    3.274028
      8          6           0        1.781246    0.800724    0.819012
      9          6           0        2.553269    0.799464   -0.449059
     10          6           0        3.895280    0.871380   -0.721298
     11          7           0        4.115700    0.834973   -2.078357
     12          6           0        2.923347    0.736535   -2.621887
     13          7           0        1.942309    0.713974   -1.680451
     14          6           0       -2.742918    0.365310    0.400138
     15          6           0       -3.618237   -0.574339   -0.432790
     16          7           0       -5.029661   -0.311781   -0.153254
     17          1           0       -0.913538   -0.355008    2.071301
     18          1           0        1.066604   -1.147088    0.179146
     19          1           0        2.816741   -2.141397    2.993917
     20          1           0        2.479678    0.921765    1.644862
     21          1           0        1.096254    1.648833    0.858162
     22          1           0        4.706600    0.947843   -0.017090
     23          1           0        2.714466    0.679273   -3.676778
     24          1           0        0.940132    0.608371   -1.798842
     25          1           0       -2.971540    0.234884    1.457483
     26          1           0       -2.975656    1.399729    0.136379
     27          1           0       -3.407219   -1.606503   -0.146516
     28          1           0       -3.339943   -0.467745   -1.485583
     29          1           0       -5.620022   -1.012274   -0.582463
     30          1           0       -5.311745    0.585758   -0.528873
 ---------------------------------------------------------------------

 SCF Done:  E(RB3LYP) =  -796.440498262     A.U. after    1 cycles

 Alpha  occ. eigenvalues --  -19.20421 -19.14966 -19.11401 -14.36494 -14.35080
 Alpha  occ. eigenvalues --  -14.30829 -14.28285 -10.33812 -10.29625 -10.25328
 Alpha  occ. eigenvalues --  -10.21317 -10.21099 -10.20458 -10.19758 -10.19364
 Alpha  occ. eigenvalues --  -10.17390  -1.14784  -1.06729  -1.05856  -1.00759
 Alpha  occ. eigenvalues --   -0.95853  -0.90124  -0.86400  -0.82120  -0.77788
 Alpha  occ. eigenvalues --   -0.74965  -0.69079  -0.66580  -0.62786  -0.61487
 Alpha  occ. eigenvalues --   -0.60442  -0.58459  -0.55014  -0.54797  -0.52562
 Alpha  occ. eigenvalues --   -0.51105  -0.50872  -0.49733  -0.49048  -0.47096
 Alpha  occ. eigenvalues --   -0.46384  -0.45496  -0.44183  -0.43609  -0.42396
 Alpha  occ. eigenvalues --   -0.41605  -0.40490  -0.40281  -0.40019  -0.39553
 Alpha  occ. eigenvalues --   -0.38594  -0.36359  -0.36181  -0.32204  -0.29547
 Alpha  occ. eigenvalues --   -0.29040  -0.27602  -0.26408  -0.25818  -0.22464
 Alpha virt. eigenvalues --   -0.03496  -0.02394  -0.01692  -0.01027  -0.00198
 Alpha virt. eigenvalues --    0.00252   0.00661   0.01397   0.01711   0.02622
 Alpha virt. eigenvalues --    0.02817   0.03213   0.03434   0.04420   0.04849

 Mulliken charges:
               1
     1  O   -0.437884
     2  C   -0.134256
     3  N    0.127898
     4  C   -0.116953
     5  C    0.216713
     6  O   -0.179727
     7  O   -0.402230
     8  C    0.135258
     9  C    0.201795
    10  C   -0.323894
    11  N   -0.302917
    12  C    0.095261
    13  N   -0.138823
    14  C    0.180135
    15  C   -0.194140
    16  N   -0.173674
    17  H    0.136414
    18  H    0.089343
    19  H    0.238700
    20  H    0.079434
    21  H    0.045559
    22  H    0.059190
    23  H    0.098378
    24  H    0.283430
    25  H    0.056802
    26  H    0.042774
    27  H    0.040978
    28  H    0.068349
    29  H    0.104040
    30  H    0.104051
 Sum of Mulliken charges =   0.00000

 Dipole moment (field-independent basis, Debye):
    X=             -3.8408    Y=             -1.1335    Z=              2.2487  Tot=              4.5928
 Quadrupole moment (field-independent basis, Debye-Ang):
   XX=           -106.5985   YY=            -92.5060   ZZ=            -98.1666
   XY=             -6.8856   XZ=             22.7889   YZ=              1.7640

  Exact polarizability: 182.074   2.020 109.128  -7.622 -11.837 158.369
 Approx polarizability: 234.820  -1.487 165.667 -10.337  -8.900 241.782

                      1                      2                      3
                      A                      A                      A
 Frequencies --     12.8425                37.0939                50.5801
 Red. masses --      3.3004                 5.9805                 4.5498
 Frc consts  --      0.0003                 0.0048                 0.0069
 IR Inten    --      1.1799                 1.5132                 1.1595

                      4                      5                      6
                      A                      A                      A
 Frequencies --     58.2953                74.4932                79.1643
 Red. masses --      9.4205                 2.6987                 3.9520
 Frc consts  --      0.0189                 0.0088                 0.0146
 IR Inten    --      1.5400                 1.5374                 0.7547

                      7                      8                      9
                      A                      A                      A
 Frequencies --     90.3700               127.6379               139.8145
 Red. masses --      6.4011                 5.9265                 4.2519
 Frc consts  --      0.0308                 0.0569                 0.0490
 IR Inten    --      8.7828                 3.4628                 9.6504

                     10                     11                     12
                      A                      A                      A
 Frequencies --    189.9450               222.9096               234.1898
 Red. masses --      4.8998                 1.8751                 1.9849
 Frc consts  --      0.1042                 0.0549                 0.0641
 IR Inten    --      2.2615                 7.6287                41.9560

                     13                     14                     15
                      A                      A                      A
 Frequencies --    283.7804               293.8699               316.7185
 Red. masses --      3.6853                 3.4346                 3.3533
 Frc consts  --      0.1749                 0.1748                 0.1982
 IR Inten    --     10.7467                 4.6579                 3.0147

                     16                     17                     18
                      A                      A                      A
 Frequencies --    356.6647               393.5772               427.6713
 Red. masses --      6.6149                 4.1808                 3.5299
 Frc consts  --      0.4958                 0.3816                 0.3804
 IR Inten    --      0.4454                 5.0730                 4.1070

                     19                     20                     21
                      A                      A                      A
 Frequencies --    534.7571               568.7346               588.4082
 Red. masses --      2.6010                 1.3924                 1.3258
 Frc consts  --      0.4382                 0.2654                 0.2704
 IR Inten    --     62.6823                39.2413                81.4744

                     22                     23                     24
                      A                      A                      A
 Frequencies --    635.1136               651.4982               655.8712
 Red. masses --      4.6174                 3.5735                 2.5155
 Frc consts  --      1.0974                 0.8937                 0.6376
 IR Inten    --     24.0991                 1.8948                 5.4926

                     25                     26                     27
                      A                      A                      A
 Frequencies --    677.8916               722.2329               760.9486
 Red. masses --      3.3245                 3.5226                 5.2272
 Frc consts  --      0.9001                 1.0826                 1.7833
 IR Inten    --     51.2074                14.0548                 9.8007

                     28                     29                     30
                      A                      A                      A
 Frequencies --    776.7949               786.4203               796.6083
 Red. masses --      1.1355                 3.0737                 1.3021
 Frc consts  --      0.4037                 1.1200                 0.4868
 IR Inten    --     44.9648                 9.4168                28.4329

                     31                     32                     33
                      A                      A                      A
 Frequencies --    828.5625               834.7066               846.5067
 Red. masses --      1.4363                 1.3391                 1.4500
 Frc consts  --      0.5810                 0.5497                 0.6122
 IR Inten    --     21.3704               110.1038                19.5123

                     34                     35                     36
                      A                      A                      A
 Frequencies --    870.9929               946.6587               949.2151
 Red. masses --      2.3705                 5.3983                 3.6902
 Frc consts  --      1.0595                 2.8503                 1.9590
 IR Inten    --     19.2702                14.3896                 9.5162

                     37                     38                     39
                      A                      A                      A
 Frequencies --    975.0313               984.5479              1026.2580
 Red. masses --      2.6994                 3.1885                 3.1847
 Frc consts  --      1.5120                 1.8210                 1.9762
 IR Inten    --      1.1577                 5.2149                19.7348

                     40                     41                     42
                      A                      A                      A
 Frequencies --   1027.5474              1050.9417              1085.1460
 Red. masses --      3.6305                 2.2137                 2.7392
 Frc consts  --      2.2585                 1.4405                 1.9004
 IR Inten    --      6.3827                 3.1633                49.6178

                     43                     44                     45
                      A                      A                      A
 Frequencies --   1129.2803              1130.6859              1144.0811
 Red. masses --      1.7951                 2.5992                 2.1488
 Frc consts  --      1.3488                 1.9578                 1.6572
 IR Inten    --     55.6109                31.5454                 2.1769

                     46                     47                     48
                      A                      A                      A
 Frequencies --   1156.2875              1178.3148              1209.2814
 Red. masses --      1.4398                 2.4466                 1.3049
 Frc consts  --      1.1342                 2.0014                 1.1243
 IR Inten    --     67.7648               132.1318                 7.2715

                     49                     50                     51
                      A                      A                      A
 Frequencies --   1238.5225              1261.6821              1278.0708
 Red. masses --      1.5188                 2.2311                 1.4167
 Frc consts  --      1.3727                 2.0926                 1.3634
 IR Inten    --     17.3580                10.5654                10.7803

                     52                     53                     54
                      A                      A                      A
 Frequencies --   1289.9787              1300.7571              1316.7617
 Red. masses --      1.2871                 1.3371                 1.2328
 Frc consts  --      1.2619                 1.3329                 1.2594
 IR Inten    --      4.9111                 5.5677                 1.2166

                     55                     56                     57
                      A                      A                      A
 Frequencies --   1330.9998              1356.9846              1360.5555
 Red. masses --      1.3438                 1.4292                 1.4142
 Frc consts  --      1.4026                 1.5506                 1.5424
 IR Inten    --      4.4300                39.9519                 1.5543

                     58                     59                     60
                      A                      A                      A
 Frequencies --   1387.5758              1416.2218              1422.6452
 Red. masses --      4.2306                 2.3535                 1.3945
 Frc consts  --      4.7992                 2.7812                 1.6629
 IR Inten    --     15.0756                96.0403                39.0304

                     61                     62                     63
                      A                      A                      A
 Frequencies --   1438.5880              1479.4684              1485.3738
 Red. masses --      2.3950                 1.1463                 1.1158
 Frc consts  --      2.9203                 1.4782                 1.4505
 IR Inten    --     82.0855                14.3949                 9.4489

                     64                     65                     66
                      A                      A                      A
 Frequencies --   1499.5973              1522.6997              1538.9770
 Red. masses --      3.1178                 1.0866                 2.4753
 Frc consts  --      4.1310                 1.4844                 3.4541
 IR Inten    --     27.9095                 3.0623               315.9977

                     67                     68                     69
                      A                      A                      A
 Frequencies --   1610.6243              1659.4882              1703.7373
 Red. masses --      4.2564                 1.0899                 8.3056
 Frc consts  --      6.5054                 1.7684                14.2045
 IR Inten    --     16.5521                28.7040               246.0618

                     70                     71                     72
                      A                      A                      A
 Frequencies --   1800.2293              3006.9625              3039.5202
 Red. masses --      9.6926                 1.0648                 1.0677
 Frc consts  --     18.5075                 5.6724                 5.8120
 IR Inten    --    321.3329                28.7389                 6.3079

                     73                     74                     75
                      A                      A                      A
 Frequencies --   3047.9654              3055.9020              3073.9777
 Red. masses --      1.0655                 1.0900                 1.0837
 Frc consts  --      5.8323                 5.9974                 6.0335
 IR Inten    --     17.6411                19.8886                 8.8430

                     76                     77                     78
                      A                      A                      A
 Frequencies --   3095.3713              3102.1215              3236.2260
 Red. masses --      1.1028                 1.0976                 1.0959
 Frc consts  --      6.2254                 6.2234                 6.7625
 IR Inten    --     20.9506                 8.8464                 7.2652

                     79                     80                     81
                      A                      A                      A
 Frequencies --   3245.9966              3502.5810              3504.6334
 Red. masses --      1.0981                 1.0846                 1.0498
 Frc consts  --      6.8171                 7.8398                 7.5973
 IR Inten    --      0.8587               433.1704                 0.0902

                     82                     83                     84
                      A                      A                      A
 Frequencies --   3584.1025              3601.0244              3755.1182
 Red. masses --      1.0929                 1.0778                 1.0644
 Frc consts  --      8.2713                 8.2348                 8.8426
 IR Inten    --      3.0606                82.6995                97.9404

 - Thermochemistry -
 -------------------
 Temperature   298.150 Kelvin.  Pressure   1.00000 Atm.
 Atom     1 has atomic number  8 and mass  15.99491

 Molecular mass:   226.10659 amu.
 Principal axes and moments of inertia in atomic units:
                           1         2         3
     Eigenvalues --  2637.349265899.899748131.16929
           X            0.98670   0.15809  -0.03783
           Y            0.09871  -0.39776   0.91217
           Z           -0.12915   0.90377   0.40807
 This molecule is an asymmetric top.
 Rotational symmetry number  1.
 Warning -- assumption of classical behavior for rotation
           may cause significant error
 Rotational temperatures (Kelvin)      0.03284     0.01468     0.01065
 Rotational constants (GHZ):           0.68430     0.30589     0.22195
 Zero-point vibrational energy     642813.3 (Joules/Mol)
                                  153.63606 (Kcal/Mol)
 Warning -- explicit consideration of  21 degrees of freedom as
           vibrations may cause significant error
 Vibrational temperatures:     18.48    53.37    72.77    83.87   107.18
          (Kelvin)            113.90   130.02   183.64   201.16   273.29
                              320.72   336.95   408.30   422.81   455.69
                              513.16   566.27   615.32   769.40   818.28
                              846.59   913.79   937.36   943.65   975.33
                             1039.13  1094.83  1117.63  1131.48  1146.14
                             1192.12  1200.96  1217.93  1253.16  1362.03
                             1365.71  1402.85  1416.54  1476.55  1478.41
                             1512.07  1561.28  1624.78  1626.80  1646.08
                             1663.64  1695.33  1739.88  1781.96  1815.28
                             1838.86  1855.99  1871.50  1894.52  1915.01
                             1952.40  1957.53  1996.41  2037.62  2046.87
                             2069.80  2128.62  2137.12  2157.58  2190.82
                             2214.24  2317.33  2387.63  2451.29  2590.13
                             4326.34  4373.19  4385.34  4396.76  4422.76
                             4453.54  4463.26  4656.20  4670.26  5039.43
                             5042.38  5156.72  5181.06  5402.77

 Zero-point correction=                           0.244835 (Hartree/Particle)
 Thermal correction to Energy=                    0.260940
 Thermal correction to Enthalpy=                  0.261885
 Thermal correction to Gibbs Free Energy=         0.197944
 Sum of electronic and zero-point Energies=           -796.195664
 Sum of electronic and thermal Energies=              -796.179558
 Sum of electronic and thermal Enthalpies=            -796.178614
 Sum of electronic and thermal Free Energies=         -796.242554

                     E (Thermal)             CV                S
                      KCal/Mol        Cal/Mol-Kelvin    Cal/Mol-Kelvin
 Total                  163.743             58.033            134.573
 Electronic               0.000              0.000              0.000
 Translational            0.889              2.981             42.150
 Rotational               0.889              2.981             33.203
 Vibrational            161.965             52.071             59.220
 Vibration     1          0.593              1.987              7.514
 Vibration     2          0.594              1.982              5.409
 Vibration     3          0.595              1.977              4.795
 Vibration     4          0.596              1.974              4.514
 Vibration     5          0.599              1.966              4.031
 Vibration     6          0.600              1.963              3.911
 Vibration     7          0.602              1.956              3.652
 Vibration     8          0.611              1.926              2.981
 Vibration     9          0.615              1.914              2.806
 Vibration    10          0.633              1.854              2.228
 Vibration    11          0.649              1.806              1.935
 Vibration    12          0.654              1.789              1.847
 Vibration    13          0.682              1.704              1.511
 Vibration    14          0.689              1.685              1.452
 Vibration    15          0.704              1.642              1.327
 Vibration    16          0.732              1.562              1.137
 Vibration    17          0.761              1.484              0.987
 Vibration    18          0.789              1.410              0.866
 Vibration    19          0.890              1.173              0.577
 Vibration    20          0.925              1.099              0.507
 Vibration    21          0.946              1.057              0.470

 Normal termination of Gaussian 09 at Mon Jul 26 21:16:25 2021.
