 Gaussian 09, Revision D.01,
 Gaussian 09:  ES64L-G09RevD.01 24-Apr-2013

 ----------------------------------------------------------------------
 # B3LYP/6-311++G(2df,2pd) EmpiricalDispersion=GD3BJ opt=calcfc freq=no
 raman nosymm integral(ultrafinegrid)
 ----------------------------------------------------------------------

 ------------------------------------------------------------
 Candidate Structure: Conf:490 OPT and FREQ calc in gas phase
 ------------------------------------------------------------
 Symbolic Z-matrix:
 Charge =  0 Multiplicity = 1

 SCF Done:  E(RB3LYP) =  -796.433514615     A.U. after   15 cycles
 SCF Done:  E(RB3LYP) =  -796.435012535     A.U. after   15 cycles
 SCF Done:  E(RB3LYP) =  -796.429509521     A.U. after   15 cycles
 SCF Done:  E(RB3LYP) =  -796.435415361     A.U. after   12 cycles
 SCF Done:  E(RB3LYP) =  -796.436305688     A.U. after   14 cycles
 SCF Done:  E(RB3LYP) =  -796.432253405     A.U. after   15 cycles
 SCF Done:  E(RB3LYP) =  -796.436372963     A.U. after   11 cycles
 SCF Done:  E(RB3LYP) =  -796.436584086     A.U. after   13 cycles
 SCF Done:  E(RB3LYP) =  -796.436668086     A.U. after   12 cycles
 SCF Done:  E(RB3LYP) =  -796.436692467     A.U. after   12 cycles
 SCF Done:  E(RB3LYP) =  -796.436697614     A.U. after   10 cycles
 SCF Done:  E(RB3LYP) =  -796.436697814     A.U. after   10 cycles
 SCF Done:  E(RB3LYP) =  -796.436697854     A.U. after    9 cycles
 SCF Done:  E(RB3LYP) =  -796.436697867     A.U. after    8 cycles
 Optimization completed.
    -- Stationary point found.
 Normal termination of Gaussian 09 at Sat Jul 24 16:28:20 2021.

 ----------------------------------------------------------------------
 #N Geom=AllCheck Guess=TCheck SCRF=Check GenChk RB3LYP/6-311++G(2df,2p
 d) Freq
 ----------------------------------------------------------------------

 Structure from the checkpoint file:  "conf-490.chk"
 ------------------------------------------------------------
 Candidate Structure: Conf:490 OPT and FREQ calc in gas phase
 ------------------------------------------------------------
 Charge =  0 Multiplicity = 1

                          Input orientation:
 ---------------------------------------------------------------------
 Center     Atomic      Atomic             Coordinates (Angstroms)
 Number     Number       Type             X           Y           Z
 ---------------------------------------------------------------------
      1          8           0        0.869276    0.531599   -2.328112
      2          6           0        1.559593    0.159969   -1.387315
      3          7           0        1.069823    0.037779   -0.130232
      4          6           0       -0.283972    0.417776    0.172032
      5          6           0       -0.390816    0.714469    1.664777
      6          8           0       -1.527075    1.314955    2.061301
      7          8           0        0.462684    0.428343    2.458992
      8          6           0       -1.291558   -0.680543   -0.271279
      9          6           0       -2.718906   -0.283405   -0.109977
     10          6           0       -3.458570    0.742391   -0.649130
     11          7           0       -4.741503    0.736475   -0.145760
     12          6           0       -4.789640   -0.272741    0.687176
     13          7           0       -3.590816   -0.921973    0.747447
     14          6           0        3.026340   -0.205107   -1.570724
     15          6           0        3.966661    0.181583   -0.427805
     16          7           0        3.698828   -0.615706    0.775281
     17          1           0        1.697354   -0.241469    0.621657
     18          1           0       -0.527002    1.323076   -0.388695
     19          1           0       -2.142360    1.420499    1.317359
     20          1           0       -1.069962   -0.880917   -1.318367
     21          1           0       -1.081079   -1.592512    0.289465
     22          1           0       -3.143482    1.463496   -1.384395
     23          1           0       -5.644193   -0.579087    1.266101
     24          1           0       -3.365518   -1.707262    1.333905
     25          1           0        3.084567   -1.284581   -1.742578
     26          1           0        3.342744    0.273863   -2.495275
     27          1           0        4.999723    0.091816   -0.781002
     28          1           0        3.810303    1.230297   -0.170586
     29          1           0        4.161002   -0.233202    1.589290
     30          1           0        4.017364   -1.569997    0.661057
 ---------------------------------------------------------------------

 SCF Done:  E(RB3LYP) =  -796.436697867     A.U. after    2 cycles

 Alpha  occ. eigenvalues --  -19.17932 -19.12331 -19.09001 -14.38692 -14.33553
 Alpha  occ. eigenvalues --  -14.31882 -14.30846 -10.31564 -10.27316 -10.24158
 Alpha  occ. eigenvalues --  -10.23868 -10.22519 -10.21596 -10.20655 -10.19752
 Alpha  occ. eigenvalues --  -10.18608  -1.11949  -1.04425  -1.03890  -1.03524
 Alpha  occ. eigenvalues --   -0.93706  -0.90827  -0.89101  -0.82016  -0.77717
 Alpha  occ. eigenvalues --   -0.74666  -0.69001  -0.64870  -0.63463  -0.63017
 Alpha  occ. eigenvalues --   -0.61184  -0.58758  -0.57327  -0.55085  -0.52461
 Alpha  occ. eigenvalues --   -0.50652  -0.48855  -0.48324  -0.47161  -0.46933
 Alpha  occ. eigenvalues --   -0.45972  -0.45108  -0.44306  -0.44021  -0.42751
 Alpha  occ. eigenvalues --   -0.42299  -0.41094  -0.40526  -0.40072  -0.38944
 Alpha  occ. eigenvalues --   -0.38063  -0.35817  -0.33926  -0.30565  -0.29672
 Alpha  occ. eigenvalues --   -0.28767  -0.27527  -0.27223  -0.25982  -0.24669
 Alpha virt. eigenvalues --   -0.02504  -0.01954  -0.01638  -0.00200   0.00017
 Alpha virt. eigenvalues --    0.00454   0.00794   0.01122   0.01549   0.01995
 Alpha virt. eigenvalues --    0.02657   0.03113   0.03748   0.04107   0.04303

 Mulliken charges:
               1
     1  O   -0.419719
     2  C    0.033564
     3  N   -0.012420
     4  C    0.066617
     5  C    0.023608
     6  O   -0.197163
     7  O   -0.343930
     8  C   -0.040969
     9  C    0.069776
    10  C   -0.307903
    11  N   -0.255673
    12  C    0.102663
    13  N    0.056626
    14  C   -0.020374
    15  C   -0.121235
    16  N   -0.199779
    17  H    0.269848
    18  H    0.126196
    19  H    0.269360
    20  H    0.121120
    21  H    0.032187
    22  H    0.097883
    23  H    0.099884
    24  H    0.135811
    25  H    0.036422
    26  H    0.046815
    27  H    0.059237
    28  H    0.056236
    29  H    0.117491
    30  H    0.097822
 Sum of Mulliken charges =   0.00000

 Dipole moment (field-independent basis, Debye):
    X=              3.0662    Y=             -3.9421    Z=              1.1492  Tot=              5.1247
 Quadrupole moment (field-independent basis, Debye-Ang):
   XX=            -84.6797   YY=            -90.0804   ZZ=           -112.0987
   XY=              8.8471   XZ=             -6.8800   YZ=             -3.5865

  Exact polarizability: 189.966  -7.813 115.723  -6.480  -8.181 137.480
 Approx polarizability: 236.313 -16.752 192.530   0.068 -23.070 213.367

                      1                      2                      3
                      A                      A                      A
 Frequencies --     15.9439                31.3107                46.1985
 Red. masses --      4.5344                 5.0924                 4.3981
 Frc consts  --      0.0007                 0.0029                 0.0055
 IR Inten    --      0.9264                 6.0395                 2.0951

                      4                      5                      6
                      A                      A                      A
 Frequencies --     57.8893                81.2615                87.4061
 Red. masses --      4.4064                 5.1627                 6.2042
 Frc consts  --      0.0087                 0.0201                 0.0279
 IR Inten    --      6.7887                 3.3346                 4.5631

                      7                      8                      9
                      A                      A                      A
 Frequencies --    102.4363               118.2081               174.5444
 Red. masses --      7.0922                 4.2429                 4.9784
 Frc consts  --      0.0438                 0.0349                 0.0894
 IR Inten    --      6.8191                 5.2863                 8.8814

                     10                     11                     12
                      A                      A                      A
 Frequencies --    196.9996               228.4181               280.0858
 Red. masses --      2.2817                 5.1284                 1.2198
 Frc consts  --      0.0522                 0.1576                 0.0564
 IR Inten    --      7.3654                 4.7531                10.8023

                     13                     14                     15
                      A                      A                      A
 Frequencies --    291.1937               332.5969               343.8285
 Red. masses --      7.9689                 2.2402                 4.2517
 Frc consts  --      0.3981                 0.1460                 0.2961
 IR Inten    --      0.5339                 6.0798                 7.6711

                     16                     17                     18
                      A                      A                      A
 Frequencies --    347.7636               394.9112               474.1128
 Red. masses --      6.3421                 4.3467                 2.7156
 Frc consts  --      0.4519                 0.3994                 0.3596
 IR Inten    --      5.6260                14.8400                11.3592

                     19                     20                     21
                      A                      A                      A
 Frequencies --    510.4249               550.6881               603.4522
 Red. masses --      3.2203                 1.3580                 3.8967
 Frc consts  --      0.4943                 0.2426                 0.8361
 IR Inten    --     25.9427                81.4799                 9.6742

                     22                     23                     24
                      A                      A                      A
 Frequencies --    608.4029               646.7672               674.2017
 Red. masses --      1.4385                 2.7616                 2.8702
 Frc consts  --      0.3137                 0.6806                 0.7687
 IR Inten    --     72.1357                 5.4573                 9.9625

                     25                     26                     27
                      A                      A                      A
 Frequencies --    683.5841               695.7339               738.4241
 Red. masses --      3.1530                 3.0116                 3.1834
 Frc consts  --      0.8681                 0.8589                 1.0227
 IR Inten    --     14.2352                32.3391                 7.8486

                     28                     29                     30
                      A                      A                      A
 Frequencies --    761.8681               791.8830               817.0852
 Red. masses --      2.5422                 1.4901                 2.1756
 Frc consts  --      0.8694                 0.5505                 0.8558
 IR Inten    --      6.2231                29.9903                22.8471

                     31                     32                     33
                      A                      A                      A
 Frequencies --    826.6895               830.5699               863.0594
 Red. masses --      1.4055                 1.5621                 1.4584
 Frc consts  --      0.5659                 0.6349                 0.6400
 IR Inten    --     35.6390                68.0232                26.4429

                     34                     35                     36
                      A                      A                      A
 Frequencies --    891.7229               916.6932               943.7005
 Red. masses --      2.6895                 2.1195                 5.7462
 Frc consts  --      1.2600                 1.0494                 3.0151
 IR Inten    --     10.5817                10.9532                11.0525

                     37                     38                     39
                      A                      A                      A
 Frequencies --    975.8705              1002.6985              1013.1340
 Red. masses --      2.1602                 1.6866                 3.3322
 Frc consts  --      1.2120                 0.9991                 2.0152
 IR Inten    --     12.4438                22.8825                 2.9379

                     40                     41                     42
                      A                      A                      A
 Frequencies --   1031.3918              1039.1006              1082.9310
 Red. masses --      3.9703                 3.0533                 2.6591
 Frc consts  --      2.4884                 1.9424                 1.8373
 IR Inten    --      8.0662                 6.3195                 8.1967

                     43                     44                     45
                      A                      A                      A
 Frequencies --   1108.6326              1140.1466              1145.1844
 Red. masses --      1.6134                 2.4897                 2.0953
 Frc consts  --      1.1683                 1.9069                 1.6190
 IR Inten    --     13.4339                14.4935                 8.6065

                     46                     47                     48
                      A                      A                      A
 Frequencies --   1161.5338              1165.5437              1201.8884
 Red. masses --      1.8174                 1.5085                 2.3481
 Frc consts  --      1.4446                 1.2074                 1.9984
 IR Inten    --     19.7109                12.4776                20.4232

                     49                     50                     51
                      A                      A                      A
 Frequencies --   1246.2515              1253.9427              1282.6964
 Red. masses --      1.6317                 1.8391                 1.4340
 Frc consts  --      1.4931                 1.7037                 1.3901
 IR Inten    --     21.0745                28.7377                 1.3376

                     52                     53                     54
                      A                      A                      A
 Frequencies --   1295.3053              1313.4493              1315.9664
 Red. masses --      1.3231                 1.3467                 1.4357
 Frc consts  --      1.3080                 1.3688                 1.4649
 IR Inten    --      1.3156                 2.7748                53.6595

                     55                     56                     57
                      A                      A                      A
 Frequencies --   1320.6123              1360.3235              1369.4863
 Red. masses --      1.4953                 1.3521                 1.3814
 Frc consts  --      1.5364                 1.4742                 1.5265
 IR Inten    --     94.0006                88.6844                12.0940

                     58                     59                     60
                      A                      A                      A
 Frequencies --   1396.8693              1405.3565              1419.5860
 Red. masses --      2.3138                 1.9424                 1.4146
 Frc consts  --      2.6600                 2.2603                 1.6796
 IR Inten    --     52.8398                52.3645                19.0267

                     61                     62                     63
                      A                      A                      A
 Frequencies --   1425.0258              1465.6845              1486.9922
 Red. masses --      3.1027                 1.0832                 1.9507
 Frc consts  --      3.7122                 1.3711                 2.5413
 IR Inten    --     20.3649                14.7030                17.4406

                     64                     65                     66
                      A                      A                      A
 Frequencies --   1492.5532              1513.2359              1546.6937
 Red. masses --      1.5639                 1.1014                 2.0656
 Frc consts  --      2.0527                 1.4860                 2.9115
 IR Inten    --     11.9795                14.4335               370.1005

                     67                     68                     69
                      A                      A                      A
 Frequencies --   1597.3950              1655.8906              1715.9188
 Red. masses --      4.0989                 1.0906                 9.0325
 Frc consts  --      6.1622                 1.7620                15.6693
 IR Inten    --      9.1826                34.2417               329.7116

                     70                     71                     72
                      A                      A                      A
 Frequencies --   1828.4870              2988.9896              3024.4583
 Red. masses --      9.8015                 1.0718                 1.0706
 Frc consts  --     19.3075                 5.6417                 5.7698
 IR Inten    --    294.1326                78.5254                 7.0631

                     73                     74                     75
                      A                      A                      A
 Frequencies --   3042.5124              3055.7084              3065.8494
 Red. masses --      1.0763                 1.0678                 1.0912
 Frc consts  --      5.8699                 5.8743                 6.0432
 IR Inten    --      7.7933                20.2528                23.3887

                     76                     77                     78
                      A                      A                      A
 Frequencies --   3101.4491              3107.6868              3239.5805
 Red. masses --      1.1027                 1.0920                 1.0962
 Frc consts  --      6.2494                 6.2136                 6.7782
 IR Inten    --      1.6139                 9.0430                 3.1341

                     79                     80                     81
                      A                      A                      A
 Frequencies --   3250.5321              3419.0834              3510.6931
 Red. masses --      1.0986                 1.0814                 1.0497
 Frc consts  --      6.8393                 7.4479                 7.6229
 IR Inten    --      1.1698               328.3646                 0.5415

                     82                     83                     84
                      A                      A                      A
 Frequencies --   3592.3673              3649.2135              3658.7752
 Red. masses --      1.0936                 1.0810                 1.0668
 Frc consts  --      8.3151                 8.4819                 8.4138
 IR Inten    --      6.5570                50.7708               257.3281

 - Thermochemistry -
 -------------------
 Temperature   298.150 Kelvin.  Pressure   1.00000 Atm.
 Atom     1 has atomic number  8 and mass  15.99491

 Molecular mass:   226.10659 amu.
 Principal axes and moments of inertia in atomic units:
                           1         2         3
     Eigenvalues --  1645.325566600.324477570.19248
           X            0.99149   0.12922   0.01598
           Y           -0.02559   0.07304   0.99700
           Z           -0.12767   0.98892  -0.07573
 This molecule is an asymmetric top.
 Rotational symmetry number  1.
 Warning -- assumption of classical behavior for rotation
           may cause significant error
 Rotational temperatures (Kelvin)      0.05264     0.01312     0.01144
 Rotational constants (GHZ):           1.09689     0.27343     0.23840
 Zero-point vibrational energy     642650.3 (Joules/Mol)
                                  153.59710 (Kcal/Mol)
 Warning -- explicit consideration of  22 degrees of freedom as
           vibrations may cause significant error
 Vibrational temperatures:     22.94    45.05    66.47    83.29   116.92
          (Kelvin)            125.76   147.38   170.07   251.13   283.44
                              328.64   402.98   418.96   478.53   494.69
                              500.35   568.19   682.14   734.39   792.32
                              868.23   875.35   930.55   970.02   983.52
                             1001.00  1062.43  1096.16  1139.34  1175.60
                             1189.42  1195.00  1241.75  1282.99  1318.92
                             1357.77  1404.06  1442.66  1457.67  1483.94
                             1495.03  1558.09  1595.07  1640.41  1647.66
                             1671.19  1676.96  1729.25  1793.08  1804.14
                             1845.51  1863.65  1889.76  1893.38  1900.06
                             1957.20  1970.38  2009.78  2021.99  2042.47
                             2050.29  2108.79  2139.45  2147.45  2177.21
                             2225.34  2298.29  2382.45  2468.82  2630.78
                             4300.48  4351.52  4377.49  4396.48  4411.07
                             4462.29  4471.26  4661.03  4676.78  4919.29
                             5051.10  5168.61  5250.40  5264.15

 Zero-point correction=                           0.244773 (Hartree/Particle)
 Thermal correction to Energy=                    0.260639
 Thermal correction to Enthalpy=                  0.261583
 Thermal correction to Gibbs Free Energy=         0.198589
 Sum of electronic and zero-point Energies=           -796.191925
 Sum of electronic and thermal Energies=              -796.176059
 Sum of electronic and thermal Enthalpies=            -796.175115
 Sum of electronic and thermal Free Energies=         -796.238109

                     E (Thermal)             CV                S
                      KCal/Mol        Cal/Mol-Kelvin    Cal/Mol-Kelvin
 Total                  163.553             57.834            132.583
 Electronic               0.000              0.000              0.000
 Translational            0.889              2.981             42.150
 Rotational               0.889              2.981             32.775
 Vibrational            161.776             51.872             57.659
 Vibration     1          0.593              1.986              7.084
 Vibration     2          0.594              1.983              5.745
 Vibration     3          0.595              1.979              4.974
 Vibration     4          0.596              1.974              4.528
 Vibration     5          0.600              1.962              3.860
 Vibration     6          0.601              1.958              3.717
 Vibration     7          0.605              1.947              3.407
 Vibration     8          0.608              1.934              3.129
 Vibration     9          0.627              1.874              2.386
 Vibration    10          0.636              1.844              2.161
 Vibration    11          0.651              1.798              1.891
 Vibration    12          0.680              1.710              1.533
 Vibration    13          0.687              1.690              1.467
 Vibration    14          0.715              1.610              1.247
 Vibration    15          0.723              1.588              1.194
 Vibration    16          0.725              1.580              1.176
 Vibration    17          0.762              1.481              0.982
 Vibration    18          0.831              1.307              0.726
 Vibration    19          0.866              1.227              0.633
 Vibration    20          0.906              1.138              0.543
 Vibration    21          0.962              1.024              0.444
 Vibration    22          0.967              1.014              0.435

 Optimization completed.
    -- Stationary point found.
 Normal termination of Gaussian 09 at Sat Jul 24 22:49:42 2021.
