 Gaussian 09, Revision D.01,
 Gaussian 09:  ES64L-G09RevD.01 24-Apr-2013

 ----------------------------------------------------------------------
 # B3LYP/6-311++G(2df,2pd) EmpiricalDispersion=GD3BJ guess=read geom=ch
 eckpoint opt=readfc freq=noraman nosymm integral(ultrafinegrid)
 ----------------------------------------------------------------------

 ------------------------------------------------------------
 Candidate Structure: Conf:338 OPT and FREQ calc in gas phase
 ------------------------------------------------------------
 Structure from the checkpoint file:  "conf-338.chk"
 Charge =  0 Multiplicity = 1

 SCF Done:  E(RB3LYP) =  -796.445205509     A.U. after    2 cycles
 Optimization completed.
    -- Stationary point found.
 Normal termination of Gaussian 09 at Thu Jul 29 14:38:29 2021.

 ----------------------------------------------------------------------
 #N Geom=AllCheck Guess=TCheck SCRF=Check GenChk RB3LYP/6-311++G(2df,2p
 d) Freq
 ----------------------------------------------------------------------

 Structure from the checkpoint file:  "conf-338.chk"
 ------------------------------------------------------------
 Candidate Structure: Conf:338 OPT and FREQ calc in gas phase
 ------------------------------------------------------------
 Charge =  0 Multiplicity = 1

                          Input orientation:
 ---------------------------------------------------------------------
 Center     Atomic      Atomic             Coordinates (Angstroms)
 Number     Number       Type             X           Y           Z
 ---------------------------------------------------------------------
      1          8           0        0.575309    0.523773    1.735558
      2          6           0        1.291681    0.052719    0.851542
      3          7           0        0.801116   -0.584007   -0.227542
      4          6           0       -0.617618   -0.771396   -0.421089
      5          6           0       -0.815029   -1.846724   -1.464430
      6          8           0       -2.097518   -2.250825   -1.508918
      7          8           0        0.041791   -2.279433   -2.191213
      8          6           0       -1.371194    0.542092   -0.847328
      9          6           0       -2.435857    0.960304    0.099183
     10          6           0       -3.782250    1.174893   -0.048498
     11          7           0       -4.343810    1.562870    1.145772
     12          6           0       -3.351480    1.577561    2.007523
     13          7           0       -2.174711    1.224323    1.425177
     14          6           0        2.806313    0.151754    0.949493
     15          6           0        3.565803    0.340251   -0.364160
     16          7           0        3.457511   -0.848081   -1.217966
     17          1           0        1.459478   -0.964634   -0.907262
     18          1           0       -1.062369   -1.122529    0.509611
     19          1           0       -2.174707   -2.907402   -2.215988
     20          1           0       -1.817584    0.418952   -1.832447
     21          1           0       -0.608047    1.316097   -0.941806
     22          1           0       -4.370924    1.071352   -0.944480
     23          1           0       -3.427060    1.832586    3.051059
     24          1           0       -1.256781    1.109079    1.844375
     25          1           0        3.013575    0.981592    1.622166
     26          1           0        3.163494   -0.752277    1.452858
     27          1           0        3.137734    1.181273   -0.912213
     28          1           0        4.601292    0.608742   -0.128556
     29          1           0        3.975617   -1.627553   -0.831080
     30          1           0        3.816159   -0.675309   -2.147560
 ---------------------------------------------------------------------

 SCF Done:  E(RB3LYP) =  -796.445205509     A.U. after    1 cycles

 Alpha  occ. eigenvalues --  -19.19393 -19.13845 -19.10478 -14.34612 -14.34468
 Alpha  occ. eigenvalues --  -14.32611 -14.27771 -10.32712 -10.28662 -10.24282
 Alpha  occ. eigenvalues --  -10.22377 -10.20773 -10.19748 -10.19512 -10.19178
 Alpha  occ. eigenvalues --  -10.16838  -1.13677  -1.05632  -1.04754  -1.00188
 Alpha  occ. eigenvalues --   -0.94672  -0.91577  -0.85819  -0.81284  -0.77767
 Alpha  occ. eigenvalues --   -0.74376  -0.68327  -0.66405  -0.63243  -0.60056
 Alpha  occ. eigenvalues --   -0.59553  -0.57833  -0.54729  -0.53977  -0.52761
 Alpha  occ. eigenvalues --   -0.51372  -0.49746  -0.48510  -0.48220  -0.47754
 Alpha  occ. eigenvalues --   -0.46509  -0.44599  -0.43291  -0.43147  -0.42299
 Alpha  occ. eigenvalues --   -0.41553  -0.40138  -0.39896  -0.39537  -0.39219
 Alpha  occ. eigenvalues --   -0.38612  -0.36686  -0.35220  -0.31044  -0.28532
 Alpha  occ. eigenvalues --   -0.28277  -0.27422  -0.27010  -0.25815  -0.21879
 Alpha virt. eigenvalues --   -0.02769  -0.02459  -0.01566  -0.00608  -0.00094
 Alpha virt. eigenvalues --    0.00586   0.00935   0.01756   0.01983   0.02671
 Alpha virt. eigenvalues --    0.03124   0.03635   0.03955   0.04514   0.04811

 Mulliken charges:
               1
     1  O   -0.452701
     2  C    0.059301
     3  N    0.050500
     4  C   -0.091781
     5  C    0.246637
     6  O   -0.187200
     7  O   -0.396204
     8  C   -0.124683
     9  C    0.412584
    10  C   -0.371305
    11  N   -0.296274
    12  C    0.105659
    13  N   -0.141593
    14  C   -0.056309
    15  C   -0.158482
    16  N   -0.183630
    17  H    0.257611
    18  H    0.099899
    19  H    0.239519
    20  H    0.069255
    21  H    0.052084
    22  H    0.057174
    23  H    0.097940
    24  H    0.289422
    25  H    0.039354
    26  H    0.054646
    27  H    0.053935
    28  H    0.058642
    29  H    0.101456
    30  H    0.114543
 Sum of Mulliken charges =   0.00000

 Dipole moment (field-independent basis, Debye):
    X=              6.7460    Y=             -2.0870    Z=             -2.4214  Tot=              7.4651
 Quadrupole moment (field-independent basis, Debye-Ang):
   XX=           -101.7811   YY=            -95.7457   ZZ=            -93.1435
   XY=             10.4777   XZ=              6.7368   YZ=             -1.7229

  Exact polarizability: 180.431 -11.494 121.619  -8.610  24.298 144.626
 Approx polarizability: 237.908 -12.419 178.764  -9.349  28.225 226.352

                      1                      2                      3
                      A                      A                      A
 Frequencies --     19.2787                45.4022                53.2189
 Red. masses --      4.6977                 6.2712                 8.3533
 Frc consts  --      0.0010                 0.0076                 0.0139
 IR Inten    --      0.4787                 1.9727                 2.6922

                      4                      5                      6
                      A                      A                      A
 Frequencies --     69.5768                76.7605                97.6601
 Red. masses --      3.4441                 4.6376                 4.4385
 Frc consts  --      0.0098                 0.0161                 0.0249
 IR Inten    --      0.3395                 0.4596                 6.5821

                      7                      8                      9
                      A                      A                      A
 Frequencies --    109.6955               122.5265               178.4823
 Red. masses --      6.3683                 6.0399                 2.6644
 Frc consts  --      0.0451                 0.0534                 0.0500
 IR Inten    --      5.7937                 4.2363                 6.7252

                     10                     11                     12
                      A                      A                      A
 Frequencies --    195.4524               236.4178               285.1327
 Red. masses --      5.4655                 3.5131                 3.7528
 Frc consts  --      0.1230                 0.1157                 0.1798
 IR Inten    --      2.4164                 5.2234                 5.1827

                     13                     14                     15
                      A                      A                      A
 Frequencies --    292.1208               306.4768               331.6630
 Red. masses --      1.2317                 3.7657                 4.1534
 Frc consts  --      0.0619                 0.2084                 0.2692
 IR Inten    --     10.6921                 3.0737                 0.3154

                     16                     17                     18
                      A                      A                      A
 Frequencies --    353.7166               415.4595               463.4021
 Red. masses --      4.8069                 3.5171                 2.5706
 Frc consts  --      0.3543                 0.3577                 0.3252
 IR Inten    --      3.6366                 7.3615                22.9437

                     19                     20                     21
                      A                      A                      A
 Frequencies --    518.0077               586.5960               613.7009
 Red. masses --      3.2544                 1.3414                 3.5741
 Frc consts  --      0.5145                 0.2720                 0.7931
 IR Inten    --     38.5185                88.4902                 5.2450

                     22                     23                     24
                      A                      A                      A
 Frequencies --    636.7872               653.5515               678.5721
 Red. masses --      4.1199                 3.5599                 3.3522
 Frc consts  --      0.9843                 0.8959                 0.9094
 IR Inten    --     26.3487                 1.8925                48.9280

                     25                     26                     27
                      A                      A                      A
 Frequencies --    698.8079               723.4114               774.7608
 Red. masses --      3.4197                 3.4269                 3.5926
 Frc consts  --      0.9839                 1.0566                 1.2706
 IR Inten    --     17.7203                10.4901                 1.8824

                     28                     29                     30
                      A                      A                      A
 Frequencies --    787.3036               798.1387               827.2487
 Red. masses --      1.1027                 1.2243                 1.4402
 Frc consts  --      0.4027                 0.4595                 0.5807
 IR Inten    --     43.9036                40.5197                22.9068

                     31                     32                     33
                      A                      A                      A
 Frequencies --    839.1403               843.2380               861.2934
 Red. masses --      1.2740                 1.5910                 2.3809
 Frc consts  --      0.5286                 0.6665                 1.0406
 IR Inten    --     85.7291                22.3275                23.1283

                     34                     35                     36
                      A                      A                      A
 Frequencies --    900.3958               912.5698               947.2799
 Red. masses --      2.3528                 2.0702                 5.7342
 Frc consts  --      1.1238                 1.0158                 3.0317
 IR Inten    --     17.1844                 7.2831                18.1525

                     37                     38                     39
                      A                      A                      A
 Frequencies --    965.9629               983.0767              1008.6474
 Red. masses --      3.3609                 2.8892                 1.7305
 Frc consts  --      1.8477                 1.6451                 1.0373
 IR Inten    --      8.2668                 4.3280                 8.1715

                     40                     41                     42
                      A                      A                      A
 Frequencies --   1027.8763              1030.1343              1085.4321
 Red. masses --      3.5461                 2.8035                 2.6874
 Frc consts  --      2.2074                 1.7528                 1.8655
 IR Inten    --      0.6632                37.0316                 8.3176

                     43                     44                     45
                      A                      A                      A
 Frequencies --   1129.5732              1130.8682              1144.0467
 Red. masses --      2.7070                 1.9478                 2.1116
 Frc consts  --      2.0350                 1.4676                 1.6283
 IR Inten    --     70.2876                55.9757                 0.8794

                     46                     47                     48
                      A                      A                      A
 Frequencies --   1156.9318              1172.5884              1210.5103
 Red. masses --      1.4234                 2.4922                 1.3107
 Frc consts  --      1.1225                 2.0189                 1.1316
 IR Inten    --     35.1999               137.1974                 7.7133

                     49                     50                     51
                      A                      A                      A
 Frequencies --   1260.8056              1263.0131              1279.2684
 Red. masses --      1.9425                 1.5850                 1.4062
 Frc consts  --      1.8193                 1.4897                 1.3559
 IR Inten    --      5.0302                25.3182                 8.8639

                     52                     53                     54
                      A                      A                      A
 Frequencies --   1289.8730              1307.2071              1311.1628
 Red. masses --      1.2898                 1.4388                 1.3391
 Frc consts  --      1.2643                 1.4485                 1.3564
 IR Inten    --      9.2371                 1.5354                 2.6710

                     55                     56                     57
                      A                      A                      A
 Frequencies --   1329.0226              1356.6105              1372.2382
 Red. masses --      1.4622                 1.4287                 1.4194
 Frc consts  --      1.5217                 1.5492                 1.5748
 IR Inten    --     11.7956                25.0795                 5.8292

                     58                     59                     60
                      A                      A                      A
 Frequencies --   1387.1757              1410.8160              1423.0214
 Red. masses --      4.1873                 2.0036                 1.5272
 Frc consts  --      4.7473                 2.3496                 1.8221
 IR Inten    --     13.6744                54.5287                30.2077

                     61                     62                     63
                      A                      A                      A
 Frequencies --   1439.6257              1466.5706              1479.8099
 Red. masses --      2.3534                 1.0827                 1.1493
 Frc consts  --      2.8738                 1.3721                 1.4829
 IR Inten    --     84.4886                14.4133                14.7569

                     64                     65                     66
                      A                      A                      A
 Frequencies --   1499.5538              1514.9814              1566.3871
 Red. masses --      3.1198                 1.0908                 2.1734
 Frc consts  --      4.1334                 1.4751                 3.1419
 IR Inten    --     25.9084                 7.5379               324.7047

                     67                     68                     69
                      A                      A                      A
 Frequencies --   1610.5500              1656.6720              1697.4714
 Red. masses --      4.2371                 1.0903                 7.9915
 Frc consts  --      6.4755                 1.7631                13.5670
 IR Inten    --     24.9460                34.3020               346.8717

                     70                     71                     72
                      A                      A                      A
 Frequencies --   1806.8120              2990.6637              3025.2738
 Red. masses --      9.7905                 1.0714                 1.0709
 Frc consts  --     18.8312                 5.6460                 5.7746
 IR Inten    --    309.3290                72.6791                 5.2268

                     73                     74                     75
                      A                      A                      A
 Frequencies --   3044.9720              3062.9748              3074.6019
 Red. masses --      1.0657                 1.0914                 1.0838
 Frc consts  --      5.8215                 6.0327                 6.0364
 IR Inten    --     19.6954                24.7755                11.3414

                     76                     77                     78
                      A                      A                      A
 Frequencies --   3099.3391              3108.8520              3235.5549
 Red. masses --      1.0972                 1.0919                 1.0959
 Frc consts  --      6.2100                 6.2176                 6.7594
 IR Inten    --      9.1349                 7.3487                 7.7573

                     79                     80                     81
                      A                      A                      A
 Frequencies --   3245.5384              3392.8696              3484.1365
 Red. masses --      1.0980                 1.0816                 1.0852
 Frc consts  --      6.8145                 7.3357                 7.7617
 IR Inten    --      0.9617               391.5569               428.3026

                     82                     83                     84
                      A                      A                      A
 Frequencies --   3509.5840              3590.5623              3757.9165
 Red. masses --      1.0499                 1.0934                 1.0643
 Frc consts  --      7.6194                 8.3050                 8.8556
 IR Inten    --      0.7450                 6.6797                89.0163

 - Thermochemistry -
 -------------------
 Temperature   298.150 Kelvin.  Pressure   1.00000 Atm.
 Atom     1 has atomic number  8 and mass  15.99491

 Molecular mass:   226.10659 amu.
 Principal axes and moments of inertia in atomic units:
                           1         2         3
     Eigenvalues --  2323.461175371.076297189.07757
           X            0.94510   0.32243   0.05309
           Y           -0.25967   0.64240   0.72104
           Z           -0.19838   0.69525  -0.69085
 This molecule is an asymmetric top.
 Rotational symmetry number  1.
 Warning -- assumption of classical behavior for rotation
           may cause significant error
 Rotational temperatures (Kelvin)      0.03728     0.01613     0.01205
 Rotational constants (GHZ):           0.77675     0.33601     0.25104
 Zero-point vibrational energy     643892.3 (Joules/Mol)
                                  153.89395 (Kcal/Mol)
 Warning -- explicit consideration of  21 degrees of freedom as
           vibrations may cause significant error
 Vibrational temperatures:     27.74    65.32    76.57   100.11   110.44
          (Kelvin)            140.51   157.83   176.29   256.80   281.21
                              340.15   410.24   420.30   440.95   477.19
                              508.92   597.75   666.73   745.30   843.98
                              882.98   916.19   940.31   976.31  1005.43
                             1040.83  1114.71  1132.75  1148.34  1190.22
                             1207.33  1213.23  1239.21  1295.47  1312.98
                             1362.92  1389.80  1414.43  1451.22  1478.88
                             1482.13  1561.69  1625.20  1627.07  1646.03
                             1664.56  1687.09  1741.65  1814.02  1817.19
                             1840.58  1855.84  1880.78  1886.47  1912.16
                             1951.86  1974.34  1995.83  2029.85  2047.41
                             2071.30  2110.07  2129.11  2157.52  2179.72
                             2253.68  2317.22  2383.58  2442.28  2599.60
                             4302.89  4352.69  4381.03  4406.93  4423.66
                             4459.25  4472.94  4655.24  4669.60  4881.58
                             5012.89  5049.50  5166.01  5406.80

 Zero-point correction=                           0.245246 (Hartree/Particle)
 Thermal correction to Energy=                    0.260909
 Thermal correction to Enthalpy=                  0.261853
 Thermal correction to Gibbs Free Energy=         0.199941
 Sum of electronic and zero-point Energies=           -796.199960
 Sum of electronic and thermal Energies=              -796.184297
 Sum of electronic and thermal Enthalpies=            -796.183353
 Sum of electronic and thermal Free Energies=         -796.245265

                     E (Thermal)             CV                S
                      KCal/Mol        Cal/Mol-Kelvin    Cal/Mol-Kelvin
 Total                  163.723             57.380            130.305
 Electronic               0.000              0.000              0.000
 Translational            0.889              2.981             42.150
 Rotational               0.889              2.981             32.861
 Vibrational            161.945             51.419             55.294
 Vibration     1          0.593              1.986              6.707
 Vibration     2          0.595              1.979              5.008
 Vibration     3          0.596              1.976              4.694
 Vibration     4          0.598              1.969              4.165
 Vibration     5          0.599              1.965              3.972
 Vibration     6          0.603              1.951              3.500
 Vibration     7          0.606              1.941              3.274
 Vibration     8          0.610              1.930              3.060
 Vibration     9          0.629              1.869              2.344
 Vibration    10          0.636              1.846              2.175
 Vibration    11          0.655              1.785              1.830
 Vibration    12          0.683              1.701              1.503
 Vibration    13          0.687              1.688              1.462
 Vibration    14          0.697              1.661              1.381
 Vibration    15          0.714              1.612              1.252
 Vibration    16          0.730              1.568              1.150
 Vibration    17          0.779              1.437              0.908
 Vibration    18          0.821              1.331              0.756
 Vibration    19          0.873              1.210              0.615
 Vibration    20          0.944              1.060              0.473
 Vibration    21          0.973              1.003              0.427

 Optimization completed.
    -- Stationary point found.
 Normal termination of Gaussian 09 at Thu Jul 29 20:45:43 2021.
