 Gaussian 09, Revision D.01,
 Gaussian 09:  ES64L-G09RevD.01 24-Apr-2013

 ----------------------------------------------------------------------
 # B3LYP/6-311++G(2df,2pd) EmpiricalDispersion=GD3BJ opt=calcfc freq=no
 raman nosymm integral(ultrafinegrid)
 ----------------------------------------------------------------------

 ------------------------------------------------------------
 Candidate Structure: Conf:340 OPT and FREQ calc in gas phase
 ------------------------------------------------------------
 Symbolic Z-matrix:
 Charge =  0 Multiplicity = 1

 SCF Done:  E(RB3LYP) =  -796.435565243     A.U. after   14 cycles
 SCF Done:  E(RB3LYP) =  -796.437516863     A.U. after   14 cycles
 SCF Done:  E(RB3LYP) =  -796.437422601     A.U. after   12 cycles
 SCF Done:  E(RB3LYP) =  -796.437677809     A.U. after   12 cycles
 SCF Done:  E(RB3LYP) =  -796.437706571     A.U. after   11 cycles
 SCF Done:  E(RB3LYP) =  -796.437718456     A.U. after   10 cycles
 SCF Done:  E(RB3LYP) =  -796.437719995     A.U. after   10 cycles
 SCF Done:  E(RB3LYP) =  -796.437720085     A.U. after    8 cycles
 Optimization completed.
    -- Stationary point found.
 Normal termination of Gaussian 09 at Sat Jul 24 11:12:33 2021.

 ----------------------------------------------------------------------
 #N Geom=AllCheck Guess=TCheck SCRF=Check GenChk RB3LYP/6-311++G(2df,2p
 d) Freq
 ----------------------------------------------------------------------

 Structure from the checkpoint file:  "conf-340.chk"
 ------------------------------------------------------------
 Candidate Structure: Conf:340 OPT and FREQ calc in gas phase
 ------------------------------------------------------------
 Charge =  0 Multiplicity = 1

                          Input orientation:
 ---------------------------------------------------------------------
 Center     Atomic      Atomic             Coordinates (Angstroms)
 Number     Number       Type             X           Y           Z
 ---------------------------------------------------------------------
      1          8           0        0.589015   -0.953823   -0.829069
      2          6           0        1.372771   -0.176731   -0.285997
      3          7           0        0.939196    0.974239    0.279530
      4          6           0       -0.447013    1.344946    0.162820
      5          6           0       -0.611289    2.819119    0.478493
      6          8           0       -1.858116    3.294572    0.316079
      7          8           0        0.282187    3.523757    0.860119
      8          6           0       -1.392521    0.472128    1.054248
      9          6           0       -2.587223    0.034411    0.291517
     10          6           0       -3.922184    0.350953    0.338755
     11          7           0       -4.604951   -0.292603   -0.670113
     12          6           0       -3.699199   -0.983211   -1.321495
     13          7           0       -2.459397   -0.819197   -0.782525
     14          6           0        2.856914   -0.450308   -0.215187
     15          6           0        3.148554   -1.878117    0.241288
     16          7           0        4.585393   -2.137347    0.182576
     17          1           0        1.574000    1.663492    0.652480
     18          1           0       -0.748175    1.194447   -0.875912
     19          1           0       -2.470364    2.600814    0.022862
     20          1           0       -0.816225   -0.389263    1.386549
     21          1           0       -1.696684    1.019231    1.945322
     22          1           0       -4.428203    0.978312    1.054003
     23          1           0       -3.880746   -1.612198   -2.176508
     24          1           0       -1.572420   -1.197692   -1.092063
     25          1           0        3.270699   -0.313524   -1.216339
     26          1           0        3.350720    0.269858    0.440420
     27          1           0        2.645035   -2.565266   -0.436261
     28          1           0        2.710575   -2.033443    1.236666
     29          1           0        4.784797   -3.117830    0.330293
     30          1           0        5.084730   -1.619615    0.895309
 ---------------------------------------------------------------------

 SCF Done:  E(RB3LYP) =  -796.437720085     A.U. after    2 cycles

 Alpha  occ. eigenvalues --  -19.19388 -19.13841 -19.11721 -14.37267 -14.36720
 Alpha  occ. eigenvalues --  -14.30948 -14.30208 -10.33044 -10.29859 -10.25522
 Alpha  occ. eigenvalues --  -10.23333 -10.21914 -10.21350 -10.21136 -10.19589
 Alpha  occ. eigenvalues --  -10.19572  -1.13357  -1.06993  -1.05396  -1.02814
 Alpha  occ. eigenvalues --   -0.96016  -0.90238  -0.88399  -0.82754  -0.78442
 Alpha  occ. eigenvalues --   -0.75239  -0.69756  -0.65736  -0.63705  -0.62587
 Alpha  occ. eigenvalues --   -0.61668  -0.60491  -0.57515  -0.56066  -0.52466
 Alpha  occ. eigenvalues --   -0.51431  -0.50570  -0.49482  -0.48347  -0.47187
 Alpha  occ. eigenvalues --   -0.47082  -0.45371  -0.44675  -0.43850  -0.43378
 Alpha  occ. eigenvalues --   -0.42431  -0.41985  -0.41391  -0.41015  -0.40479
 Alpha  occ. eigenvalues --   -0.37463  -0.36907  -0.35248  -0.31354  -0.29869
 Alpha  occ. eigenvalues --   -0.29521  -0.29054  -0.28185  -0.26163  -0.24643
 Alpha virt. eigenvalues --   -0.02976  -0.02276  -0.01450  -0.01202  -0.00452
 Alpha virt. eigenvalues --   -0.00148   0.00344   0.00595   0.01480   0.01866
 Alpha virt. eigenvalues --    0.02656   0.02895   0.03727   0.03934   0.04107

 Mulliken charges:
               1
     1  O   -0.429158
     2  C   -0.097298
     3  N    0.063565
     4  C    0.092000
     5  C    0.028506
     6  O   -0.191791
     7  O   -0.349134
     8  C    0.120393
     9  C    0.221844
    10  C   -0.440799
    11  N   -0.281242
    12  C    0.110338
    13  N   -0.085976
    14  C    0.062772
    15  C   -0.108912
    16  N   -0.166573
    17  H    0.142618
    18  H    0.092463
    19  H    0.223113
    20  H    0.055712
    21  H    0.116913
    22  H    0.085464
    23  H    0.110194
    24  H    0.227083
    25  H    0.082163
    26  H    0.016146
    27  H    0.059341
    28  H    0.037241
    29  H    0.107659
    30  H    0.095356
 Sum of Mulliken charges =   0.00000

 Dipole moment (field-independent basis, Debye):
    X=              3.4111    Y=             -2.4229    Z=              1.2604  Tot=              4.3697
 Quadrupole moment (field-independent basis, Debye-Ang):
   XX=           -110.3638   YY=           -107.3527   ZZ=            -92.4444
   XY=             -3.1354   XZ=              4.6936   YZ=             -4.0764

  Exact polarizability: 184.297  -4.991 143.777   9.329  17.864 117.954
 Approx polarizability: 242.172   3.113 209.805  13.409  32.363 191.509

                      1                      2                      3
                      A                      A                      A
 Frequencies --     10.8775                34.6855                56.0933
 Red. masses --      3.3437                 5.9901                 3.2081
 Frc consts  --      0.0002                 0.0042                 0.0059
 IR Inten    --      0.7657                 2.6944                 3.9211

                      4                      5                      6
                      A                      A                      A
 Frequencies --     74.9252                82.2166                87.2173
 Red. masses --      3.8335                 6.5142                 4.1303
 Frc consts  --      0.0127                 0.0259                 0.0185
 IR Inten    --      3.5117                 1.5707                 3.8541

                      7                      8                      9
                      A                      A                      A
 Frequencies --    100.9174               114.0806               169.4329
 Red. masses --      5.9270                 5.8679                 4.5618
 Frc consts  --      0.0356                 0.0450                 0.0772
 IR Inten    --      6.0274                 7.9718                10.1568

                     10                     11                     12
                      A                      A                      A
 Frequencies --    192.2941               206.2749               238.9643
 Red. masses --      4.9900                 3.0878                 1.3306
 Frc consts  --      0.1087                 0.0774                 0.0448
 IR Inten    --      8.2929                 4.7547                41.6631

                     13                     14                     15
                      A                      A                      A
 Frequencies --    277.6892               317.5434               340.8998
 Red. masses --      5.1819                 5.5563                 2.3662
 Frc consts  --      0.2354                 0.3301                 0.1620
 IR Inten    --      3.3016                 1.4683                 5.7325

                     16                     17                     18
                      A                      A                      A
 Frequencies --    357.7943               396.4077               414.5976
 Red. masses --      5.8975                 3.9342                 3.9989
 Frc consts  --      0.4448                 0.3642                 0.4050
 IR Inten    --      9.0444                 5.1794                10.1028

                     19                     20                     21
                      A                      A                      A
 Frequencies --    533.1196               549.2250               595.4612
 Red. masses --      1.5093                 2.1903                 1.3026
 Frc consts  --      0.2527                 0.3893                 0.2721
 IR Inten    --     51.6387                15.5110                78.4275

                     22                     23                     24
                      A                      A                      A
 Frequencies --    634.0756               651.2204               665.4014
 Red. masses --      3.4099                 3.6510                 2.8595
 Frc consts  --      0.8077                 0.9123                 0.7459
 IR Inten    --     35.8308                 8.2021                10.4873

                     25                     26                     27
                      A                      A                      A
 Frequencies --    684.9247               721.1341               743.6256
 Red. masses --      3.7619                 3.6901                 1.1851
 Frc consts  --      1.0398                 1.1306                 0.3861
 IR Inten    --     18.1213                 2.9867                48.3456

                     28                     29                     30
                      A                      A                      A
 Frequencies --    759.7174               775.7797               799.7677
 Red. masses --      3.1665                 3.7883                 1.4328
 Frc consts  --      1.0768                 1.3433                 0.5399
 IR Inten    --     23.0755                 4.8402                36.1078

                     31                     32                     33
                      A                      A                      A
 Frequencies --    827.9137               840.4673               850.2069
 Red. masses --      1.3438                 1.4212                 1.4870
 Frc consts  --      0.5427                 0.5915                 0.6333
 IR Inten    --     82.2719                25.4616                10.4293

                     34                     35                     36
                      A                      A                      A
 Frequencies --    868.2608               945.3022               952.1760
 Red. masses --      2.4606                 5.3033                 2.8720
 Frc consts  --      1.0929                 2.7922                 1.5342
 IR Inten    --     13.9864                 9.7296                11.6688

                     37                     38                     39
                      A                      A                      A
 Frequencies --    980.2047               987.8347              1023.2522
 Red. masses --      2.1477                 5.8617                 3.5405
 Frc consts  --      1.2158                 3.3701                 2.1841
 IR Inten    --      3.6140                 2.4869                13.5828

                     40                     41                     42
                      A                      A                      A
 Frequencies --   1035.0891              1064.1056              1092.7481
 Red. masses --      3.1460                 2.7338                 2.3024
 Frc consts  --      1.9860                 1.8239                 1.6198
 IR Inten    --      3.3093                16.9002                28.8558

                     43                     44                     45
                      A                      A                      A
 Frequencies --   1116.9104              1132.9133              1139.6124
 Red. masses --      1.6672                 1.7777                 2.3186
 Frc consts  --      1.2254                 1.3443                 1.7742
 IR Inten    --     33.5261                11.6743                 5.7645

                     46                     47                     48
                      A                      A                      A
 Frequencies --   1166.3236              1194.1860              1203.2488
 Red. masses --      1.6642                 1.5730                 2.1727
 Frc consts  --      1.3338                 1.3216                 1.8533
 IR Inten    --     10.9159                35.8028                 2.9903

                     49                     50                     51
                      A                      A                      A
 Frequencies --   1233.4255              1256.2246              1261.5263
 Red. masses --      1.5063                 2.2498                 1.4000
 Frc consts  --      1.3502                 2.0918                 1.3127
 IR Inten    --     28.8310                26.3515                 3.3439

                     52                     53                     54
                      A                      A                      A
 Frequencies --   1281.7109              1302.1097              1333.6225
 Red. masses --      1.3613                 1.3473                 1.2871
 Frc consts  --      1.3176                 1.3459                 1.3487
 IR Inten    --      5.9952                75.7935                 4.8386

                     55                     56                     57
                      A                      A                      A
 Frequencies --   1337.2899              1348.1346              1368.8948
 Red. masses --      1.1714                 1.7253                 1.4319
 Frc consts  --      1.2343                 1.8475                 1.5809
 IR Inten    --     41.5477               173.4046                 7.6450

                     58                     59                     60
                      A                      A                      A
 Frequencies --   1385.3975              1414.0445              1423.3719
 Red. masses --      3.3159                 1.6988                 1.4783
 Frc consts  --      3.7497                 2.0013                 1.7646
 IR Inten    --      4.6283                42.6138                53.3517

                     61                     62                     63
                      A                      A                      A
 Frequencies --   1431.3601              1475.8484              1487.0166
 Red. masses --      2.4365                 1.1063                 1.1412
 Frc consts  --      2.9411                 1.4197                 1.4867
 IR Inten    --     77.0154                10.1904                13.0347

                     64                     65                     66
                      A                      A                      A
 Frequencies --   1501.5879              1519.6758              1522.4414
 Red. masses --      3.2391                 1.0932                 2.5504
 Frc consts  --      4.3030                 1.4874                 3.4829
 IR Inten    --     49.5128                 3.0703               282.0015

                     67                     68                     69
                      A                      A                      A
 Frequencies --   1609.2547              1662.1532              1695.9593
 Red. masses --      4.4075                 1.0942                 8.2828
 Frc consts  --      6.7250                 1.7811                14.0365
 IR Inten    --     13.3402                22.1464               215.4122

                     70                     71                     72
                      A                      A                      A
 Frequencies --   1832.9781              2955.9316              3038.0595
 Red. masses --      9.8929                 1.0739                 1.0598
 Frc consts  --     19.5834                 5.5285                 5.7632
 IR Inten    --    340.7295                64.6970                13.8568

                     73                     74                     75
                      A                      A                      A
 Frequencies --   3041.8651              3069.1819              3076.0384
 Red. masses --      1.0816                 1.0604                 1.0976
 Frc consts  --      5.8963                 5.8853                 6.1189
 IR Inten    --      9.1544                14.6408                 4.6087

                     76                     77                     78
                      A                      A                      A
 Frequencies --   3098.9774              3109.2069              3231.5198
 Red. masses --      1.0926                 1.1052                 1.0963
 Frc consts  --      6.1824                 6.2948                 6.7454
 IR Inten    --     16.4908                 6.5744                 4.1439

                     79                     80                     81
                      A                      A                      A
 Frequencies --   3248.5218              3508.7358              3548.8922
 Red. masses --      1.0982                 1.0497                 1.0835
 Frc consts  --      6.8280                 7.6142                 8.0399
 IR Inten    --      0.8833                 0.5886               220.6810

                     82                     83                     84
                      A                      A                      A
 Frequencies --   3587.6217              3602.6716              3679.5458
 Red. masses --      1.0931                 1.0782                 1.0671
 Frc consts  --      8.2892                 8.2448                 8.5125
 IR Inten    --      3.1799                80.3705               224.0716

 - Thermochemistry -
 -------------------
 Temperature   298.150 Kelvin.  Pressure   1.00000 Atm.
 Atom     1 has atomic number  8 and mass  15.99491

 Molecular mass:   226.10659 amu.
 Principal axes and moments of inertia in atomic units:
                           1         2         3
     Eigenvalues --  2460.220656018.080448066.64829
           X            0.96202   0.25206  -0.10484
           Y           -0.27084   0.92938  -0.25081
           Z            0.03421   0.26967   0.96234
 This molecule is an asymmetric top.
 Rotational symmetry number  1.
 Warning -- assumption of classical behavior for rotation
           may cause significant error
 Rotational temperatures (Kelvin)      0.03521     0.01439     0.01074
 Rotational constants (GHZ):           0.73357     0.29989     0.22373
 Zero-point vibrational energy     642920.5 (Joules/Mol)
                                  153.66169 (Kcal/Mol)
 Warning -- explicit consideration of  21 degrees of freedom as
           vibrations may cause significant error
 Vibrational temperatures:     15.65    49.90    80.71   107.80   118.29
          (Kelvin)            125.49   145.20   164.14   243.78   276.67
                              296.78   343.82   399.53   456.87   490.48
                              514.79   570.34   596.51   767.04   790.21
                              856.73   912.29   936.96   957.36   985.45
                             1037.55  1069.91  1093.06  1116.17  1150.69
                             1191.18  1209.24  1223.26  1249.23  1360.08
                             1369.97  1410.29  1421.27  1472.23  1489.26
                             1531.01  1572.22  1606.98  1630.01  1639.65
                             1678.08  1718.17  1731.20  1774.62  1807.42
                             1815.05  1844.09  1873.44  1918.78  1924.06
                             1939.66  1969.53  1993.28  2034.49  2047.91
                             2059.41  2123.41  2139.48  2160.45  2186.47
                             2190.45  2315.36  2391.46  2440.10  2637.24
                             4252.92  4371.08  4376.56  4415.86  4425.73
                             4458.73  4473.45  4649.43  4673.89  5048.28
                             5106.06  5161.78  5183.43  5294.04

 Zero-point correction=                           0.244875 (Hartree/Particle)
 Thermal correction to Energy=                    0.260853
 Thermal correction to Enthalpy=                  0.261797
 Thermal correction to Gibbs Free Energy=         0.198381
 Sum of electronic and zero-point Energies=           -796.192845
 Sum of electronic and thermal Energies=              -796.176867
 Sum of electronic and thermal Enthalpies=            -796.175923
 Sum of electronic and thermal Free Energies=         -796.239339

                     E (Thermal)             CV                S
                      KCal/Mol        Cal/Mol-Kelvin    Cal/Mol-Kelvin
 Total                  163.688             57.980            133.471
 Electronic               0.000              0.000              0.000
 Translational            0.889              2.981             42.150
 Rotational               0.889              2.981             33.146
 Vibrational            161.910             52.018             58.175
 Vibration     1          0.593              1.987              7.844
 Vibration     2          0.594              1.983              5.542
 Vibration     3          0.596              1.975              4.590
 Vibration     4          0.599              1.966              4.020
 Vibration     5          0.600              1.961              3.837
 Vibration     6          0.601              1.958              3.722
 Vibration     7          0.604              1.948              3.437
 Vibration     8          0.607              1.938              3.198
 Vibration     9          0.625              1.880              2.442
 Vibration    10          0.634              1.851              2.206
 Vibration    11          0.641              1.831              2.076
 Vibration    12          0.657              1.781              1.811
 Vibration    13          0.679              1.715              1.548
 Vibration    14          0.704              1.640              1.323
 Vibration    15          0.720              1.594              1.208
 Vibration    16          0.733              1.559              1.132
 Vibration    17          0.763              1.478              0.976
 Vibration    18          0.778              1.439              0.911
 Vibration    19          0.888              1.177              0.580
 Vibration    20          0.904              1.141              0.546
 Vibration    21          0.953              1.041              0.458

 Normal termination of Gaussian 09 at Sat Jul 24 17:26:11 2021.
