 Gaussian 09, Revision D.01,
 Gaussian 09:  ES64L-G09RevD.01 24-Apr-2013

 ----------------------------------------------------------------------
 # B3LYP/6-311++G(2df,2pd) EmpiricalDispersion=GD3BJ opt=calcfc freq=no
 raman nosymm integral(ultrafinegrid)
 ----------------------------------------------------------------------

 ------------------------------------------------------------
 Candidate Structure: Conf:683 OPT and FREQ calc in gas phase
 ------------------------------------------------------------
 Symbolic Z-matrix:
 Charge =  0 Multiplicity = 1

 SCF Done:  E(RB3LYP) =  -796.443516715     A.U. after   16 cycles
 SCF Done:  E(RB3LYP) =  -796.445220072     A.U. after   13 cycles
 SCF Done:  E(RB3LYP) =  -796.445722517     A.U. after   13 cycles
 SCF Done:  E(RB3LYP) =  -796.445813175     A.U. after   13 cycles
 SCF Done:  E(RB3LYP) =  -796.445642216     A.U. after   12 cycles
 SCF Done:  E(RB3LYP) =  -796.445902211     A.U. after    9 cycles
 SCF Done:  E(RB3LYP) =  -796.445913226     A.U. after   11 cycles
 SCF Done:  E(RB3LYP) =  -796.445913694     A.U. after    9 cycles
 SCF Done:  E(RB3LYP) =  -796.445913826     A.U. after    9 cycles
 Optimization completed.
    -- Stationary point found.
 Normal termination of Gaussian 09 at Sat Jul 24 12:30:08 2021.

 ----------------------------------------------------------------------
 #N Geom=AllCheck Guess=TCheck SCRF=Check GenChk RB3LYP/6-311++G(2df,2p
 d) Freq
 ----------------------------------------------------------------------

 Structure from the checkpoint file:  "conf-683.chk"
 ------------------------------------------------------------
 Candidate Structure: Conf:683 OPT and FREQ calc in gas phase
 ------------------------------------------------------------
 Charge =  0 Multiplicity = 1

                          Input orientation:
 ---------------------------------------------------------------------
 Center     Atomic      Atomic             Coordinates (Angstroms)
 Number     Number       Type             X           Y           Z
 ---------------------------------------------------------------------
      1          8           0       -0.641858    0.115616   -2.158209
      2          6           0        0.313074    0.365087   -1.422109
      3          7           0        0.176602    0.666549   -0.114895
      4          6           0       -1.111384    0.844261    0.503322
      5          6           0       -1.131494    2.162328    1.256593
      6          8           0       -2.385300    2.500414    1.620582
      7          8           0       -0.165735    2.824731    1.529022
      8          6           0       -1.510910   -0.300846    1.466013
      9          6           0       -1.408861   -1.666940    0.874935
     10          6           0       -1.174820   -2.881254    1.468248
     11          7           0       -1.237116   -3.896728    0.542230
     12          6           0       -1.497475   -3.306409   -0.600623
     13          7           0       -1.629611   -1.958201   -0.454782
     14          6           0        1.738084    0.315976   -1.947460
     15          6           0        2.724858    1.310441   -1.334018
     16          7           0        2.983466    1.006823    0.080239
     17          1           0        1.029036    0.864875    0.408039
     18          1           0       -1.850685    0.904312   -0.294885
     19          1           0       -2.331193    3.327202    2.121494
     20          1           0       -0.875600   -0.263919    2.352837
     21          1           0       -2.530015   -0.097454    1.801411
     22          1           0       -0.975534   -3.076816    2.508634
     23          1           0       -1.594615   -3.792373   -1.556653
     24          1           0       -1.647053   -1.279095   -1.209920
     25          1           0        2.103242   -0.705839   -1.803308
     26          1           0        1.671411    0.470183   -3.022679
     27          1           0        2.302687    2.315183   -1.381762
     28          1           0        3.634745    1.316126   -1.943176
     29          1           0        3.530685    0.160196    0.178542
     30          1           0        3.491467    1.755561    0.532122
 ---------------------------------------------------------------------

 SCF Done:  E(RB3LYP) =  -796.445913826     A.U. after    1 cycles

 Alpha  occ. eigenvalues --  -19.19606 -19.13897 -19.10238 -14.35100 -14.34495
 Alpha  occ. eigenvalues --  -14.32537 -14.28224 -10.32728 -10.28494 -10.24388
 Alpha  occ. eigenvalues --  -10.22114 -10.21067 -10.20008 -10.19845 -10.19286
 Alpha  occ. eigenvalues --  -10.17123  -1.13748  -1.05521  -1.04797  -1.00604
 Alpha  occ. eigenvalues --   -0.94720  -0.91424  -0.86234  -0.81641  -0.77703
 Alpha  occ. eigenvalues --   -0.74722  -0.68310  -0.66337  -0.63152  -0.60609
 Alpha  occ. eigenvalues --   -0.59582  -0.58252  -0.55360  -0.53194  -0.52366
 Alpha  occ. eigenvalues --   -0.51701  -0.49965  -0.49147  -0.47800  -0.47577
 Alpha  occ. eigenvalues --   -0.46118  -0.45519  -0.43879  -0.42926  -0.41916
 Alpha  occ. eigenvalues --   -0.41479  -0.40914  -0.40370  -0.39987  -0.38941
 Alpha  occ. eigenvalues --   -0.38458  -0.36463  -0.35341  -0.31089  -0.28535
 Alpha  occ. eigenvalues --   -0.28091  -0.27612  -0.27284  -0.26193  -0.22171
 Alpha virt. eigenvalues --   -0.02608  -0.02390  -0.01729  -0.00292   0.00090
 Alpha virt. eigenvalues --    0.00797   0.01128   0.01606   0.01948   0.02404
 Alpha virt. eigenvalues --    0.02911   0.03587   0.04102   0.04533   0.05070

 Mulliken charges:
               1
     1  O   -0.424720
     2  C   -0.066683
     3  N    0.107214
     4  C   -0.170960
     5  C    0.246240
     6  O   -0.187332
     7  O   -0.370237
     8  C   -0.798269
     9  C    0.663188
    10  C   -0.155991
    11  N   -0.285588
    12  C    0.120516
    13  N    0.025219
    14  C    0.086484
    15  C   -0.161946
    16  N   -0.198392
    17  H    0.283782
    18  H    0.129833
    19  H    0.232860
    20  H    0.072131
    21  H    0.061867
    22  H    0.072870
    23  H    0.103532
    24  H    0.175129
    25  H    0.039390
    26  H    0.053704
    27  H    0.064362
    28  H    0.059202
    29  H    0.102958
    30  H    0.119638
 Sum of Mulliken charges =   0.00000

 Dipole moment (field-independent basis, Debye):
    X=              2.9694    Y=              4.6149    Z=              0.4438  Tot=              5.5056
 Quadrupole moment (field-independent basis, Debye-Ang):
   XX=            -82.3834   YY=           -112.2387   ZZ=            -93.4195
   XY=             -6.5834   XZ=             -6.2099   YZ=              6.3619

  Exact polarizability: 136.001   6.921 158.790  -6.748  10.335 144.183
 Approx polarizability: 195.458   2.129 219.958   9.344  12.390 225.885

                      1                      2                      3
                      A                      A                      A
 Frequencies --     18.7673                43.7984                50.5092
 Red. masses --      4.9511                 7.5115                 4.5301
 Frc consts  --      0.0010                 0.0085                 0.0068
 IR Inten    --      4.6584                 2.4616                 1.5992

                      4                      5                      6
                      A                      A                      A
 Frequencies --     64.8094                85.7667               101.8151
 Red. masses --      3.8886                 4.1447                 5.1885
 Frc consts  --      0.0096                 0.0180                 0.0317
 IR Inten    --      0.8507                 2.4647                 1.4104

                      7                      8                      9
                      A                      A                      A
 Frequencies --    115.7386               142.4366               179.4068
 Red. masses --      4.0073                 6.2878                 6.6731
 Frc consts  --      0.0316                 0.0752                 0.1265
 IR Inten    --      7.4858                14.8254                 1.5630

                     10                     11                     12
                      A                      A                      A
 Frequencies --    201.0437               225.9667               268.3174
 Red. masses --      2.2135                 4.9282                 3.9155
 Frc consts  --      0.0527                 0.1483                 0.1661
 IR Inten    --      2.9490                 9.5422                 0.7251

                     13                     14                     15
                      A                      A                      A
 Frequencies --    295.2769               309.1412               345.8609
 Red. masses --      1.3102                 4.9691                 3.9938
 Frc consts  --      0.0673                 0.2798                 0.2815
 IR Inten    --     12.3099                 3.2796                 1.0286

                     16                     17                     18
                      A                      A                      A
 Frequencies --    353.4447               432.9400               486.7346
 Red. masses --      3.9246                 3.2989                 2.8646
 Frc consts  --      0.2889                 0.3643                 0.3998
 IR Inten    --      4.1024                13.9096                10.1751

                     19                     20                     21
                      A                      A                      A
 Frequencies --    515.5504               588.4950               596.0275
 Red. masses --      3.0370                 1.9464                 1.9114
 Frc consts  --      0.4756                 0.3972                 0.4001
 IR Inten    --     39.7897                33.7780                54.5628

                     22                     23                     24
                      A                      A                      A
 Frequencies --    637.5436               645.8861               676.5635
 Red. masses --      3.5337                 4.4732                 3.2389
 Frc consts  --      0.8462                 1.0995                 0.8735
 IR Inten    --     10.3631                36.4546                43.7167

                     25                     26                     27
                      A                      A                      A
 Frequencies --    689.1845               701.2606               746.0384
 Red. masses --      3.0916                 3.5041                 1.1995
 Frc consts  --      0.8652                 1.0153                 0.3933
 IR Inten    --     32.0687                14.9666                97.8458

                     28                     29                     30
                      A                      A                      A
 Frequencies --    782.3492               795.1380               823.2325
 Red. masses --      3.4258                 1.2319                 1.4289
 Frc consts  --      1.2354                 0.4589                 0.5705
 IR Inten    --     10.2517                59.2106                17.1526

                     31                     32                     33
                      A                      A                      A
 Frequencies --    832.8259               841.2138               880.6690
 Red. masses --      1.4017                 1.3576                 2.8910
 Frc consts  --      0.5728                 0.5660                 1.3211
 IR Inten    --     53.4589                47.0949                 0.9772

                     34                     35                     36
                      A                      A                      A
 Frequencies --    899.0870               914.4179               946.7027
 Red. masses --      2.3422                 2.0432                 5.5539
 Frc consts  --      1.1155                 1.0066                 2.9328
 IR Inten    --     19.6312                25.3826                17.6681

                     37                     38                     39
                      A                      A                      A
 Frequencies --    961.4682               992.0447              1014.2973
 Red. masses --      2.5790                 2.3040                 2.3257
 Frc consts  --      1.4047                 1.3360                 1.4097
 IR Inten    --      3.5091                 2.2382                14.1325

                     40                     41                     42
                      A                      A                      A
 Frequencies --   1027.0510              1051.9930              1082.8689
 Red. masses --      2.6574                 3.0595                 2.7098
 Frc consts  --      1.6515                 1.9949                 1.8721
 IR Inten    --     27.6546                11.4884                 8.4255

                     43                     44                     45
                      A                      A                      A
 Frequencies --   1130.3305              1140.0890              1151.2937
 Red. masses --      3.2730                 2.2993                 1.7941
 Frc consts  --      2.4638                 1.7608                 1.4011
 IR Inten    --    153.0490                16.9771                23.9933

                     46                     47                     48
                      A                      A                      A
 Frequencies --   1158.5295              1177.2278              1231.9245
 Red. masses --      1.3970                 2.1860                 1.5030
 Frc consts  --      1.1048                 1.7849                 1.3439
 IR Inten    --     38.4862                66.9576                 6.1668

                     49                     50                     51
                      A                      A                      A
 Frequencies --   1261.0292              1267.5973              1278.4049
 Red. masses --      2.1982                 1.3751                 1.4502
 Frc consts  --      2.0596                 1.3018                 1.3965
 IR Inten    --      4.5562                27.9079                10.7944

                     52                     53                     54
                      A                      A                      A
 Frequencies --   1291.0108              1313.6495              1316.9034
 Red. masses --      1.3608                 1.3361                 1.7157
 Frc consts  --      1.3363                 1.3585                 1.7530
 IR Inten    --      2.3959                 2.6421                11.4306

                     55                     56                     57
                      A                      A                      A
 Frequencies --   1343.0150              1364.4059              1374.4873
 Red. masses --      1.7802                 1.4078                 1.4650
 Frc consts  --      1.8918                 1.5441                 1.6307
 IR Inten    --     12.4516                11.5382                 9.3121

                     58                     59                     60
                      A                      A                      A
 Frequencies --   1392.3924              1399.9404              1422.8919
 Red. masses --      2.5801                 2.2620                 1.4041
 Frc consts  --      2.9472                 2.6119                 1.6749
 IR Inten    --      8.1367                89.2655                16.6027

                     61                     62                     63
                      A                      A                      A
 Frequencies --   1456.2923              1464.5800              1485.8971
 Red. masses --      2.1314                 1.0812                 1.3042
 Frc consts  --      2.6632                 1.3665                 1.6966
 IR Inten    --     39.4085                11.9473                18.9646

                     64                     65                     66
                      A                      A                      A
 Frequencies --   1498.6708              1514.5946              1586.6440
 Red. masses --      2.3905                 1.0837                 1.9422
 Frc consts  --      3.1634                 1.4647                 2.8808
 IR Inten    --     14.0013                 4.2368               266.2934

                     67                     68                     69
                      A                      A                      A
 Frequencies --   1609.6814              1654.7414              1697.0152
 Red. masses --      3.5287                 1.0909                 6.9180
 Frc consts  --      5.3870                 1.7599                11.7382
 IR Inten    --     13.0161                34.2687               319.7629

                     70                     71                     72
                      A                      A                      A
 Frequencies --   1812.4424              2995.2193              3026.8983
 Red. masses --      9.9858                 1.0712                 1.0707
 Frc consts  --     19.3268                 5.6623                 5.7797
 IR Inten    --    286.8377                71.3811                 3.9700

                     73                     74                     75
                      A                      A                      A
 Frequencies --   3035.4535              3065.7804              3069.1565
 Red. masses --      1.0597                 1.0989                 1.0920
 Frc consts  --      5.7529                 6.0852                 6.0606
 IR Inten    --     17.9795                 5.5912                18.6742

                     76                     77                     78
                      A                      A                      A
 Frequencies --   3088.1668              3108.4134              3233.3387
 Red. masses --      1.0864                 1.0919                 1.0960
 Frc consts  --      6.1043                 6.2161                 6.7507
 IR Inten    --      9.5930                 7.0952                 7.1110

                     79                     80                     81
                      A                      A                      A
 Frequencies --   3246.3861              3389.9692              3470.3832
 Red. masses --      1.0978                 1.0821                 1.0854
 Frc consts  --      6.8167                 7.3264                 7.7018
 IR Inten    --      0.9169               386.6067               329.2577

                     82                     83                     84
                      A                      A                      A
 Frequencies --   3507.9363              3590.0115              3753.3494
 Red. masses --      1.0498                 1.0935                 1.0643
 Frc consts  --      7.6116                 8.3035                 8.8340
 IR Inten    --      0.8026                 7.1928                84.8000

 - Thermochemistry -
 -------------------
 Temperature   298.150 Kelvin.  Pressure   1.00000 Atm.
 Atom     1 has atomic number  8 and mass  15.99491

 Molecular mass:   226.10659 amu.
 Principal axes and moments of inertia in atomic units:
                           1         2         3
     Eigenvalues --  3056.674834338.056006020.08146
           X            0.45955   0.67245   0.58020
           Y            0.88569  -0.39558  -0.24305
           Z           -0.06608  -0.62557   0.77737
 This molecule is an asymmetric top.
 Rotational symmetry number  1.
 Warning -- assumption of classical behavior for rotation
           may cause significant error
 Rotational temperatures (Kelvin)      0.02834     0.01997     0.01439
 Rotational constants (GHZ):           0.59043     0.41603     0.29979
 Zero-point vibrational energy     644427.3 (Joules/Mol)
                                  154.02181 (Kcal/Mol)
 Warning -- explicit consideration of  21 degrees of freedom as
           vibrations may cause significant error
 Vibrational temperatures:     27.00    63.02    72.67    93.25   123.40
          (Kelvin)            146.49   166.52   204.93   258.13   289.26
                              325.12   386.05   424.84   444.78   497.62
                              508.53   622.90   700.30   741.76   846.71
                              857.55   917.28   929.28   973.42   991.58
                             1008.96  1073.38  1125.62  1144.02  1184.45
                             1198.25  1210.32  1267.08  1293.58  1315.64
                             1362.09  1383.34  1427.33  1459.35  1477.70
                             1513.58  1558.00  1626.29  1640.33  1656.45
                             1666.86  1693.77  1772.46  1814.34  1823.79
                             1839.34  1857.47  1890.05  1894.73  1932.30
                             1963.07  1977.58  2003.34  2014.20  2047.22
                             2095.28  2107.20  2137.87  2156.25  2179.16
                             2282.82  2315.97  2380.80  2441.62  2607.70
                             4309.45  4355.03  4367.34  4410.97  4415.83
                             4443.18  4472.31  4652.05  4670.82  4877.40
                             4993.10  5047.13  5165.22  5400.23

 Zero-point correction=                           0.245449 (Hartree/Particle)
 Thermal correction to Energy=                    0.261057
 Thermal correction to Enthalpy=                  0.262002
 Thermal correction to Gibbs Free Energy=         0.200303
 Sum of electronic and zero-point Energies=           -796.200464
 Sum of electronic and thermal Energies=              -796.184856
 Sum of electronic and thermal Enthalpies=            -796.183912
 Sum of electronic and thermal Free Energies=         -796.245611

                     E (Thermal)             CV                S
                      KCal/Mol        Cal/Mol-Kelvin    Cal/Mol-Kelvin
 Total                  163.816             57.345            129.856
 Electronic               0.000              0.000              0.000
 Translational            0.889              2.981             42.150
 Rotational               0.889              2.981             32.745
 Vibrational            162.039             51.383             54.961
 Vibration     1          0.593              1.986              6.761
 Vibration     2          0.595              1.980              5.079
 Vibration     3          0.595              1.977              4.797
 Vibration     4          0.597              1.971              4.305
 Vibration     5          0.601              1.959              3.754
 Vibration     6          0.604              1.948              3.419
 Vibration     7          0.608              1.936              3.170
 Vibration     8          0.616              1.911              2.771
 Vibration     9          0.629              1.868              2.335
 Vibration    10          0.638              1.838              2.124
 Vibration    11          0.650              1.801              1.911
 Vibration    12          0.673              1.731              1.607
 Vibration    13          0.689              1.683              1.444
 Vibration    14          0.698              1.656              1.367
 Vibration    15          0.724              1.584              1.185
 Vibration    16          0.730              1.568              1.151
 Vibration    17          0.794              1.398              0.849
 Vibration    18          0.843              1.279              0.692
 Vibration    19          0.871              1.216              0.620
 Vibration    20          0.946              1.056              0.470
 Vibration    21          0.954              1.040              0.457

 Optimization completed.
    -- Stationary point found.
 Normal termination of Gaussian 09 at Sat Jul 24 18:59:31 2021.
