 Gaussian 09, Revision D.01,
 Gaussian 09:  ES64L-G09RevD.01 24-Apr-2013

 ----------------------------------------------------------------------
 # B3LYP/6-311++G(d,p) opt=calcfc freq=noraman nosymm integral(ultrafin
 egrid)
 ----------------------------------------------------------------------

 ------------------------------------------------------------
 Candidate Structure: Conf:295 OPT and FREQ calc in gas phase
 ------------------------------------------------------------
 Symbolic Z-matrix:
 Charge =  0 Multiplicity = 1

 SCF Done:  E(RB3LYP) =  -796.328683242     A.U. after   15 cycles
 SCF Done:  E(RB3LYP) =  -796.331912193     A.U. after   13 cycles
 SCF Done:  E(RB3LYP) =  -796.332826671     A.U. after   13 cycles
 SCF Done:  E(RB3LYP) =  -796.333065100     A.U. after   13 cycles
 SCF Done:  E(RB3LYP) =  -796.333409998     A.U. after   13 cycles
 SCF Done:  E(RB3LYP) =  -796.333541904     A.U. after   12 cycles
 SCF Done:  E(RB3LYP) =  -796.333638907     A.U. after   13 cycles
 SCF Done:  E(RB3LYP) =  -796.333715895     A.U. after   11 cycles
 SCF Done:  E(RB3LYP) =  -796.333729847     A.U. after   12 cycles
 SCF Done:  E(RB3LYP) =  -796.333731642     A.U. after   12 cycles
 SCF Done:  E(RB3LYP) =  -796.333734513     A.U. after   11 cycles
 SCF Done:  E(RB3LYP) =  -796.333734655     A.U. after   10 cycles
 Optimization completed.
    -- Stationary point found.
 Normal termination of Gaussian 09 at Thu Jul 29 00:48:03 2021.

 ----------------------------------------------------------------------
 #N Geom=AllCheck Guess=TCheck SCRF=Check GenChk RB3LYP/6-311++G(d,p) F
 req
 ----------------------------------------------------------------------

 Structure from the checkpoint file:  "conf-295.chk"
 ------------------------------------------------------------
 Candidate Structure: Conf:295 OPT and FREQ calc in gas phase
 ------------------------------------------------------------
 Charge =  0 Multiplicity = 1

                          Input orientation:
 ---------------------------------------------------------------------
 Center     Atomic      Atomic             Coordinates (Angstroms)
 Number     Number       Type             X           Y           Z
 ---------------------------------------------------------------------
      1          8           0        1.361361    1.043257   -0.596501
      2          6           0        1.761489    0.106987    0.082187
      3          7           0        0.917076   -0.612347    0.880075
      4          6           0       -0.474714   -0.237937    1.049615
      5          6           0       -0.929889   -0.824402    2.375990
      6          8           0       -2.193785   -0.461872    2.710389
      7          8           0       -0.272224   -1.553796    3.074317
      8          6           0       -1.364729   -0.716541   -0.150731
      9          6           0       -2.529725    0.148823   -0.507341
     10          6           0       -2.791604    0.859350   -1.654744
     11          7           0       -4.011639    1.490511   -1.579217
     12          6           0       -4.491390    1.175999   -0.398800
     13          7           0       -3.641315    0.357546    0.289375
     14          6           0        3.217232   -0.345981    0.109556
     15          6           0        4.072554    0.345186   -0.951354
     16          7           0        3.626100   -0.023424   -2.298618
     17          1           0        1.281986   -1.317290    1.505690
     18          1           0       -0.547598    0.853065    1.103022
     19          1           0       -2.392572   -0.885092    3.560513
     20          1           0       -0.705083   -0.727668   -1.017871
     21          1           0       -1.674270   -1.754317    0.021544
     22          1           0       -2.162963    0.946348   -2.527769
     23          1           0       -5.434832    1.505161    0.010099
     24          1           0       -3.736098    0.042661    1.242410
     25          1           0        3.618220   -0.135078    1.108633
     26          1           0        3.257342   -1.430429   -0.035116
     27          1           0        5.104713    0.005257   -0.828519
     28          1           0        4.060259    1.428676   -0.769074
     29          1           0        2.763311    0.466614   -2.513987
     30          1           0        4.312807    0.250738   -2.992531
 ---------------------------------------------------------------------

 SCF Done:  E(RB3LYP) =  -796.333734655     A.U. after    1 cycles

 Alpha  occ. eigenvalues --  -19.21730 -19.15967 -19.10374 -14.36783 -14.35470
 Alpha  occ. eigenvalues --  -14.29202 -14.29038 -10.34945 -10.28732 -10.25667
 Alpha  occ. eigenvalues --  -10.22436 -10.20848 -10.20727 -10.19949 -10.18749
 Alpha  occ. eigenvalues --  -10.18089  -1.15880  -1.07018  -1.05687  -1.01820
 Alpha  occ. eigenvalues --   -0.94888  -0.88399  -0.87460  -0.81980  -0.77148
 Alpha  occ. eigenvalues --   -0.74952  -0.69654  -0.66461  -0.62185  -0.61590
 Alpha  occ. eigenvalues --   -0.60574  -0.59303  -0.55313  -0.53674  -0.53307
 Alpha  occ. eigenvalues --   -0.50880  -0.50780  -0.49271  -0.48877  -0.47242
 Alpha  occ. eigenvalues --   -0.46676  -0.45139  -0.43991  -0.43245  -0.42543
 Alpha  occ. eigenvalues --   -0.41230  -0.41019  -0.40287  -0.39989  -0.38352
 Alpha  occ. eigenvalues --   -0.37358  -0.37058  -0.36515  -0.32805  -0.28737
 Alpha  occ. eigenvalues --   -0.28292  -0.27396  -0.27154  -0.24405  -0.23082
 Alpha virt. eigenvalues --   -0.04351  -0.03313  -0.01135  -0.00523   0.00165
 Alpha virt. eigenvalues --    0.00336   0.00773   0.01125   0.01740   0.02303
 Alpha virt. eigenvalues --    0.03038   0.03494   0.03839   0.04303   0.04483

 Mulliken charges:
               1
     1  O   -0.318891
     2  C   -0.240626
     3  N    0.001775
     4  C   -0.225459
     5  C   -0.023258
     6  O   -0.203369
     7  O   -0.256140
     8  C   -0.280874
     9  C    0.088365
    10  C   -0.355600
    11  N   -0.142536
    12  C    0.051109
    13  N   -0.147085
    14  C   -0.102128
    15  C   -0.599988
    16  N   -0.381447
    17  H    0.305137
    18  H    0.300379
    19  H    0.311217
    20  H    0.250233
    21  H    0.189806
    22  H    0.145363
    23  H    0.157786
    24  H    0.333860
    25  H    0.163535
    26  H    0.178920
    27  H    0.165479
    28  H    0.158991
    29  H    0.232330
    30  H    0.243114
 Sum of Mulliken charges =   0.00000

 Dipole moment (field-independent basis, Debye):
    X=              0.7811    Y=             -2.3259    Z=              4.8405  Tot=              5.4269
 Quadrupole moment (field-independent basis, Debye-Ang):
   XX=            -88.0182   YY=           -103.8210   ZZ=            -93.8574
   XY=              9.8448   XZ=            -19.2871   YZ=              3.1673

  Exact polarizability: 173.599 -15.919 119.557  -5.302 -20.826 145.426
 Approx polarizability: 217.310 -25.496 192.228  -3.318 -35.433 214.606

                      1                      2                      3
                      A                      A                      A
 Frequencies --     20.4853                33.1670                34.8737
 Red. masses --      3.5531                 4.6914                 7.2317
 Frc consts  --      0.0009                 0.0030                 0.0052
 IR Inten    --      1.6465                 1.3524                 0.9321

                      4                      5                      6
                      A                      A                      A
 Frequencies --     49.7432                65.1737                73.2578
 Red. masses --      4.2914                 9.4504                 4.8813
 Frc consts  --      0.0063                 0.0237                 0.0154
 IR Inten    --      1.8774                 4.5926                 1.7803

                      7                      8                      9
                      A                      A                      A
 Frequencies --    122.7359               132.3105               148.9977
 Red. masses --      5.0212                 5.3534                 3.6561
 Frc consts  --      0.0446                 0.0552                 0.0478
 IR Inten    --      6.1970                 2.7090                 4.2707

                     10                     11                     12
                      A                      A                      A
 Frequencies --    190.8326               242.0912               273.7544
 Red. masses --      4.7662                 2.6377                 5.2956
 Frc consts  --      0.1023                 0.0911                 0.2338
 IR Inten    --      1.0833                30.2335                 1.7999

                     13                     14                     15
                      A                      A                      A
 Frequencies --    300.3669               311.3733               327.5968
 Red. masses --      2.5605                 1.2428                 3.8913
 Frc consts  --      0.1361                 0.0710                 0.2461
 IR Inten    --      7.1462                42.2519                 0.8465

                     16                     17                     18
                      A                      A                      A
 Frequencies --    343.4910               382.8849               428.3625
 Red. masses --      4.5559                 4.0688                 2.6796
 Frc consts  --      0.3167                 0.3514                 0.2897
 IR Inten    --      8.1921                 6.4675                35.8146

                     19                     20                     21
                      A                      A                      A
 Frequencies --    493.9737               560.0781               567.2613
 Red. masses --      1.3140                 2.4606                 1.8024
 Frc consts  --      0.1889                 0.4548                 0.3417
 IR Inten    --     73.3846                20.2928                34.8849

                     22                     23                     24
                      A                      A                      A
 Frequencies --    594.1995               613.4962               629.7255
 Red. masses --      1.7631                 2.0957                 3.6472
 Frc consts  --      0.3668                 0.4647                 0.8522
 IR Inten    --     47.3319                 1.1847                37.1841

                     25                     26                     27
                      A                      A                      A
 Frequencies --    662.7222               675.7019               681.4484
 Red. masses --      2.2528                 3.1621                 2.2036
 Frc consts  --      0.5830                 0.8506                 0.6029
 IR Inten    --    102.1830                 5.3484                 1.4818

                     28                     29                     30
                      A                      A                      A
 Frequencies --    736.7776               768.3804               807.8282
 Red. masses --      3.3872                 4.1160                 1.4309
 Frc consts  --      1.0833                 1.4318                 0.5502
 IR Inten    --     20.6865                 5.7115                23.3238

                     31                     32                     33
                      A                      A                      A
 Frequencies --    810.1227               852.5186               858.8025
 Red. masses --      2.6588                 1.4185                 1.5156
 Frc consts  --      1.0281                 0.6074                 0.6586
 IR Inten    --      8.9031                15.7740                99.5892

                     34                     35                     36
                      A                      A                      A
 Frequencies --    884.0658               899.8003               934.7343
 Red. masses --      1.9345                 2.1070                 5.6961
 Frc consts  --      0.8908                 1.0051                 2.9323
 IR Inten    --      9.4996                24.5100                10.9409

                     37                     38                     39
                      A                      A                      A
 Frequencies --    953.8548               999.3091              1013.6006
 Red. masses --      2.3402                 4.3619                 3.4419
 Frc consts  --      1.2545                 2.5664                 2.0834
 IR Inten    --      8.0533                 7.1068                 8.5599

                     40                     41                     42
                      A                      A                      A
 Frequencies --   1027.6024              1059.4405              1094.5313
 Red. masses --      3.6241                 2.5222                 3.7307
 Frc consts  --      2.2548                 1.6679                 2.6333
 IR Inten    --     11.3115                14.3894                51.1052

                     43                     44                     45
                      A                      A                      A
 Frequencies --   1113.1905              1119.2410              1144.0139
 Red. masses --      1.6108                 1.8221                 2.0777
 Frc consts  --      1.1761                 1.3448                 1.6021
 IR Inten    --     32.7394                22.3588                17.7431

                     46                     47                     48
                      A                      A                      A
 Frequencies --   1160.9785              1182.2934              1191.1047
 Red. masses --      1.8198                 2.3230                 1.3188
 Frc consts  --      1.4451                 1.9132                 1.1024
 IR Inten    --    176.6184                36.1084                32.0695

                     49                     50                     51
                      A                      A                      A
 Frequencies --   1235.2978              1237.7698              1258.7259
 Red. masses --      1.4407                 1.3882                 2.4160
 Frc consts  --      1.2953                 1.2531                 2.2553
 IR Inten    --     30.9839                19.5712                16.0987

                     52                     53                     54
                      A                      A                      A
 Frequencies --   1272.0329              1303.4975              1321.0382
 Red. masses --      1.4235                 1.3741                 1.2380
 Frc consts  --      1.3571                 1.3756                 1.2730
 IR Inten    --      8.5151                 7.8466                 4.6834

                     55                     56                     57
                      A                      A                      A
 Frequencies --   1349.4057              1354.1414              1374.5517
 Red. masses --      1.2742                 1.5741                 1.5440
 Frc consts  --      1.3670                 1.7006                 1.7188
 IR Inten    --      9.1705                43.6470                23.0350

                     58                     59                     60
                      A                      A                      A
 Frequencies --   1386.7574              1406.8991              1424.1576
 Red. masses --      2.5946                 2.1623                 1.3857
 Frc consts  --      2.9398                 2.5217                 1.6559
 IR Inten    --     21.2861                65.0900                12.4318

                     61                     62                     63
                      A                      A                      A
 Frequencies --   1427.1641              1449.4787              1473.2351
 Red. masses --      2.6454                 1.1079                 1.1531
 Frc consts  --      3.1746                 1.3714                 1.4746
 IR Inten    --     32.2686                20.9879                20.7646

                     64                     65                     66
                      A                      A                      A
 Frequencies --   1499.0815              1499.7727              1526.8887
 Red. masses --      3.1569                 1.1013                 2.0357
 Frc consts  --      4.1799                 1.4596                 2.7962
 IR Inten    --     24.3532                 4.9725               319.3777

                     67                     68                     69
                      A                      A                      A
 Frequencies --   1603.5029              1653.6098              1732.3136
 Red. masses --      4.2960                 1.1268                 7.0998
 Frc consts  --      6.5082                 1.8153                12.5530
 IR Inten    --      5.3831                81.5229               178.4509

                     70                     71                     72
                      A                      A                      A
 Frequencies --   1808.2112              2983.8512              3016.7432
 Red. masses --      9.4768                 1.0707                 1.0718
 Frc consts  --     18.2561                 5.6163                 5.7471
 IR Inten    --    324.8564                55.3732                25.2153

                     73                     74                     75
                      A                      A                      A
 Frequencies --   3019.7873              3050.7781              3059.2035
 Red. masses --      1.0624                 1.0829                 1.0919
 Frc consts  --      5.7081                 5.9382                 6.0208
 IR Inten    --     15.8769                10.9901                32.4759

                     76                     77                     78
                      A                      A                      A
 Frequencies --   3066.9788              3115.7204              3236.9983
 Red. masses --      1.0989                 1.0913                 1.0947
 Frc consts  --      6.0900                 6.2419                 6.7580
 IR Inten    --     18.7509                 1.8064                 5.9201

                     79                     80                     81
                      A                      A                      A
 Frequencies --   3240.5350              3505.6640              3583.3791
 Red. masses --      1.0994                 1.0495                 1.0934
 Frc consts  --      6.8019                 7.5991                 8.2724
 IR Inten    --      0.9585                 4.8728                 8.0486

                     82                     83                     84
                      A                      A                      A
 Frequencies --   3598.9833              3647.4791              3744.8764
 Red. masses --      1.0778                 1.0810                 1.0644
 Frc consts  --      8.2249                 8.4737                 8.7952
 IR Inten    --     69.9083               113.8329                96.1078

 - Thermochemistry -
 -------------------
 Temperature   298.150 Kelvin.  Pressure   1.00000 Atm.
 Atom     1 has atomic number  8 and mass  15.99491

 Molecular mass:   226.10659 amu.
 Principal axes and moments of inertia in atomic units:
                           1         2         3
     Eigenvalues --  2464.061386102.870498228.97396
           X            0.99074   0.07488   0.11323
           Y           -0.07302  -0.40922   0.90951
           Z           -0.11444   0.90936   0.39997
 This molecule is an asymmetric top.
 Rotational symmetry number  1.
 Warning -- assumption of classical behavior for rotation
           may cause significant error
 Rotational temperatures (Kelvin)      0.03515     0.01419     0.01053
 Rotational constants (GHZ):           0.73243     0.29572     0.21932
 Zero-point vibrational energy     640246.2 (Joules/Mol)
                                  153.02251 (Kcal/Mol)
 Warning -- explicit consideration of  23 degrees of freedom as
           vibrations may cause significant error
 Vibrational temperatures:     29.47    47.72    50.18    71.57    93.77
          (Kelvin)            105.40   176.59   190.37   214.37   274.57
                              348.31   393.87   432.16   448.00   471.34
                              494.21   550.89   616.32   710.72   805.83
                              816.16   854.92   882.68   906.03   953.51
                              972.18   980.45  1060.06  1105.53  1162.28
                             1165.58  1226.58  1235.62  1271.97  1294.61
                             1344.87  1372.38  1437.78  1458.34  1478.49
                             1524.30  1574.78  1601.63  1610.34  1645.98
                             1670.39  1701.05  1713.73  1777.32  1780.87
                             1811.02  1830.17  1875.44  1900.68  1941.49
                             1948.31  1977.67  1995.23  2024.21  2049.04
                             2053.37  2085.47  2119.65  2156.84  2157.84
                             2196.85  2307.08  2379.17  2492.41  2601.61
                             4293.09  4340.42  4344.79  4389.38  4401.51
                             4412.69  4482.82  4657.31  4662.40  5043.86
                             5155.68  5178.13  5247.90  5388.04

 Zero-point correction=                           0.243857 (Hartree/Particle)
 Thermal correction to Energy=                    0.260020
 Thermal correction to Enthalpy=                  0.260964
 Thermal correction to Gibbs Free Energy=         0.197056
 Sum of electronic and zero-point Energies=           -796.089878
 Sum of electronic and thermal Energies=              -796.073715
 Sum of electronic and thermal Enthalpies=            -796.072771
 Sum of electronic and thermal Free Energies=         -796.136679

                     E (Thermal)             CV                S
                      KCal/Mol        Cal/Mol-Kelvin    Cal/Mol-Kelvin
 Total                  163.165             58.720            134.506
 Electronic               0.000              0.000              0.000
 Translational            0.889              2.981             42.150
 Rotational               0.889              2.981             33.181
 Vibrational            161.387             52.758             59.175
 Vibration     1          0.593              1.986              6.587
 Vibration     2          0.594              1.983              5.630
 Vibration     3          0.594              1.983              5.531
 Vibration     4          0.595              1.978              4.828
 Vibration     5          0.597              1.971              4.294
 Vibration     6          0.599              1.967              4.064
 Vibration     7          0.610              1.930              3.057
 Vibration     8          0.612              1.921              2.912
 Vibration     9          0.618              1.904              2.685
 Vibration    10          0.634              1.853              2.220
 Vibration    11          0.658              1.776              1.787
 Vibration    12          0.676              1.722              1.572
 Vibration    13          0.693              1.673              1.415
 Vibration    14          0.700              1.652              1.355
 Vibration    15          0.711              1.620              1.272
 Vibration    16          0.722              1.589              1.196
 Vibration    17          0.752              1.507              1.028
 Vibration    18          0.790              1.408              0.864
 Vibration    19          0.850              1.263              0.673
 Vibration    20          0.916              1.118              0.524
 Vibration    21          0.923              1.102              0.510
 Vibration    22          0.952              1.044              0.460
 Vibration    23          0.973              1.003              0.427

 Optimization completed.
    -- Stationary point found.
 Normal termination of Gaussian 09 at Thu Jul 29 01:59:29 2021.
