 Gaussian 09, Revision D.01,
 Gaussian 09:  ES64L-G09RevD.01 24-Apr-2013

 ----------------------------------------------------------------------
 # B3LYP/6-311++G(d,p) opt=calcfc freq=noraman nosymm integral(ultrafin
 egrid)
 ----------------------------------------------------------------------

 ------------------------------------------------------------
 Candidate Structure: Conf:640 OPT and FREQ calc in gas phase
 ------------------------------------------------------------
 Symbolic Z-matrix:
 Charge =  0 Multiplicity = 1

 SCF Done:  E(RB3LYP) =  -796.333838674     A.U. after   15 cycles
 SCF Done:  E(RB3LYP) =  -796.336003815     A.U. after   13 cycles
 SCF Done:  E(RB3LYP) =  -796.336377187     A.U. after   15 cycles
 SCF Done:  E(RB3LYP) =  -796.336279304     A.U. after   13 cycles
 SCF Done:  E(RB3LYP) =  -796.336417175     A.U. after   13 cycles
 SCF Done:  E(RB3LYP) =  -796.336419648     A.U. after   11 cycles
 SCF Done:  E(RB3LYP) =  -796.336419762     A.U. after   10 cycles
 Optimization completed.
    -- Stationary point found.
 Normal termination of Gaussian 09 at Thu Jul 29 00:02:53 2021.

 ----------------------------------------------------------------------
 #N Geom=AllCheck Guess=TCheck SCRF=Check GenChk RB3LYP/6-311++G(d,p) F
 req
 ----------------------------------------------------------------------

 Structure from the checkpoint file:  "conf-640.chk"
 ------------------------------------------------------------
 Candidate Structure: Conf:640 OPT and FREQ calc in gas phase
 ------------------------------------------------------------
 Charge =  0 Multiplicity = 1

                          Input orientation:
 ---------------------------------------------------------------------
 Center     Atomic      Atomic             Coordinates (Angstroms)
 Number     Number       Type             X           Y           Z
 ---------------------------------------------------------------------
      1          8           0        0.922675   -1.273605   -0.982779
      2          6           0        1.180092   -0.133940   -0.597520
      3          7           0        0.270051    0.878522   -0.671704
      4          6           0       -0.983583    0.742127   -1.389936
      5          6           0       -1.141744    1.943634   -2.313611
      6          8           0       -2.099012    1.738799   -3.238531
      7          8           0       -0.516574    2.970594   -2.219642
      8          6           0       -2.244922    0.633009   -0.487031
      9          6           0       -2.203994   -0.434723    0.562978
     10          6           0       -2.842295   -0.503746    1.779002
     11          7           0       -2.612994   -1.716400    2.386978
     12          6           0       -1.838783   -2.375744    1.555801
     13          7           0       -1.574891   -1.657558    0.424009
     14          6           0        2.522714    0.213702    0.016106
     15          6           0        2.854880   -0.689428    1.228235
     16          7           0        4.169018   -0.480708    1.824650
     17          1           0        0.567707    1.821103   -0.461836
     18          1           0       -0.909860   -0.157236   -2.005545
     19          1           0       -2.179025    2.547828   -3.767499
     20          1           0       -3.095649    0.475779   -1.159132
     21          1           0       -2.413391    1.592095    0.012726
     22          1           0       -3.462750    0.249637    2.241228
     23          1           0       -1.433898   -3.363374    1.716636
     24          1           0       -0.857541   -1.874700   -0.263527
     25          1           0        2.563768    1.267304    0.310366
     26          1           0        3.278349    0.058503   -0.761437
     27          1           0        2.101556   -0.538967    2.007242
     28          1           0        2.777570   -1.732037    0.914462
     29          1           0        4.284992    0.464506    2.173852
     30          1           0        4.917611   -0.665106    1.165410
 ---------------------------------------------------------------------

 SCF Done:  E(RB3LYP) =  -796.336419762     A.U. after    1 cycles

 Alpha  occ. eigenvalues --  -19.20870 -19.15392 -19.11642 -14.36868 -14.35955
 Alpha  occ. eigenvalues --  -14.30661 -14.28887 -10.34392 -10.30129 -10.25955
 Alpha  occ. eigenvalues --  -10.21846 -10.21146 -10.21012 -10.20781 -10.19751
 Alpha  occ. eigenvalues --  -10.17898  -1.15202  -1.07000  -1.06292  -1.01295
 Alpha  occ. eigenvalues --   -0.95981  -0.89874  -0.86983  -0.82533  -0.77720
 Alpha  occ. eigenvalues --   -0.75312  -0.69185  -0.66709  -0.63195  -0.62042
 Alpha  occ. eigenvalues --   -0.60628  -0.58958  -0.55811  -0.53315  -0.53147
 Alpha  occ. eigenvalues --   -0.52187  -0.50873  -0.50118  -0.49177  -0.47485
 Alpha  occ. eigenvalues --   -0.45931  -0.45353  -0.44225  -0.43326  -0.43200
 Alpha  occ. eigenvalues --   -0.42225  -0.41496  -0.40904  -0.40330  -0.39593
 Alpha  occ. eigenvalues --   -0.38281  -0.36519  -0.36141  -0.32526  -0.29756
 Alpha  occ. eigenvalues --   -0.29217  -0.28151  -0.26846  -0.25351  -0.22728
 Alpha virt. eigenvalues --   -0.03779  -0.02753  -0.02159  -0.01161  -0.00035
 Alpha virt. eigenvalues --    0.00255   0.00760   0.01318   0.01482   0.02206
 Alpha virt. eigenvalues --    0.02871   0.03367   0.03584   0.04700   0.04784

 Mulliken charges:
               1
     1  O   -0.333402
     2  C   -0.208540
     3  N    0.017026
     4  C   -0.000895
     5  C   -0.047065
     6  O   -0.117425
     7  O   -0.258812
     8  C   -1.853185
     9  C    1.140756
    10  C   -0.189375
    11  N   -0.113234
    12  C    0.036483
    13  N   -0.127734
    14  C   -0.164258
    15  C   -0.523715
    16  N   -0.315053
    17  H    0.307318
    18  H    0.287420
    19  H    0.301261
    20  H    0.201735
    21  H    0.192679
    22  H    0.138657
    23  H    0.166248
    24  H    0.320108
    25  H    0.123079
    26  H    0.186202
    27  H    0.174438
    28  H    0.198239
    29  H    0.230252
    30  H    0.230792
 Sum of Mulliken charges =   0.00000

 Dipole moment (field-independent basis, Debye):
    X=              1.5005    Y=              3.7551    Z=             -4.0451  Tot=              5.7197
 Quadrupole moment (field-independent basis, Debye-Ang):
   XX=            -94.5481   YY=            -98.0049   ZZ=           -103.4361
   XY=             -5.2430   XZ=             10.3234   YZ=              4.4290

  Exact polarizability: 150.220  -5.260 145.910   3.438 -22.174 141.714
 Approx polarizability: 195.397  -8.116 229.957  -4.582  -8.569 203.094

                      1                      2                      3
                      A                      A                      A
 Frequencies --     21.5558                33.2439                57.6447
 Red. masses --      4.9772                 3.2890                 6.8877
 Frc consts  --      0.0014                 0.0021                 0.0135
 IR Inten    --      0.6582                 2.4828                 3.4538

                      4                      5                      6
                      A                      A                      A
 Frequencies --     63.6794                71.7006                82.9597
 Red. masses --      5.0975                 4.6305                 2.0352
 Frc consts  --      0.0122                 0.0140                 0.0083
 IR Inten    --      1.6161                 4.1030                 1.6676

                      7                      8                      9
                      A                      A                      A
 Frequencies --     99.7408               130.5904               163.6406
 Red. masses --      6.1399                 5.8729                 5.7950
 Frc consts  --      0.0360                 0.0590                 0.0914
 IR Inten    --      1.1088                12.0666                 9.8673

                     10                     11                     12
                      A                      A                      A
 Frequencies --    181.8347               204.2410               256.8293
 Red. masses --      4.3629                 5.2201                 5.0221
 Frc consts  --      0.0850                 0.1283                 0.1952
 IR Inten    --      9.2511                 8.6574                 0.6004

                     13                     14                     15
                      A                      A                      A
 Frequencies --    284.5544               292.9597               319.8978
 Red. masses --      1.2365                 2.5536                 6.6015
 Frc consts  --      0.0590                 0.1291                 0.3980
 IR Inten    --     34.5026                 6.7784                 3.1573

                     16                     17                     18
                      A                      A                      A
 Frequencies --    339.6611               391.7218               450.6848
 Red. masses --      3.4810                 3.6558                 3.7003
 Frc consts  --      0.2366                 0.3305                 0.4428
 IR Inten    --      6.7922                 3.2059                 8.6560

                     19                     20                     21
                      A                      A                      A
 Frequencies --    523.4499               537.9073               598.0396
 Red. masses --      2.8180                 1.3665                 1.3304
 Frc consts  --      0.4549                 0.2330                 0.2803
 IR Inten    --     33.5153                69.5451                97.9110

                     22                     23                     24
                      A                      A                      A
 Frequencies --    622.0106               626.7857               653.1988
 Red. masses --      3.3840                 3.5051                 3.8012
 Frc consts  --      0.7714                 0.8113                 0.9556
 IR Inten    --     12.9730                24.5025                42.7879

                     25                     26                     27
                      A                      A                      A
 Frequencies --    670.0526               696.4783               716.7428
 Red. masses --      3.4038                 3.1279                 1.2432
 Frc consts  --      0.9004                 0.8940                 0.3763
 IR Inten    --     44.0085                27.6793                95.5444

                     28                     29                     30
                      A                      A                      A
 Frequencies --    751.0796               772.9351               783.0821
 Red. masses --      3.9139                 1.3181                 4.1920
 Frc consts  --      1.3009                 0.4640                 1.5146
 IR Inten    --      1.7866                 1.7281                12.9402

                     31                     32                     33
                      A                      A                      A
 Frequencies --    796.2467               813.1444               836.1110
 Red. masses --      1.4545                 1.4073                 1.3524
 Frc consts  --      0.5433                 0.5483                 0.5571
 IR Inten    --    222.0140                17.3144                25.1319

                     34                     35                     36
                      A                      A                      A
 Frequencies --    890.5700               926.4741               937.9390
 Red. masses --      2.0810                 4.8993                 5.7696
 Frc consts  --      0.9724                 2.4777                 2.9905
 IR Inten    --      5.0039                 1.0927                15.6340

                     37                     38                     39
                      A                      A                      A
 Frequencies --    974.5888               992.0631              1012.9307
 Red. masses --      1.3885                 3.5218                 4.5295
 Frc consts  --      0.7770                 2.0422                 2.7382
 IR Inten    --      5.1542                 6.1282                67.2193

                     40                     41                     42
                      A                      A                      A
 Frequencies --   1017.6307              1045.9574              1092.8839
 Red. masses --      3.7812                 3.1840                 3.3140
 Frc consts  --      2.3071                 2.0523                 2.3321
 IR Inten    --     16.4072                 5.8185                17.3830

                     43                     44                     45
                      A                      A                      A
 Frequencies --   1109.2512              1136.9453              1145.1194
 Red. masses --      2.3888                 1.9658                 1.7651
 Frc consts  --      1.7317                 1.4972                 1.3637
 IR Inten    --     61.2911                21.5626               118.6219

                     46                     47                     48
                      A                      A                      A
 Frequencies --   1148.7006              1176.7189              1228.2036
 Red. masses --      1.8223                 2.2965                 1.4728
 Frc consts  --      1.4167                 1.8736                 1.3090
 IR Inten    --      7.7062               113.0588                22.3014

                     49                     50                     51
                      A                      A                      A
 Frequencies --   1244.5047              1260.8143              1276.6096
 Red. masses --      1.6284                 2.1318                 1.4126
 Frc consts  --      1.4859                 1.9967                 1.3564
 IR Inten    --     22.1423                 4.0645                10.2492

                     52                     53                     54
                      A                      A                      A
 Frequencies --   1282.2357              1294.1506              1336.6730
 Red. masses --      1.3791                 1.3098                 1.3716
 Frc consts  --      1.3359                 1.2925                 1.4439
 IR Inten    --     19.1744                 6.5807                 9.6366

                     55                     56                     57
                      A                      A                      A
 Frequencies --   1347.0872              1368.4235              1382.8899
 Red. masses --      1.8338                 1.4720                 1.2522
 Frc consts  --      1.9607                 1.6241                 1.4109
 IR Inten    --      7.3995                20.3305                 5.2386

                     58                     59                     60
                      A                      A                      A
 Frequencies --   1390.2121              1391.9251              1395.9838
 Red. masses --      1.6448                 1.5870                 2.2371
 Frc consts  --      1.8730                 1.8116                 2.5686
 IR Inten    --     14.2865                20.6390               157.9875

                     61                     62                     63
                      A                      A                      A
 Frequencies --   1451.9713              1473.7021              1483.7716
 Red. masses --      2.2446                 1.1239                 1.2457
 Frc consts  --      2.7880                 1.4381                 1.6159
 IR Inten    --     38.3183                 6.8634                27.1819

                     64                     65                     66
                      A                      A                      A
 Frequencies --   1497.7090              1501.3251              1538.1257
 Red. masses --      2.7741                 1.0914                 1.9868
 Frc consts  --      3.6663                 1.4494                 2.7694
 IR Inten    --     18.3840                 5.2877               247.1814

                     67                     68                     69
                      A                      A                      A
 Frequencies --   1604.5679              1664.4387              1704.3100
 Red. masses --      3.6455                 1.0949                 7.6882
 Frc consts  --      5.5300                 1.7871                13.1575
 IR Inten    --      9.5107                36.9334               216.9433

                     70                     71                     72
                      A                      A                      A
 Frequencies --   1806.4971              3024.9270              3026.1120
 Red. masses --      9.8674                 1.0610                 1.0583
 Frc consts  --     18.9725                 5.7201                 5.7098
 IR Inten    --    300.9103                17.6295                 9.3752

                     73                     74                     75
                      A                      A                      A
 Frequencies --   3043.4908              3059.2497              3066.5558
 Red. masses --      1.0664                 1.0985                 1.0998
 Frc consts  --      5.8201                 6.0572                 6.0934
 IR Inten    --     25.4419                 7.3240                 7.9765

                     76                     77                     78
                      A                      A                      A
 Frequencies --   3082.7692              3099.3796              3228.5112
 Red. masses --      1.0861                 1.1040                 1.0961
 Frc consts  --      6.0814                 6.2481                 6.7315
 IR Inten    --      6.7861                19.0392                 7.1976

                     79                     80                     81
                      A                      A                      A
 Frequencies --   3242.3939              3496.8446              3504.8085
 Red. masses --      1.0974                 1.0844                 1.0481
 Frc consts  --      6.7978                 7.8124                 7.5858
 IR Inten    --      1.0631               281.9019                 1.1725

                     82                     83                     84
                      A                      A                      A
 Frequencies --   3586.5767              3605.1861              3748.9509
 Red. masses --      1.0948                 1.0774                 1.0645
 Frc consts  --      8.2975                 8.2506                 8.8152
 IR Inten    --      1.8396                56.7657                94.5993

 - Thermochemistry -
 -------------------
 Temperature   298.150 Kelvin.  Pressure   1.00000 Atm.
 Atom     1 has atomic number  8 and mass  15.99491

 Molecular mass:   226.10659 amu.
 Principal axes and moments of inertia in atomic units:
                           1         2         3
     Eigenvalues --  3606.767624370.237177121.52174
           X            0.79562   0.60241  -0.06395
           Y           -0.35643   0.55086   0.75466
           Z            0.48984  -0.57762   0.65300
 This molecule is an asymmetric top.
 Rotational symmetry number  1.
 Warning -- assumption of classical behavior for rotation
           may cause significant error
 Rotational temperatures (Kelvin)      0.02401     0.01982     0.01216
 Rotational constants (GHZ):           0.50038     0.41296     0.25342
 Zero-point vibrational energy     641162.9 (Joules/Mol)
                                  153.24161 (Kcal/Mol)
 Warning -- explicit consideration of  21 degrees of freedom as
           vibrations may cause significant error
 Vibrational temperatures:     31.01    47.83    82.94    91.62   103.16
          (Kelvin)            119.36   143.50   187.89   235.44   261.62
                              293.86   369.52   409.41   421.50   460.26
                              488.70   563.60   648.43   753.13   773.93
                              860.44   894.93   901.80   939.81   964.06
                             1002.08  1031.23  1080.63  1112.08  1126.68
                             1145.62  1169.93  1202.98  1281.33  1332.99
                             1349.48  1402.21  1427.36  1457.38  1464.14
                             1504.90  1572.41  1595.96  1635.81  1647.57
                             1652.72  1693.03  1767.11  1790.56  1814.03
                             1836.75  1844.85  1861.99  1923.17  1938.16
                             1968.85  1989.67  2000.20  2002.67  2008.51
                             2089.06  2120.33  2134.81  2154.87  2160.07
                             2213.02  2308.61  2394.75  2452.12  2599.14
                             4352.19  4353.89  4378.90  4401.57  4412.08
                             4435.41  4459.31  4645.10  4665.08  5031.17
                             5042.63  5160.28  5187.05  5393.90

 Zero-point correction=                           0.244206 (Hartree/Particle)
 Thermal correction to Energy=                    0.260323
 Thermal correction to Enthalpy=                  0.261267
 Thermal correction to Gibbs Free Energy=         0.198050
 Sum of electronic and zero-point Energies=           -796.092214
 Sum of electronic and thermal Energies=              -796.076097
 Sum of electronic and thermal Enthalpies=            -796.075153
 Sum of electronic and thermal Free Energies=         -796.138370

                     E (Thermal)             CV                S
                      KCal/Mol        Cal/Mol-Kelvin    Cal/Mol-Kelvin
 Total                  163.355             58.494            133.053
 Electronic               0.000              0.000              0.000
 Translational            0.889              2.981             42.150
 Rotational               0.889              2.981             33.084
 Vibrational            161.578             52.532             57.819
 Vibration     1          0.593              1.985              6.485
 Vibration     2          0.594              1.983              5.626
 Vibration     3          0.596              1.974              4.536
 Vibration     4          0.597              1.972              4.340
 Vibration     5          0.598              1.967              4.106
 Vibration     6          0.600              1.961              3.820
 Vibration     7          0.604              1.949              3.459
 Vibration     8          0.612              1.923              2.937
 Vibration     9          0.623              1.887              2.507
 Vibration    10          0.630              1.864              2.309
 Vibration    11          0.640              1.834              2.095
 Vibration    12          0.666              1.751              1.683
 Vibration    13          0.683              1.702              1.506
 Vibration    14          0.688              1.687              1.457
 Vibration    15          0.706              1.635              1.311
 Vibration    16          0.720              1.596              1.214
 Vibration    17          0.759              1.488              0.994
 Vibration    18          0.809              1.359              0.794
 Vibration    19          0.878              1.198              0.602
 Vibration    20          0.893              1.166              0.570
 Vibration    21          0.956              1.036              0.453

 Optimization completed.
    -- Stationary point found.
 Normal termination of Gaussian 09 at Thu Jul 29 01:14:23 2021.
