 Gaussian 09, Revision D.01,
 Gaussian 09:  ES64L-G09RevD.01 24-Apr-2013

 ----------------------------------------------------------------------
 # B3LYP/6-311++G(d,p) opt=calcfc freq=noraman nosymm integral(ultrafin
 egrid)
 ----------------------------------------------------------------------

 ------------------------------------------------------------
 Candidate Structure: Conf:338 OPT and FREQ calc in gas phase
 ------------------------------------------------------------
 Symbolic Z-matrix:
 Charge =  0 Multiplicity = 1

 SCF Done:  E(RB3LYP) =  -796.335340109     A.U. after   15 cycles
 SCF Done:  E(RB3LYP) =  -796.337494692     A.U. after   14 cycles
 SCF Done:  E(RB3LYP) =  -796.337765248     A.U. after   14 cycles
 SCF Done:  E(RB3LYP) =  -796.337856984     A.U. after   15 cycles
 SCF Done:  E(RB3LYP) =  -796.337931151     A.U. after   13 cycles
 SCF Done:  E(RB3LYP) =  -796.338326776     A.U. after   15 cycles
 SCF Done:  E(RB3LYP) =  -796.340282274     A.U. after   16 cycles
 SCF Done:  E(RB3LYP) =  -796.339156753     A.U. after   14 cycles
 SCF Done:  E(RB3LYP) =  -796.340629643     A.U. after   11 cycles
 SCF Done:  E(RB3LYP) =  -796.338096908     A.U. after   15 cycles
 SCF Done:  E(RB3LYP) =  -796.341371829     A.U. after   11 cycles
 SCF Done:  E(RB3LYP) =  -796.342016966     A.U. after   14 cycles
 SCF Done:  E(RB3LYP) =  -796.342231387     A.U. after   12 cycles
 SCF Done:  E(RB3LYP) =  -796.342294127     A.U. after   12 cycles
 SCF Done:  E(RB3LYP) =  -796.342311684     A.U. after   11 cycles
 SCF Done:  E(RB3LYP) =  -796.342313941     A.U. after   11 cycles
 SCF Done:  E(RB3LYP) =  -796.342314179     A.U. after    9 cycles
 Optimization completed.
    -- Stationary point found.
 Normal termination of Gaussian 09 at Thu Jul 29 01:23:46 2021.

 ----------------------------------------------------------------------
 #N Geom=AllCheck Guess=TCheck SCRF=Check GenChk RB3LYP/6-311++G(d,p) F
 req
 ----------------------------------------------------------------------

 Structure from the checkpoint file:  "conf-338.chk"
 ------------------------------------------------------------
 Candidate Structure: Conf:338 OPT and FREQ calc in gas phase
 ------------------------------------------------------------
 Charge =  0 Multiplicity = 1

                          Input orientation:
 ---------------------------------------------------------------------
 Center     Atomic      Atomic             Coordinates (Angstroms)
 Number     Number       Type             X           Y           Z
 ---------------------------------------------------------------------
      1          8           0        0.575624    0.507751    1.745345
      2          6           0        1.293315    0.049807    0.852334
      3          7           0        0.799869   -0.583322   -0.235115
      4          6           0       -0.623892   -0.802665   -0.416113
      5          6           0       -0.804980   -1.913345   -1.434790
      6          8           0       -2.077466   -2.359042   -1.447260
      7          8           0        0.053560   -2.341162   -2.165751
      8          6           0       -1.412708    0.489383   -0.867046
      9          6           0       -2.458514    0.945820    0.094166
     10          6           0       -3.806878    1.178870   -0.043846
     11          7           0       -4.349580    1.622768    1.139964
     12          6           0       -3.344362    1.654345    1.988474
     13          7           0       -2.176222    1.259823    1.407993
     14          6           0        2.813037    0.155708    0.953020
     15          6           0        3.585625    0.378394   -0.353838
     16          7           0        3.476908   -0.785455   -1.247559
     17          1           0        1.462002   -0.951321   -0.923086
     18          1           0       -1.052584   -1.145675    0.528273
     19          1           0       -2.144664   -3.037015   -2.136755
     20          1           0       -1.893855    0.319544   -1.832167
     21          1           0       -0.661954    1.269664   -1.025171
     22          1           0       -4.411144    1.051857   -0.929644
     23          1           0       -3.404159    1.950234    3.024932
     24          1           0       -1.255970    1.143460    1.829042
     25          1           0        3.012708    0.974576    1.646134
     26          1           0        3.173745   -0.758320    1.442012
     27          1           0        3.168802    1.241682   -0.880926
     28          1           0        4.623876    0.632255   -0.100602
     29          1           0        4.012928   -1.572472   -0.894057
     30          1           0        3.826870   -0.576102   -2.176184
 ---------------------------------------------------------------------

 SCF Done:  E(RB3LYP) =  -796.342314179     A.U. after    1 cycles

 Alpha  occ. eigenvalues --  -19.19517 -19.14134 -19.10645 -14.34876 -14.34727
 Alpha  occ. eigenvalues --  -14.32747 -14.27968 -10.33169 -10.29086 -10.24697
 Alpha  occ. eigenvalues --  -10.22643 -10.21032 -10.20087 -10.19797 -10.19559
 Alpha  occ. eigenvalues --  -10.17079  -1.13919  -1.05743  -1.05015  -1.00325
 Alpha  occ. eigenvalues --   -0.94575  -0.91529  -0.85988  -0.81227  -0.77735
 Alpha  occ. eigenvalues --   -0.74455  -0.68407  -0.66457  -0.63315  -0.60106
 Alpha  occ. eigenvalues --   -0.59586  -0.57916  -0.54733  -0.53909  -0.52737
 Alpha  occ. eigenvalues --   -0.51509  -0.49765  -0.48518  -0.48230  -0.47755
 Alpha  occ. eigenvalues --   -0.46523  -0.44657  -0.43320  -0.43161  -0.42376
 Alpha  occ. eigenvalues --   -0.41585  -0.40226  -0.39976  -0.39593  -0.39225
 Alpha  occ. eigenvalues --   -0.38654  -0.36711  -0.35279  -0.31165  -0.28560
 Alpha  occ. eigenvalues --   -0.28270  -0.27467  -0.27066  -0.25916  -0.21899
 Alpha virt. eigenvalues --   -0.02855  -0.02699  -0.01646  -0.00659  -0.00107
 Alpha virt. eigenvalues --    0.00505   0.00908   0.01750   0.01983   0.02594
 Alpha virt. eigenvalues --    0.03127   0.03618   0.03976   0.04522   0.04797

 Mulliken charges:
               1
     1  O   -0.372378
     2  C   -0.049212
     3  N   -0.033239
     4  C   -0.356999
     5  C    0.044291
     6  O   -0.102505
     7  O   -0.265119
     8  C   -0.847998
     9  C    0.651761
    10  C   -0.456202
    11  N   -0.138348
    12  C    0.028937
    13  N   -0.267544
    14  C   -0.317006
    15  C   -0.382926
    16  N   -0.447810
    17  H    0.401645
    18  H    0.293288
    19  H    0.298200
    20  H    0.212625
    21  H    0.215471
    22  H    0.125531
    23  H    0.154781
    24  H    0.426376
    25  H    0.171270
    26  H    0.206115
    27  H    0.170111
    28  H    0.166046
    29  H    0.224184
    30  H    0.246653
 Sum of Mulliken charges =   0.00000

 Dipole moment (field-independent basis, Debye):
    X=              6.8571    Y=             -2.0987    Z=             -2.4899  Tot=              7.5911
 Quadrupole moment (field-independent basis, Debye-Ang):
   XX=           -101.9936   YY=            -95.8348   ZZ=            -93.5339
   XY=             11.2232   XZ=              6.7329   YZ=             -1.4673

  Exact polarizability: 177.596 -11.583 120.576  -8.780  24.881 142.015
 Approx polarizability: 233.414 -13.359 173.208 -10.377  30.332 219.949

                      1                      2                      3
                      A                      A                      A
 Frequencies --     24.8260                47.6186                54.1525
 Red. masses --      4.7944                 7.6550                 6.4558
 Frc consts  --      0.0017                 0.0102                 0.0112
 IR Inten    --      0.4762                 1.7488                 2.7270

                      4                      5                      6
                      A                      A                      A
 Frequencies --     72.3473                80.4291                99.3224
 Red. masses --      3.4787                 4.5688                 4.5034
 Frc consts  --      0.0107                 0.0174                 0.0262
 IR Inten    --      0.3046                 0.6482                 6.0253

                      7                      8                      9
                      A                      A                      A
 Frequencies --    111.2400               123.9882               178.9056
 Red. masses --      6.4018                 6.0734                 2.7066
 Frc consts  --      0.0467                 0.0550                 0.0510
 IR Inten    --      6.4016                 4.6003                 6.3609

                     10                     11                     12
                      A                      A                      A
 Frequencies --    193.5421               235.1862               282.8479
 Red. masses --      5.4107                 3.5754                 3.7776
 Frc consts  --      0.1194                 0.1165                 0.1781
 IR Inten    --      2.7776                 4.6593                 4.1054

                     13                     14                     15
                      A                      A                      A
 Frequencies --    299.8130               303.5912               327.0044
 Red. masses --      1.9263                 1.9000                 4.1271
 Frc consts  --      0.1020                 0.1032                 0.2600
 IR Inten    --      2.2772                12.0514                 0.4578

                     16                     17                     18
                      A                      A                      A
 Frequencies --    352.9784               413.8450               463.1017
 Red. masses --      4.2112                 3.5218                 2.5867
 Frc consts  --      0.3091                 0.3554                 0.3269
 IR Inten    --      4.4274                 7.7236                24.4032

                     19                     20                     21
                      A                      A                      A
 Frequencies --    515.3178               589.0676               608.9018
 Red. masses --      3.2064                 1.4793                 3.2607
 Frc consts  --      0.5017                 0.3024                 0.7123
 IR Inten    --     37.3594                88.0799                 5.5962

                     22                     23                     24
                      A                      A                      A
 Frequencies --    633.7865               644.9398               672.2045
 Red. masses --      3.5708                 3.8361                 3.5501
 Frc consts  --      0.8451                 0.9401                 0.9451
 IR Inten    --     24.3591                 8.5497                49.5936

                     25                     26                     27
                      A                      A                      A
 Frequencies --    697.1755               717.3169               769.5807
 Red. masses --      3.4514                 3.4110                 3.8867
 Frc consts  --      0.9884                 1.0341                 1.3562
 IR Inten    --     18.7613                13.4316                 2.7289

                     28                     29                     30
                      A                      A                      A
 Frequencies --    784.6631               802.5642               816.0362
 Red. masses --      1.0953                 1.2104                 1.4252
 Frc consts  --      0.3973                 0.4593                 0.5592
 IR Inten    --     42.3821                42.9035                27.6001

                     31                     32                     33
                      A                      A                      A
 Frequencies --    837.7527               844.9310               854.9504
 Red. masses --      1.4884                 1.3215                 2.4230
 Frc consts  --      0.6155                 0.5559                 1.0435
 IR Inten    --     23.0812                84.3295                31.5075

                     34                     35                     36
                      A                      A                      A
 Frequencies --    896.6856               910.4405               939.4737
 Red. masses --      2.4346                 1.9831                 5.8705
 Frc consts  --      1.1533                 0.9685                 3.0528
 IR Inten    --     15.4558                14.2469                15.1554

                     37                     38                     39
                      A                      A                      A
 Frequencies --    962.3516               980.3722              1005.3923
 Red. masses --      3.4164                 2.8034                 1.7274
 Frc consts  --      1.8642                 1.5875                 1.0288
 IR Inten    --     10.5004                 4.6176                 8.1080

                     40                     41                     42
                      A                      A                      A
 Frequencies --   1022.5658              1026.6960              1082.9638
 Red. masses --      3.7529                 2.8334                 2.6808
 Frc consts  --      2.3121                 1.7597                 1.8524
 IR Inten    --      0.7656                38.9925                 8.7708

                     43                     44                     45
                      A                      A                      A
 Frequencies --   1122.2517              1130.0565              1145.9482
 Red. masses --      3.3772                 1.8368                 1.9358
 Frc consts  --      2.5061                 1.3820                 1.4978
 IR Inten    --     58.5078                59.0917                 4.0528

                     46                     47                     48
                      A                      A                      A
 Frequencies --   1156.8874              1169.5785              1210.8176
 Red. masses --      1.3821                 2.5667                 1.2922
 Frc consts  --      1.0899                 2.0686                 1.1162
 IR Inten    --     25.7226               167.5143                10.4161

                     49                     50                     51
                      A                      A                      A
 Frequencies --   1259.8219              1262.6581              1274.1418
 Red. masses --      1.6452                 1.9925                 1.3665
 Frc consts  --      1.5385                 1.8717                 1.3070
 IR Inten    --     13.4198                19.0586                11.3161

                     52                     53                     54
                      A                      A                      A
 Frequencies --   1286.3036              1306.5178              1311.4257
 Red. masses --      1.3018                 1.4278                 1.3339
 Frc consts  --      1.2690                 1.4360                 1.3516
 IR Inten    --     12.0298                 2.4026                 2.8071

                     55                     56                     57
                      A                      A                      A
 Frequencies --   1324.7623              1354.4719              1371.1411
 Red. masses --      1.4588                 1.4593                 1.4137
 Frc consts  --      1.5084                 1.5774                 1.5660
 IR Inten    --     10.4751                27.5372                 6.9823

                     58                     59                     60
                      A                      A                      A
 Frequencies --   1384.7611              1404.2867              1420.1195
 Red. masses --      3.7386                 2.0894                 1.4480
 Frc consts  --      4.2238                 2.4277                 1.7206
 IR Inten    --     16.8589                62.6775                23.0165

                     61                     62                     63
                      A                      A                      A
 Frequencies --   1441.8671              1465.2889              1477.9146
 Red. masses --      2.3742                 1.0817                 1.1487
 Frc consts  --      2.9082                 1.3684                 1.4783
 IR Inten    --     79.9388                14.2635                14.9139

                     64                     65                     66
                      A                      A                      A
 Frequencies --   1499.8431              1511.8299              1566.0933
 Red. masses --      3.3094                 1.0889                 2.0640
 Frc consts  --      4.3863                 1.4664                 2.9826
 IR Inten    --     29.5598                 6.6067               325.4351

                     67                     68                     69
                      A                      A                      A
 Frequencies --   1606.9687              1657.4115              1695.6730
 Red. masses --      4.1087                 1.0903                 7.8024
 Frc consts  --      6.2514                 1.7647                13.2178
 IR Inten    --     24.7602                37.4668               355.4191

                     70                     71                     72
                      A                      A                      A
 Frequencies --   1807.0782              2984.1469              3019.3262
 Red. masses --      9.7602                 1.0717                 1.0707
 Frc consts  --     18.7786                 5.6230                 5.7508
 IR Inten    --    318.4622                76.0030                 6.4622

                     73                     74                     75
                      A                      A                      A
 Frequencies --   3036.2009              3059.6690              3070.5389
 Red. masses --      1.0658                 1.0915                 1.0841
 Frc consts  --      5.7887                 6.0205                 6.0223
 IR Inten    --     20.6365                25.9265                10.3152

                     76                     77                     78
                      A                      A                      A
 Frequencies --   3090.0611              3101.0339              3230.0037
 Red. masses --      1.0973                 1.0922                 1.0960
 Frc consts  --      6.1730                 6.1882                 6.7370
 IR Inten    --      9.8997                 8.2976                 8.4010

                     79                     80                     81
                      A                      A                      A
 Frequencies --   3240.5648              3384.2652              3478.6394
 Red. masses --      1.0975                 1.0818                 1.0854
 Frc consts  --      6.7903                 7.2998                 7.7387
 IR Inten    --      1.3176               376.4444               418.8744

                     82                     83                     84
                      A                      A                      A
 Frequencies --   3502.6879              3581.9908              3757.8425
 Red. masses --      1.0503                 1.0932                 1.0645
 Frc consts  --      7.5918                 8.2639                 8.8571
 IR Inten    --      0.4809                 5.8084                89.9915

 - Thermochemistry -
 -------------------
 Temperature   298.150 Kelvin.  Pressure   1.00000 Atm.
 Atom     1 has atomic number  8 and mass  15.99491

 Molecular mass:   226.10659 amu.
 Principal axes and moments of inertia in atomic units:
                           1         2         3
     Eigenvalues --  2375.686455422.138567264.71358
           X            0.94409   0.32640  -0.04645
           Y           -0.26291   0.66035  -0.70343
           Z           -0.19892   0.67632   0.70924
 This molecule is an asymmetric top.
 Rotational symmetry number  1.
 Warning -- assumption of classical behavior for rotation
           may cause significant error
 Rotational temperatures (Kelvin)      0.03646     0.01597     0.01192
 Rotational constants (GHZ):           0.75967     0.33285     0.24843
 Zero-point vibrational energy     642656.4 (Joules/Mol)
                                  153.59857 (Kcal/Mol)
 Warning -- explicit consideration of  21 degrees of freedom as
           vibrations may cause significant error
 Vibrational temperatures:     35.72    68.51    77.91   104.09   115.72
          (Kelvin)            142.90   160.05   178.39   257.40   278.46
                              338.38   406.95   431.36   436.80   470.49
                              507.86   595.43   666.30   741.43   847.54
                              876.07   911.88   927.92   967.15  1003.08
                             1032.06  1107.25  1128.95  1154.71  1174.09
                             1205.34  1215.67  1230.08  1290.13  1309.92
                             1351.69  1384.61  1410.54  1446.53  1471.24
                             1477.18  1558.14  1614.67  1625.90  1648.76
                             1664.50  1682.76  1742.09  1812.60  1816.68
                             1833.20  1850.70  1879.79  1886.85  1906.04
                             1948.78  1972.76  1992.36  2020.45  2043.23
                             2074.52  2108.22  2126.39  2157.94  2175.18
                             2253.26  2312.07  2384.64  2439.69  2599.98
                             4293.52  4344.13  4368.41  4402.18  4417.82
                             4445.90  4461.69  4647.25  4662.44  4869.20
                             5004.98  5039.58  5153.68  5406.69

 Zero-point correction=                           0.244775 (Hartree/Particle)
 Thermal correction to Energy=                    0.260434
 Thermal correction to Enthalpy=                  0.261378
 Thermal correction to Gibbs Free Energy=         0.199808
 Sum of electronic and zero-point Energies=           -796.097539
 Sum of electronic and thermal Energies=              -796.081880
 Sum of electronic and thermal Enthalpies=            -796.080936
 Sum of electronic and thermal Free Energies=         -796.142506

                     E (Thermal)             CV                S
                      KCal/Mol        Cal/Mol-Kelvin    Cal/Mol-Kelvin
 Total                  163.425             57.541            129.585
 Electronic               0.000              0.000              0.000
 Translational            0.889              2.981             42.150
 Rotational               0.889              2.981             32.903
 Vibrational            161.647             51.579             54.532
 Vibration     1          0.593              1.985              6.205
 Vibration     2          0.595              1.978              4.914
 Vibration     3          0.596              1.976              4.660
 Vibration     4          0.598              1.967              4.088
 Vibration     5          0.600              1.962              3.880
 Vibration     6          0.604              1.950              3.468
 Vibration     7          0.607              1.940              3.247
 Vibration     8          0.610              1.929              3.037
 Vibration     9          0.629              1.868              2.340
 Vibration    10          0.635              1.849              2.194
 Vibration    11          0.655              1.787              1.839
 Vibration    12          0.682              1.705              1.516
 Vibration    13          0.692              1.674              1.418
 Vibration    14          0.695              1.667              1.397
 Vibration    15          0.711              1.622              1.275
 Vibration    16          0.729              1.569              1.153
 Vibration    17          0.777              1.440              0.913
 Vibration    18          0.821              1.332              0.757
 Vibration    19          0.870              1.216              0.621
 Vibration    20          0.946              1.055              0.469
 Vibration    21          0.968              1.013              0.435

 Optimization completed.
    -- Stationary point found.
 Normal termination of Gaussian 09 at Thu Jul 29 02:36:53 2021.
