 Gaussian 09, Revision D.01,
 Gaussian 09:  ES64L-G09RevD.01 24-Apr-2013

 ----------------------------------------------------------------------
 # B3LYP/6-311++G(d,p) opt=calcfc freq=noraman nosymm integral(ultrafin
 egrid)
 ----------------------------------------------------------------------

 ------------------------------------------------------------
 Candidate Structure: Conf:422 OPT and FREQ calc in gas phase
 ------------------------------------------------------------
 Symbolic Z-matrix:
 Charge =  0 Multiplicity = 1

 SCF Done:  E(RB3LYP) =  -796.327583244     A.U. after   15 cycles
 SCF Done:  E(RB3LYP) =  -796.329442174     A.U. after   14 cycles
 SCF Done:  E(RB3LYP) =  -796.329617176     A.U. after   13 cycles
 SCF Done:  E(RB3LYP) =  -796.329615881     A.U. after   12 cycles
 SCF Done:  E(RB3LYP) =  -796.329626016     A.U. after   11 cycles
 SCF Done:  E(RB3LYP) =  -796.329626445     A.U. after   10 cycles
 SCF Done:  E(RB3LYP) =  -796.329626462     A.U. after    9 cycles
 Optimization completed.
    -- Stationary point found.
 Normal termination of Gaussian 09 at Thu Jul 29 00:00:13 2021.

 ----------------------------------------------------------------------
 #N Geom=AllCheck Guess=TCheck SCRF=Check GenChk RB3LYP/6-311++G(d,p) F
 req
 ----------------------------------------------------------------------

 Structure from the checkpoint file:  "conf-422.chk"
 ------------------------------------------------------------
 Candidate Structure: Conf:422 OPT and FREQ calc in gas phase
 ------------------------------------------------------------
 Charge =  0 Multiplicity = 1

                          Input orientation:
 ---------------------------------------------------------------------
 Center     Atomic      Atomic             Coordinates (Angstroms)
 Number     Number       Type             X           Y           Z
 ---------------------------------------------------------------------
      1          8           0        0.794422    0.674368    1.566025
      2          6           0        1.130819    0.125190    0.528421
      3          7           0        0.311469   -0.754136   -0.135778
      4          6           0       -0.950952   -1.196977    0.414255
      5          6           0       -0.897687   -2.701615    0.668772
      6          8           0       -1.878832   -3.101297    1.504988
      7          8           0       -0.105997   -3.460758    0.168957
      8          6           0       -2.160344   -0.886923   -0.501962
      9          6           0       -2.421168    0.576546   -0.684959
     10          6           0       -2.047490    1.706336    0.001335
     11          7           0       -2.609375    2.832138   -0.565206
     12          6           0       -3.316049    2.401886   -1.580123
     13          7           0       -3.237535    1.040880   -1.703035
     14          6           0        2.459572    0.407009   -0.155255
     15          6           0        3.576027    0.718844    0.842426
     16          7           0        4.795009    1.108001    0.124299
     17          1           0        0.711968   -1.318427   -0.870837
     18          1           0       -1.079982   -0.689703    1.372369
     19          1           0       -1.808241   -4.063370    1.604104
     20          1           0       -3.041321   -1.376039   -0.071015
     21          1           0       -1.984275   -1.359932   -1.476907
     22          1           0       -1.392420    1.775148    0.855735
     23          1           0       -3.896444    3.010810   -2.256835
     24          1           0       -3.695374    0.478500   -2.403245
     25          1           0        2.744823   -0.430907   -0.801751
     26          1           0        2.319468    1.275142   -0.808665
     27          1           0        3.714445   -0.142077    1.513606
     28          1           0        3.259115    1.556217    1.465574
     29          1           0        5.220184    0.311053   -0.339310
     30          1           0        5.486190    1.484002    0.764016
 ---------------------------------------------------------------------

 SCF Done:  E(RB3LYP) =  -796.329626462     A.U. after    1 cycles

 Alpha  occ. eigenvalues --  -19.20018 -19.14524 -19.09852 -14.37427 -14.35194
 Alpha  occ. eigenvalues --  -14.29825 -14.29349 -10.33414 -10.28403 -10.24924
 Alpha  occ. eigenvalues --  -10.22649 -10.21295 -10.21263 -10.19778 -10.18378
 Alpha  occ. eigenvalues --  -10.17992  -1.14281  -1.05597  -1.05115  -1.02113
 Alpha  occ. eigenvalues --   -0.94580  -0.88862  -0.87730  -0.82150  -0.76956
 Alpha  occ. eigenvalues --   -0.74784  -0.69336  -0.65749  -0.62164  -0.61795
 Alpha  occ. eigenvalues --   -0.60152  -0.59008  -0.55542  -0.53237  -0.52188
 Alpha  occ. eigenvalues --   -0.51112  -0.49282  -0.49161  -0.48601  -0.46329
 Alpha  occ. eigenvalues --   -0.45918  -0.44978  -0.44120  -0.43141  -0.42622
 Alpha  occ. eigenvalues --   -0.41730  -0.41074  -0.40724  -0.39668  -0.39012
 Alpha  occ. eigenvalues --   -0.36488  -0.35685  -0.35337  -0.31468  -0.28831
 Alpha  occ. eigenvalues --   -0.27989  -0.27295  -0.26902  -0.24815  -0.23242
 Alpha virt. eigenvalues --   -0.02983  -0.02595  -0.01638  -0.01154  -0.00115
 Alpha virt. eigenvalues --    0.00377   0.00916   0.01258   0.02035   0.02302
 Alpha virt. eigenvalues --    0.02486   0.03321   0.04081   0.04521   0.04960

 Mulliken charges:
               1
     1  O   -0.300801
     2  C   -0.273357
     3  N    0.054592
     4  C    0.108810
     5  C   -0.193052
     6  O   -0.118898
     7  O   -0.250098
     8  C   -1.341700
     9  C    0.924851
    10  C   -0.566410
    11  N   -0.102069
    12  C    0.168452
    13  N   -0.183292
    14  C   -0.132825
    15  C   -0.529435
    16  N   -0.332699
    17  H    0.297419
    18  H    0.306484
    19  H    0.296597
    20  H    0.220210
    21  H    0.171544
    22  H    0.171732
    23  H    0.175567
    24  H    0.298984
    25  H    0.121038
    26  H    0.224074
    27  H    0.140716
    28  H    0.203706
    29  H    0.204039
    30  H    0.235823
 Sum of Mulliken charges =   0.00000

 Dipole moment (field-independent basis, Debye):
    X=             -1.1539    Y=             -5.1862    Z=             -2.8576  Tot=              6.0328
 Quadrupole moment (field-independent basis, Debye-Ang):
   XX=            -77.4966   YY=           -106.3307   ZZ=            -90.5228
   XY=              8.1182   XZ=             12.0077   YZ=             -4.4601

  Exact polarizability: 153.812   0.202 156.038  10.710  -4.194 125.330
 Approx polarizability: 193.886  -1.192 223.496   9.358  15.287 204.288

                      1                      2                      3
                      A                      A                      A
 Frequencies --     19.6910                35.3145                46.8688
 Red. masses --      4.1765                 2.9274                 9.6523
 Frc consts  --      0.0010                 0.0022                 0.0125
 IR Inten    --      1.0295                 2.4563                 2.2769

                      4                      5                      6
                      A                      A                      A
 Frequencies --     48.9808                59.1346                70.2876
 Red. masses --      3.9228                 5.6642                 3.5634
 Frc consts  --      0.0055                 0.0117                 0.0104
 IR Inten    --      4.2264                11.0390                 1.4514

                      7                      8                      9
                      A                      A                      A
 Frequencies --     89.4447                98.6722               141.7863
 Red. masses --      4.7035                 3.9707                 3.8270
 Frc consts  --      0.0222                 0.0228                 0.0453
 IR Inten    --      0.2429                 5.5392                 4.3212

                     10                     11                     12
                      A                      A                      A
 Frequencies --    178.8163               216.8611               238.7964
 Red. masses --      6.4871                 2.9461                 1.8617
 Frc consts  --      0.1222                 0.0816                 0.0625
 IR Inten    --      2.0825                 8.0119                22.3881

                     13                     14                     15
                      A                      A                      A
 Frequencies --    251.0906               280.1737               306.2205
 Red. masses --      2.1596                 3.3432                 4.3303
 Frc consts  --      0.0802                 0.1546                 0.2392
 IR Inten    --     29.0911                 1.7178                 6.3939

                     16                     17                     18
                      A                      A                      A
 Frequencies --    348.2876               395.7210               444.7191
 Red. masses --      4.4733                 3.8613                 3.1792
 Frc consts  --      0.3197                 0.3563                 0.3705
 IR Inten    --      3.0967                12.7721                18.6293

                     19                     20                     21
                      A                      A                      A
 Frequencies --    483.3456               489.8777               528.6246
 Red. masses --      1.4941                 1.4417                 3.2686
 Frc consts  --      0.2057                 0.2038                 0.5382
 IR Inten    --     55.5588                86.4717                15.8843

                     22                     23                     24
                      A                      A                      A
 Frequencies --    596.5096               620.1892               643.2442
 Red. masses --      1.3386                 2.5509                 2.5788
 Frc consts  --      0.2806                 0.5781                 0.6287
 IR Inten    --     97.0275                 3.0365                30.4943

                     25                     26                     27
                      A                      A                      A
 Frequencies --    650.6173               675.2767               692.0317
 Red. masses --      4.3414                 3.3018                 3.4143
 Frc consts  --      1.0828                 0.8871                 0.9634
 IR Inten    --     39.7914                 9.3787                22.9437

                     28                     29                     30
                      A                      A                      A
 Frequencies --    733.7812               782.7378               797.5193
 Red. masses --      4.3746                 4.1509                 1.3374
 Frc consts  --      1.3878                 1.4984                 0.5012
 IR Inten    --      9.6427                20.2451                26.3588

                     31                     32                     33
                      A                      A                      A
 Frequencies --    803.5342               832.3621               869.4785
 Red. masses --      1.3947                 1.3368                 1.3993
 Frc consts  --      0.5306                 0.5457                 0.6233
 IR Inten    --     22.2016               103.4308                16.1926

                     34                     35                     36
                      A                      A                      A
 Frequencies --    896.4513               917.6181               935.4543
 Red. masses --      1.8899                 4.1378                 5.8337
 Frc consts  --      0.8948                 2.0528                 3.0077
 IR Inten    --     14.6988                 9.5928                 7.3191

                     37                     38                     39
                      A                      A                      A
 Frequencies --    975.1688               992.4076              1022.9701
 Red. masses --      2.5213                 2.7580                 3.7653
 Frc consts  --      1.4127                 1.6004                 2.3216
 IR Inten    --      6.1120                 7.7665                12.4639

                     40                     41                     42
                      A                      A                      A
 Frequencies --   1056.2314              1059.7096              1090.0701
 Red. masses --      3.0418                 3.0293                 2.2263
 Frc consts  --      1.9994                 2.0043                 1.5586
 IR Inten    --     23.8092                 4.0213                40.3312

                     43                     44                     45
                      A                      A                      A
 Frequencies --   1105.2589              1114.2170              1141.8793
 Red. masses --      1.6926                 2.5261                 2.5046
 Frc consts  --      1.2182                 1.8478                 1.9241
 IR Inten    --     19.3598                77.1116                21.1241

                     46                     47                     48
                      A                      A                      A
 Frequencies --   1153.6392              1172.4531              1201.5258
 Red. masses --      1.6420                 2.1494                 1.9666
 Frc consts  --      1.2875                 1.7409                 1.6728
 IR Inten    --    130.0982                80.2253                35.0977

                     49                     50                     51
                      A                      A                      A
 Frequencies --   1225.5647              1254.3425              1263.9997
 Red. masses --      1.7251                 1.3968                 1.4385
 Frc consts  --      1.5267                 1.2948                 1.3541
 IR Inten    --     47.9302                24.9307                23.7674

                     52                     53                     54
                      A                      A                      A
 Frequencies --   1282.8468              1289.6098              1335.9354
 Red. masses --      1.3055                 1.4315                 1.1084
 Frc consts  --      1.2658                 1.4027                 1.1655
 IR Inten    --      9.0455                 3.8538                 5.0649

                     55                     56                     57
                      A                      A                      A
 Frequencies --   1336.9636              1351.2050              1366.7437
 Red. masses --      1.6023                 1.6230                 1.6475
 Frc consts  --      1.6874                 1.7459                 1.8133
 IR Inten    --      8.0400                 2.6841                15.1276

                     58                     59                     60
                      A                      A                      A
 Frequencies --   1390.2774              1409.1070              1424.8361
 Red. masses --      2.0019                 2.1549                 2.2595
 Frc consts  --      2.2798                 2.5210                 2.7027
 IR Inten    --    101.3012                20.7770                20.9788

                     61                     62                     63
                      A                      A                      A
 Frequencies --   1425.4097              1467.6606              1483.9407
 Red. masses --      1.6798                 1.0888                 1.3284
 Frc consts  --      2.0108                 1.3819                 1.7235
 IR Inten    --     40.0419                 9.9800                33.3953

                     64                     65                     66
                      A                      A                      A
 Frequencies --   1501.0066              1516.1768              1535.8913
 Red. masses --      2.6555                 1.0830                 1.7941
 Frc consts  --      3.5250                 1.4669                 2.4935
 IR Inten    --     10.7300                 1.8379               239.3460

                     67                     68                     69
                      A                      A                      A
 Frequencies --   1606.6056              1663.4414              1740.3682
 Red. masses --      4.2067                 1.0908                 8.7204
 Frc consts  --      6.3975                 1.7783                15.5621
 IR Inten    --     13.2575                30.0412               215.2633

                     70                     71                     72
                      A                      A                      A
 Frequencies --   1808.8285              2963.0075              3002.3940
 Red. masses --      9.9184                 1.0741                 1.0626
 Frc consts  --     19.1199                 5.5558                 5.6438
 IR Inten    --    293.8238                61.7303                31.6804

                     73                     74                     75
                      A                      A                      A
 Frequencies --   3020.9200              3038.1278              3060.2764
 Red. masses --      1.0615                 1.0976                 1.0975
 Frc consts  --      5.7078                 5.9692                 6.0559
 IR Inten    --     18.9826                10.4584                 8.4533

                     76                     77                     78
                      A                      A                      A
 Frequencies --   3093.2479              3097.7777              3239.1121
 Red. masses --      1.0839                 1.0909                 1.0959
 Frc consts  --      6.1102                 6.1678                 6.7742
 IR Inten    --     10.9909                13.4349                 1.3435

                     79                     80                     81
                      A                      A                      A
 Frequencies --   3246.2776              3501.1975              3580.6870
 Red. masses --      1.0994                 1.0498                 1.0930
 Frc consts  --      6.8259                 7.5824                 8.2570
 IR Inten    --      3.1790                 0.4340                 1.7208

                     82                     83                     84
                      A                      A                      A
 Frequencies --   3616.2954              3645.4769              3749.8869
 Red. masses --      1.0770                 1.0811                 1.0645
 Frc consts  --      8.2981                 8.4648                 8.8194
 IR Inten    --     34.1763                47.4225                83.7404

 - Thermochemistry -
 -------------------
 Temperature   298.150 Kelvin.  Pressure   1.00000 Atm.
 Atom     1 has atomic number  8 and mass  15.99491

 Molecular mass:   226.10659 amu.
 Principal axes and moments of inertia in atomic units:
                           1         2         3
     Eigenvalues --  3325.840405286.916647820.12582
           X            0.97559   0.12712  -0.17906
           Y           -0.07784   0.96265   0.25931
           Z            0.20534  -0.23904   0.94905
 This molecule is an asymmetric top.
 Rotational symmetry number  1.
 Warning -- assumption of classical behavior for rotation
           may cause significant error
 Rotational temperatures (Kelvin)      0.02604     0.01638     0.01108
 Rotational constants (GHZ):           0.54264     0.34136     0.23078
 Zero-point vibrational energy     639048.1 (Joules/Mol)
                                  152.73616 (Kcal/Mol)
 Warning -- explicit consideration of  23 degrees of freedom as
           vibrations may cause significant error
 Vibrational temperatures:     28.33    50.81    67.43    70.47    85.08
          (Kelvin)            101.13   128.69   141.97   204.00   257.28
                              312.01   343.57   361.26   403.11   440.58
                              501.11   569.35   639.85   695.43   704.82
                              760.57   858.24   892.31   925.48   936.09
                              971.57   995.68  1055.75  1126.18  1147.45
                             1156.11  1197.58  1250.98  1289.79  1320.25
                             1345.91  1403.05  1427.85  1471.82  1519.68
                             1524.68  1568.37  1590.22  1603.11  1642.91
                             1659.83  1686.90  1728.73  1763.31  1804.72
                             1818.61  1845.73  1855.46  1922.11  1923.59
                             1944.08  1966.44  2000.30  2027.39  2050.02
                             2050.84  2111.63  2135.06  2159.61  2181.44
                             2209.80  2311.54  2393.32  2504.00  2602.50
                             4263.10  4319.77  4346.42  4371.18  4403.05
                             4450.49  4457.01  4660.35  4670.66  5037.44
                             5151.80  5203.04  5245.02  5395.24

 Zero-point correction=                           0.243401 (Hartree/Particle)
 Thermal correction to Energy=                    0.259958
 Thermal correction to Enthalpy=                  0.260902
 Thermal correction to Gibbs Free Energy=         0.195901
 Sum of electronic and zero-point Energies=           -796.086226
 Sum of electronic and thermal Energies=              -796.069668
 Sum of electronic and thermal Enthalpies=            -796.068724
 Sum of electronic and thermal Free Energies=         -796.133726

                     E (Thermal)             CV                S
                      KCal/Mol        Cal/Mol-Kelvin    Cal/Mol-Kelvin
 Total                  163.126             59.159            136.807
 Electronic               0.000              0.000              0.000
 Translational            0.889              2.981             42.150
 Rotational               0.889              2.981             33.286
 Vibrational            161.349             53.197             61.372
 Vibration     1          0.593              1.986              6.665
 Vibration     2          0.594              1.982              5.506
 Vibration     3          0.595              1.979              4.945
 Vibration     4          0.595              1.978              4.858
 Vibration     5          0.597              1.974              4.486
 Vibration     6          0.598              1.968              4.145
 Vibration     7          0.602              1.957              3.672
 Vibration     8          0.604              1.950              3.480
 Vibration     9          0.615              1.911              2.780
 Vibration    10          0.629              1.868              2.341
 Vibration    11          0.646              1.815              1.985
 Vibration    12          0.657              1.781              1.812
 Vibration    13          0.663              1.761              1.723
 Vibration    14          0.680              1.710              1.533
 Vibration    15          0.697              1.662              1.383
 Vibration    16          0.726              1.579              1.174
 Vibration    17          0.762              1.479              0.979
 Vibration    18          0.804              1.373              0.812
 Vibration    19          0.840              1.287              0.701
 Vibration    20          0.846              1.272              0.684
 Vibration    21          0.884              1.187              0.590
 Vibration    22          0.954              1.039              0.456
 Vibration    23          0.980              0.989              0.416

 Optimization completed.
    -- Stationary point found.
 Normal termination of Gaussian 09 at Thu Jul 29 01:10:03 2021.
