 Gaussian 09, Revision D.01,
 Gaussian 09:  ES64L-G09RevD.01 24-Apr-2013

 ----------------------------------------------------------------------
 # B3LYP/6-311++G(d,p) opt=calcfc freq=noraman nosymm integral(ultrafin
 egrid)
 ----------------------------------------------------------------------

 ------------------------------------------------------------
 Candidate Structure: Conf:609 OPT and FREQ calc in gas phase
 ------------------------------------------------------------
 Symbolic Z-matrix:
 Charge =  0 Multiplicity = 1

 SCF Done:  E(RB3LYP) =  -796.324785043     A.U. after   15 cycles
 SCF Done:  E(RB3LYP) =  -796.327400643     A.U. after   13 cycles
 SCF Done:  E(RB3LYP) =  -796.327768755     A.U. after   15 cycles
 SCF Done:  E(RB3LYP) =  -796.328032558     A.U. after   13 cycles
 SCF Done:  E(RB3LYP) =  -796.328106538     A.U. after   13 cycles
 SCF Done:  E(RB3LYP) =  -796.328180696     A.U. after   12 cycles
 SCF Done:  E(RB3LYP) =  -796.328186405     A.U. after   12 cycles
 SCF Done:  E(RB3LYP) =  -796.328188587     A.U. after   11 cycles
 SCF Done:  E(RB3LYP) =  -796.328188652     A.U. after   10 cycles
 Optimization completed.
    -- Stationary point found.
 Normal termination of Gaussian 09 at Thu Jul 29 00:17:43 2021.

 ----------------------------------------------------------------------
 #N Geom=AllCheck Guess=TCheck SCRF=Check GenChk RB3LYP/6-311++G(d,p) F
 req
 ----------------------------------------------------------------------

 Structure from the checkpoint file:  "conf-609.chk"
 ------------------------------------------------------------
 Candidate Structure: Conf:609 OPT and FREQ calc in gas phase
 ------------------------------------------------------------
 Charge =  0 Multiplicity = 1

                          Input orientation:
 ---------------------------------------------------------------------
 Center     Atomic      Atomic             Coordinates (Angstroms)
 Number     Number       Type             X           Y           Z
 ---------------------------------------------------------------------
      1          8           0        1.436750    1.074346   -0.645852
      2          6           0        1.634420    0.259557    0.243527
      3          7           0        0.620291   -0.528675    0.721402
      4          6           0       -0.696856   -0.515695    0.095992
      5          6           0       -0.543554   -0.898207   -1.387401
      6          8           0       -1.404385   -0.247084   -2.212724
      7          8           0        0.221340   -1.731859   -1.790444
      8          6           0       -1.479384    0.795632    0.387229
      9          6           0       -2.966803    0.647911    0.442200
     10          6           0       -3.839280    0.662911    1.505616
     11          7           0       -5.139365    0.503339    1.083214
     12          6           0       -5.066691    0.391573   -0.222884
     13          7           0       -3.776903    0.474536   -0.663927
     14          6           0        2.999845    0.062481    0.877498
     15          6           0        4.068970   -0.297366   -0.181642
     16          7           0        5.434229   -0.418719    0.318769
     17          1           0        0.852658   -1.304727    1.320067
     18          1           0       -1.255156   -1.343728    0.543723
     19          1           0       -1.213141   -0.559067   -3.111103
     20          1           0       -1.153429    1.134056    1.372386
     21          1           0       -1.173711    1.564131   -0.324466
     22          1           0       -3.599044    0.793439    2.550278
     23          1           0       -5.900645    0.250989   -0.893862
     24          1           0       -3.439741    0.390019   -1.610775
     25          1           0        3.273736    1.009058    1.355007
     26          1           0        2.971734   -0.703140    1.660166
     27          1           0        3.797511   -1.242019   -0.661873
     28          1           0        4.051112    0.465139   -0.962432
     29          1           0        5.518307   -1.140359    1.026760
     30          1           0        5.767252    0.451534    0.720002
 ---------------------------------------------------------------------

 SCF Done:  E(RB3LYP) =  -796.328188652     A.U. after    1 cycles

 Alpha  occ. eigenvalues --  -19.20219 -19.13982 -19.10760 -14.36935 -14.36325
 Alpha  occ. eigenvalues --  -14.30435 -14.29477 -10.33405 -10.29137 -10.25731
 Alpha  occ. eigenvalues --  -10.22626 -10.21055 -10.20638 -10.20024 -10.19334
 Alpha  occ. eigenvalues --  -10.18421  -1.14178  -1.06302  -1.05108  -1.02034
 Alpha  occ. eigenvalues --   -0.95164  -0.89590  -0.87656  -0.81863  -0.77399
 Alpha  occ. eigenvalues --   -0.74653  -0.69034  -0.66387  -0.63122  -0.61994
 Alpha  occ. eigenvalues --   -0.60190  -0.59510  -0.55750  -0.53460  -0.52433
 Alpha  occ. eigenvalues --   -0.51634  -0.51532  -0.49283  -0.47510  -0.46313
 Alpha  occ. eigenvalues --   -0.45866  -0.44610  -0.44118  -0.43265  -0.42718
 Alpha  occ. eigenvalues --   -0.41859  -0.41375  -0.40511  -0.40164  -0.39424
 Alpha  occ. eigenvalues --   -0.38342  -0.35881  -0.35237  -0.31028  -0.29286
 Alpha  occ. eigenvalues --   -0.28731  -0.28241  -0.27428  -0.25058  -0.23321
 Alpha virt. eigenvalues --   -0.03649  -0.02499  -0.02014  -0.00748  -0.00528
 Alpha virt. eigenvalues --    0.00420   0.00776   0.01136   0.01696   0.02025
 Alpha virt. eigenvalues --    0.02183   0.03207   0.03646   0.04347   0.04523

 Mulliken charges:
               1
     1  O   -0.233335
     2  C   -0.083024
     3  N    0.093831
     4  C   -0.423691
     5  C    0.070163
     6  O   -0.198532
     7  O   -0.217488
     8  C   -0.206001
     9  C    0.254195
    10  C   -0.652728
    11  N   -0.144585
    12  C    0.037501
    13  N   -0.200989
    14  C   -0.315144
    15  C   -0.498687
    16  N   -0.332237
    17  H    0.325440
    18  H    0.211005
    19  H    0.317979
    20  H    0.180610
    21  H    0.263669
    22  H    0.128872
    23  H    0.158007
    24  H    0.346122
    25  H    0.182353
    26  H    0.109880
    27  H    0.169218
    28  H    0.204109
    29  H    0.225271
    30  H    0.228215
 Sum of Mulliken charges =   0.00000

 Dipole moment (field-independent basis, Debye):
    X=              1.4804    Y=             -1.3593    Z=              0.3963  Tot=              2.0485
 Quadrupole moment (field-independent basis, Debye-Ang):
   XX=           -119.0100   YY=            -99.4034   ZZ=            -86.4457
   XY=              4.4295   XZ=             28.8170   YZ=             -3.3341

  Exact polarizability: 194.090  -5.320 110.760   0.986   2.645 137.519
 Approx polarizability: 231.053  -2.749 177.266  -1.400  -6.370 217.089

                      1                      2                      3
                      A                      A                      A
 Frequencies --     21.4687                28.0854                41.9999
 Red. masses --      4.2140                 5.2464                 5.1671
 Frc consts  --      0.0011                 0.0024                 0.0054
 IR Inten    --      1.1066                 8.4264                 7.9384

                      4                      5                      6
                      A                      A                      A
 Frequencies --     57.8797                71.5952                88.7308
 Red. masses --      4.4766                 2.7589                 9.7245
 Frc consts  --      0.0088                 0.0083                 0.0451
 IR Inten    --      1.7008                 2.4092                 2.2139

                      7                      8                      9
                      A                      A                      A
 Frequencies --     90.9389               120.9287               141.0672
 Red. masses --      2.8180                 5.9667                 6.3791
 Frc consts  --      0.0137                 0.0514                 0.0748
 IR Inten    --      2.7493                 2.0724                 5.2194

                     10                     11                     12
                      A                      A                      A
 Frequencies --    189.8245               221.9193               277.1792
 Red. masses --      4.3787                 5.3107                 3.0784
 Frc consts  --      0.0930                 0.1541                 0.1393
 IR Inten    --      9.0508                 2.9506                14.8932

                     13                     14                     15
                      A                      A                      A
 Frequencies --    287.4181               305.8984               336.7554
 Red. masses --      1.2339                 3.4419                 3.8150
 Frc consts  --      0.0601                 0.1898                 0.2549
 IR Inten    --     33.9558                 7.5163                 1.4630

                     16                     17                     18
                      A                      A                      A
 Frequencies --    365.2379               386.3576               424.3424
 Red. masses --      3.8078                 3.5555                 1.2431
 Frc consts  --      0.2993                 0.3127                 0.1319
 IR Inten    --      1.2599                12.5054                65.5514

                     19                     20                     21
                      A                      A                      A
 Frequencies --    438.4123               520.0118               546.4146
 Red. masses --      4.0595                 3.6540                 2.7812
 Frc consts  --      0.4597                 0.5822                 0.4893
 IR Inten    --      0.8466                31.3453                28.9143

                     22                     23                     24
                      A                      A                      A
 Frequencies --    586.2787               608.5159               666.3715
 Red. masses --      1.5427                 2.0795                 2.4923
 Frc consts  --      0.3124                 0.4537                 0.6520
 IR Inten    --     32.9837                82.9765                55.4300

                     25                     26                     27
                      A                      A                      A
 Frequencies --    676.1850               686.7741               727.2821
 Red. masses --      3.0876                 1.9404                 3.7801
 Frc consts  --      0.8318                 0.5392                 1.1781
 IR Inten    --     38.6933                 2.9763                26.5808

                     28                     29                     30
                      A                      A                      A
 Frequencies --    737.0143               766.5134               776.9927
 Red. masses --      4.7449                 1.6925                 1.9966
 Frc consts  --      1.5185                 0.5859                 0.7102
 IR Inten    --      3.1534                 4.3096                 1.9424

                     31                     32                     33
                      A                      A                      A
 Frequencies --    799.4459               809.2508               840.8611
 Red. masses --      1.4632                 1.4085                 1.7580
 Frc consts  --      0.5510                 0.5435                 0.7324
 IR Inten    --    220.4848                23.8898                24.8199

                     34                     35                     36
                      A                      A                      A
 Frequencies --    852.9795               910.5444               935.7469
 Red. masses --      2.4161                 2.6305                 5.7379
 Frc consts  --      1.0357                 1.2850                 2.9602
 IR Inten    --     10.1839                 0.4501                12.5709

                     37                     38                     39
                      A                      A                      A
 Frequencies --    966.1227               985.8291              1014.7982
 Red. masses --      1.7191                 2.1571                 5.0141
 Frc consts  --      0.9454                 1.2352                 3.0423
 IR Inten    --      8.3148                11.1425                60.6236

                     40                     41                     42
                      A                      A                      A
 Frequencies --   1026.7032              1044.6910              1082.9967
 Red. masses --      3.7966                 4.7485                 2.1767
 Frc consts  --      2.3580                 3.0534                 1.5042
 IR Inten    --     19.7625                 5.0125                18.6967

                     43                     44                     45
                      A                      A                      A
 Frequencies --   1096.0861              1108.9492              1134.7118
 Red. masses --      3.4111                 1.5822                 1.7039
 Frc consts  --      2.4146                 1.1464                 1.2926
 IR Inten    --     32.4689                47.0235                62.3840

                     46                     47                     48
                      A                      A                      A
 Frequencies --   1143.1908              1155.2605              1198.7510
 Red. masses --      2.1243                 2.3444                 1.4724
 Frc consts  --      1.6357                 1.8435                 1.2466
 IR Inten    --     45.5990               158.4168                34.5324

                     49                     50                     51
                      A                      A                      A
 Frequencies --   1242.9454              1258.7051              1273.6146
 Red. masses --      1.8303                 2.3589                 1.3623
 Frc consts  --      1.6660                 2.2019                 1.3020
 IR Inten    --     66.7191                22.3768                 6.0615

                     52                     53                     54
                      A                      A                      A
 Frequencies --   1291.5380              1305.8250              1329.2338
 Red. masses --      1.3151                 1.2641                 1.3942
 Frc consts  --      1.2925                 1.2700                 1.4513
 IR Inten    --      4.3636                 1.5552                12.8471

                     55                     56                     57
                      A                      A                      A
 Frequencies --   1335.3121              1348.0177              1376.3571
 Red. masses --      1.4446                 1.8132                 1.6572
 Frc consts  --      1.5177                 1.9413                 1.8497
 IR Inten    --     35.3090                 5.2348                 4.8639

                     58                     59                     60
                      A                      A                      A
 Frequencies --   1383.0872              1391.2975              1392.5120
 Red. masses --      1.2022                 1.2326                 2.9317
 Frc consts  --      1.3549                 1.4058                 3.3494
 IR Inten    --     10.5197                18.9263                16.4747

                     61                     62                     63
                      A                      A                      A
 Frequencies --   1424.7551              1476.2962              1486.2616
 Red. masses --      2.8708                 1.1089                 1.1641
 Frc consts  --      3.4335                 1.4240                 1.5151
 IR Inten    --     23.7163                 3.9439                13.8096

                     64                     65                     66
                      A                      A                      A
 Frequencies --   1498.2012              1501.3864              1521.6962
 Red. masses --      3.1420                 1.0881                 1.8777
 Frc consts  --      4.1552                 1.4452                 2.5617
 IR Inten    --     40.0438                 5.7487               222.5307

                     67                     68                     69
                      A                      A                      A
 Frequencies --   1602.5955              1664.0667              1733.9090
 Red. masses --      4.3678                 1.0918                 9.1152
 Frc consts  --      6.6094                 1.7813                16.1461
 IR Inten    --      7.5733                32.5697               199.0900

                     70                     71                     72
                      A                      A                      A
 Frequencies --   1820.3972              3023.8122              3044.3625
 Red. masses --     10.1637                 1.0588                 1.0682
 Frc consts  --     19.8442                 5.7038                 5.8331
 IR Inten    --    314.4425                14.6222                20.2806

                     73                     74                     75
                      A                      A                      A
 Frequencies --   3053.6408              3064.8479              3069.5597
 Red. masses --      1.0820                 1.0975                 1.0618
 Frc consts  --      5.9447                 6.0741                 5.8947
 IR Inten    --      2.6185                10.8007                10.4009

                     76                     77                     78
                      A                      A                      A
 Frequencies --   3100.0997              3110.5940              3229.8731
 Red. masses --      1.1038                 1.1035                 1.0960
 Frc consts  --      6.2503                 6.2911                 6.7367
 IR Inten    --     18.5787                 3.0072                 7.3978

                     79                     80                     81
                      A                      A                      A
 Frequencies --   3240.4214              3502.8761              3584.1834
 Red. masses --      1.0977                 1.0481                 1.0947
 Frc consts  --      6.7908                 7.5773                 8.2853
 IR Inten    --      1.2428                 1.1476                 1.5516

                     82                     83                     84
                      A                      A                      A
 Frequencies --   3642.2864              3643.1323              3746.4183
 Red. masses --      1.0786                 1.0812                 1.0644
 Frc consts  --      8.4306                 8.4549                 8.8019
 IR Inten    --     27.2425               116.4689                84.0242

 - Thermochemistry -
 -------------------
 Temperature   298.150 Kelvin.  Pressure   1.00000 Atm.
 Atom     1 has atomic number  8 and mass  15.99491

 Molecular mass:   226.10659 amu.
 Principal axes and moments of inertia in atomic units:
                           1         2         3
     Eigenvalues --  1333.098298048.370208806.80040
           X            0.99617   0.04750   0.07337
           Y           -0.08612   0.39002   0.91677
           Z           -0.01493   0.91958  -0.39262
 This molecule is an asymmetric top.
 Rotational symmetry number  1.
 Warning -- assumption of classical behavior for rotation
           may cause significant error
 Rotational temperatures (Kelvin)      0.06497     0.01076     0.00983
 Rotational constants (GHZ):           1.35379     0.22424     0.20493
 Zero-point vibrational energy     640094.4 (Joules/Mol)
                                  152.98624 (Kcal/Mol)
 Warning -- explicit consideration of  23 degrees of freedom as
           vibrations may cause significant error
 Vibrational temperatures:     30.89    40.41    60.43    83.28   103.01
          (Kelvin)            127.66   130.84   173.99   202.96   273.11
                              319.29   398.80   413.53   440.12   484.52
                              525.50   555.88   610.53   630.78   748.18
                              786.17   843.52   875.52   958.76   972.88
                              988.11  1046.40  1060.40  1102.84  1117.92
                             1150.22  1164.33  1209.81  1227.25  1310.07
                             1346.33  1390.03  1418.39  1460.07  1477.20
                             1503.08  1558.19  1577.02  1595.53  1632.60
                             1644.79  1662.16  1724.73  1788.32  1810.99
                             1832.45  1858.23  1878.79  1912.47  1921.21
                             1939.49  1980.27  1989.95  2001.76  2003.51
                             2049.90  2124.06  2138.40  2155.57  2160.16
                             2189.38  2305.77  2394.22  2494.71  2619.14
                             4350.59  4380.15  4393.50  4409.63  4416.41
                             4460.35  4475.45  4647.06  4662.24  5039.85
                             5156.83  5240.43  5241.65  5390.25

 Zero-point correction=                           0.243799 (Hartree/Particle)
 Thermal correction to Energy=                    0.260090
 Thermal correction to Enthalpy=                  0.261035
 Thermal correction to Gibbs Free Energy=         0.197132
 Sum of electronic and zero-point Energies=           -796.084390
 Sum of electronic and thermal Energies=              -796.068098
 Sum of electronic and thermal Enthalpies=            -796.067154
 Sum of electronic and thermal Free Energies=         -796.131057

                     E (Thermal)             CV                S
                      KCal/Mol        Cal/Mol-Kelvin    Cal/Mol-Kelvin
 Total                  163.209             59.073            134.495
 Electronic               0.000              0.000              0.000
 Translational            0.889              2.981             42.150
 Rotational               0.889              2.981             32.913
 Vibrational            161.432             53.111             59.432
 Vibration     1          0.593              1.985              6.494
 Vibration     2          0.593              1.984              5.960
 Vibration     3          0.595              1.980              5.162
 Vibration     4          0.596              1.974              4.528
 Vibration     5          0.598              1.968              4.109
 Vibration     6          0.602              1.957              3.688
 Vibration     7          0.602              1.956              3.640
 Vibration     8          0.609              1.932              3.085
 Vibration     9          0.615              1.912              2.789
 Vibration    10          0.633              1.854              2.230
 Vibration    11          0.648              1.808              1.943
 Vibration    12          0.678              1.716              1.551
 Vibration    13          0.685              1.697              1.489
 Vibration    14          0.696              1.663              1.384
 Vibration    15          0.717              1.602              1.227
 Vibration    16          0.738              1.544              1.100
 Vibration    17          0.755              1.499              1.014
 Vibration    18          0.786              1.417              0.877
 Vibration    19          0.799              1.386              0.832
 Vibration    20          0.875              1.206              0.610
 Vibration    21          0.902              1.148              0.552
 Vibration    22          0.943              1.061              0.474
 Vibration    23          0.967              1.014              0.435

 Optimization completed.
    -- Stationary point found.
 Normal termination of Gaussian 09 at Thu Jul 29 01:26:33 2021.
