 Gaussian 09, Revision D.01,
 Gaussian 09:  ES64L-G09RevD.01 24-Apr-2013

 ----------------------------------------------------------------------
 # B3LYP/6-311++G(d,p) opt=calcfc freq=noraman nosymm integral(ultrafin
 egrid)
 ----------------------------------------------------------------------

 ------------------------------------------------------------
 Candidate Structure: Conf:340 OPT and FREQ calc in gas phase
 ------------------------------------------------------------
 Symbolic Z-matrix:
 Charge =  0 Multiplicity = 1

 SCF Done:  E(RB3LYP) =  -796.331376928     A.U. after   15 cycles
 SCF Done:  E(RB3LYP) =  -796.333347199     A.U. after   13 cycles
 SCF Done:  E(RB3LYP) =  -796.333567578     A.U. after   13 cycles
 SCF Done:  E(RB3LYP) =  -796.333562165     A.U. after   13 cycles
 SCF Done:  E(RB3LYP) =  -796.333611853     A.U. after   12 cycles
 SCF Done:  E(RB3LYP) =  -796.333613646     A.U. after   11 cycles
 SCF Done:  E(RB3LYP) =  -796.333613930     A.U. after   10 cycles
 SCF Done:  E(RB3LYP) =  -796.333613948     A.U. after   10 cycles
 Optimization completed.
    -- Stationary point found.
 Normal termination of Gaussian 09 at Thu Jul 29 00:28:36 2021.

 ----------------------------------------------------------------------
 #N Geom=AllCheck Guess=TCheck SCRF=Check GenChk RB3LYP/6-311++G(d,p) F
 req
 ----------------------------------------------------------------------

 Structure from the checkpoint file:  "conf-340.chk"
 ------------------------------------------------------------
 Candidate Structure: Conf:340 OPT and FREQ calc in gas phase
 ------------------------------------------------------------
 Charge =  0 Multiplicity = 1

                          Input orientation:
 ---------------------------------------------------------------------
 Center     Atomic      Atomic             Coordinates (Angstroms)
 Number     Number       Type             X           Y           Z
 ---------------------------------------------------------------------
      1          8           0        0.588262   -0.957379   -0.784715
      2          6           0        1.366750   -0.179303   -0.231304
      3          7           0        0.927801    0.982067    0.322676
      4          6           0       -0.454030    1.383291    0.170590
      5          6           0       -0.577584    2.874116    0.463806
      6          8           0       -1.801015    3.397853    0.249704
      7          8           0        0.327181    3.552432    0.870675
      8          6           0       -1.443942    0.544859    1.060617
      9          6           0       -2.615116    0.049819    0.282992
     10          6           0       -3.965300    0.316005    0.314854
     11          7           0       -4.624540   -0.397376   -0.661743
     12          6           0       -3.690321   -1.084208   -1.280124
     13          7           0       -2.454622   -0.851062   -0.751192
     14          6           0        2.856817   -0.449843   -0.142428
     15          6           0        3.166760   -1.914525    0.180451
     16          7           0        4.612142   -2.145782    0.110771
     17          1           0        1.567253    1.667341    0.703791
     18          1           0       -0.736926    1.226327   -0.875473
     19          1           0       -2.425356    2.726615   -0.068914
     20          1           0       -0.876014   -0.294213    1.467260
     21          1           0       -1.791498    1.132061    1.913642
     22          1           0       -4.498416    0.957757    1.001105
     23          1           0       -3.848414   -1.759078   -2.107677
     24          1           0       -1.553780   -1.221475   -1.040334
     25          1           0        3.297065   -0.209411   -1.116198
     26          1           0        3.324322    0.213762    0.592571
     27          1           0        2.680118   -2.542811   -0.567159
     28          1           0        2.722941   -2.173072    1.154419
     29          1           0        4.823353   -3.136864    0.146833
     30          1           0        5.095985   -1.707793    0.888363
 ---------------------------------------------------------------------

 SCF Done:  E(RB3LYP) =  -796.333613948     A.U. after    1 cycles

 Alpha  occ. eigenvalues --  -19.19706 -19.14229 -19.11996 -14.37348 -14.36972
 Alpha  occ. eigenvalues --  -14.31037 -14.30266 -10.33637 -10.30364 -10.26084
 Alpha  occ. eigenvalues --  -10.23446 -10.22118 -10.21748 -10.21320 -10.19893
 Alpha  occ. eigenvalues --  -10.19691  -1.13740  -1.07196  -1.05826  -1.02799
 Alpha  occ. eigenvalues --   -0.96051  -0.90185  -0.88428  -0.82696  -0.78404
 Alpha  occ. eigenvalues --   -0.75288  -0.69818  -0.65982  -0.63872  -0.62562
 Alpha  occ. eigenvalues --   -0.61686  -0.60421  -0.57524  -0.56041  -0.52475
 Alpha  occ. eigenvalues --   -0.51528  -0.50621  -0.49546  -0.48437  -0.47320
 Alpha  occ. eigenvalues --   -0.47087  -0.45301  -0.44801  -0.43886  -0.43412
 Alpha  occ. eigenvalues --   -0.42349  -0.42006  -0.41457  -0.41040  -0.40647
 Alpha  occ. eigenvalues --   -0.37635  -0.36893  -0.35428  -0.31566  -0.29904
 Alpha  occ. eigenvalues --   -0.29494  -0.29173  -0.28159  -0.26061  -0.24518
 Alpha virt. eigenvalues --   -0.03299  -0.02342  -0.01708  -0.01373  -0.00481
 Alpha virt. eigenvalues --   -0.00202   0.00332   0.00469   0.01489   0.01820
 Alpha virt. eigenvalues --    0.02609   0.02911   0.03796   0.03935   0.04178

 Mulliken charges:
               1
     1  O   -0.346214
     2  C   -0.044361
     3  N   -0.056122
     4  C   -0.000771
     5  C   -0.262027
     6  O   -0.109482
     7  O   -0.250620
     8  C   -0.635758
     9  C    0.436599
    10  C   -0.564108
    11  N   -0.120776
    12  C    0.056636
    13  N   -0.206405
    14  C   -0.341606
    15  C   -0.401532
    16  N   -0.333062
    17  H    0.298647
    18  H    0.279724
    19  H    0.288288
    20  H    0.202545
    21  H    0.258066
    22  H    0.145654
    23  H    0.170817
    24  H    0.397809
    25  H    0.232772
    26  H    0.133467
    27  H    0.190788
    28  H    0.137254
    29  H    0.237629
    30  H    0.206149
 Sum of Mulliken charges =   0.00000

 Dipole moment (field-independent basis, Debye):
    X=              3.4538    Y=             -2.4071    Z=              1.2723  Tot=              4.3980
 Quadrupole moment (field-independent basis, Debye-Ang):
   XX=           -111.5942   YY=           -107.2852   ZZ=            -92.9199
   XY=             -5.2464   XZ=              4.5675   YZ=             -3.8792

  Exact polarizability: 181.691  -3.498 142.801   9.429  18.467 115.074
 Approx polarizability: 238.625   5.014 204.978  14.593  33.758 183.536

                      1                      2                      3
                      A                      A                      A
 Frequencies --     28.0418                33.9758                60.7100
 Red. masses --      3.6676                 5.6561                 3.0701
 Frc consts  --      0.0017                 0.0038                 0.0067
 IR Inten    --      1.0211                 2.6892                 3.8628

                      4                      5                      6
                      A                      A                      A
 Frequencies --     72.8225                81.7408                88.1764
 Red. masses --      4.2861                 5.7752                 3.9498
 Frc consts  --      0.0134                 0.0227                 0.0181
 IR Inten    --      3.3661                 1.6980                 3.5558

                      7                      8                      9
                      A                      A                      A
 Frequencies --     99.6590               113.2739               165.8022
 Red. masses --      6.0979                 5.4229                 4.4495
 Frc consts  --      0.0357                 0.0410                 0.0721
 IR Inten    --      8.2170                 6.7759                 7.6603

                     10                     11                     12
                      A                      A                      A
 Frequencies --    189.3190               205.3813               244.2560
 Red. masses --      5.3292                 3.4173                 1.2925
 Frc consts  --      0.1125                 0.0849                 0.0454
 IR Inten    --      7.7114                 8.9549                45.8627

                     13                     14                     15
                      A                      A                      A
 Frequencies --    272.9043               313.9241               334.9083
 Red. masses --      4.7942                 4.9165                 2.6220
 Frc consts  --      0.2104                 0.2855                 0.1733
 IR Inten    --      3.6992                 2.3893                 7.4066

                     16                     17                     18
                      A                      A                      A
 Frequencies --    353.6855               394.1922               413.1933
 Red. masses --      5.7414                 3.9277                 3.8942
 Frc consts  --      0.4232                 0.3596                 0.3917
 IR Inten    --      8.8625                 7.1573                10.0288

                     19                     20                     21
                      A                      A                      A
 Frequencies --    530.6105               544.7323               571.5542
 Red. masses --      1.5546                 1.9606                 1.3064
 Frc consts  --      0.2579                 0.3428                 0.2514
 IR Inten    --     55.5812                 9.5244                99.7308

                     22                     23                     24
                      A                      A                      A
 Frequencies --    627.1766               643.7688               658.8117
 Red. masses --      3.8194                 3.8366                 2.9673
 Frc consts  --      0.8852                 0.9368                 0.7588
 IR Inten    --     25.7738                 5.7588                12.7819

                     25                     26                     27
                      A                      A                      A
 Frequencies --    676.0857               711.3776               746.1312
 Red. masses --      3.7829                 3.8817                 1.3582
 Frc consts  --      1.0188                 1.1574                 0.4455
 IR Inten    --     20.7103                 4.0263                52.1884

                     28                     29                     30
                      A                      A                      A
 Frequencies --    753.5970               770.7433               800.8546
 Red. masses --      2.3746                 4.0913                 1.3892
 Frc consts  --      0.7945                 1.4320                 0.5250
 IR Inten    --     18.6908                 3.2739                32.6391

                     31                     32                     33
                      A                      A                      A
 Frequencies --    829.5958               830.1248               844.9404
 Red. masses --      1.3500                 1.3978                 1.4012
 Frc consts  --      0.5474                 0.5675                 0.5894
 IR Inten    --     77.6849                46.5019                15.1243

                     34                     35                     36
                      A                      A                      A
 Frequencies --    862.5138               937.5544               945.5214
 Red. masses --      2.5866                 5.5964                 2.8981
 Frc consts  --      1.1337                 2.8983                 1.5265
 IR Inten    --     14.1902                 8.6816                11.6443

                     37                     38                     39
                      A                      A                      A
 Frequencies --    979.7027               981.3368              1018.5218
 Red. masses --      2.4440                 4.2979                 3.5562
 Frc consts  --      1.3821                 2.4386                 2.1736
 IR Inten    --      4.4018                 1.1048                13.8692

                     40                     41                     42
                      A                      A                      A
 Frequencies --   1028.2646              1061.1019              1090.2772
 Red. masses --      3.2750                 2.8384                 2.2887
 Frc consts  --      2.0402                 1.8829                 1.6029
 IR Inten    --      3.3736                19.5684                28.3338

                     43                     44                     45
                      A                      A                      A
 Frequencies --   1115.8189              1125.6221              1141.7546
 Red. masses --      1.6929                 2.1115                 2.0980
 Frc consts  --      1.2419                 1.5763                 1.6114
 IR Inten    --     43.2555                11.6640                 8.1426

                     46                     47                     48
                      A                      A                      A
 Frequencies --   1161.7844              1186.8583              1196.6586
 Red. masses --      1.5416                 2.0498                 1.5215
 Frc consts  --      1.2259                 1.7012                 1.2837
 IR Inten    --     12.0191                20.1012                 8.0606

                     49                     50                     51
                      A                      A                      A
 Frequencies --   1228.5652              1256.3085              1261.7381
 Red. masses --      1.5340                 2.2893                 1.3870
 Frc consts  --      1.3642                 2.1288                 1.3010
 IR Inten    --     42.6962                27.7572                 4.4493

                     52                     53                     54
                      A                      A                      A
 Frequencies --   1276.1431              1292.8641              1331.9517
 Red. masses --      1.3461                 1.3826                 1.3416
 Frc consts  --      1.2916                 1.3616                 1.4023
 IR Inten    --      8.1473                84.3495                37.6914

                     55                     56                     57
                      A                      A                      A
 Frequencies --   1335.8992              1342.9724              1367.1326
 Red. masses --      1.1474                 1.6894                 1.4154
 Frc consts  --      1.2065                 1.7952                 1.5587
 IR Inten    --     70.7435               136.1572                 2.3201

                     58                     59                     60
                      A                      A                      A
 Frequencies --   1382.0110              1406.4945              1423.4458
 Red. masses --      3.2961                 1.6887                 1.4826
 Frc consts  --      3.7091                 1.9682                 1.7700
 IR Inten    --      6.1362                54.0358                49.1586

                     61                     62                     63
                      A                      A                      A
 Frequencies --   1433.6581              1471.1067              1486.8672
 Red. masses --      2.5340                 1.0991                 1.1341
 Frc consts  --      3.0686                 1.4014                 1.4772
 IR Inten    --     70.7863                10.3193                12.9428

                     64                     65                     66
                      A                      A                      A
 Frequencies --   1501.3926              1517.1079              1520.9747
 Red. masses --      3.3866                 1.0844                 2.4349
 Frc consts  --      4.4978                 1.4705                 3.3188
 IR Inten    --     48.4878                 1.4188               288.3095

                     67                     68                     69
                      A                      A                      A
 Frequencies --   1606.0082              1664.4488              1696.7537
 Red. masses --      4.3357                 1.0945                 8.2467
 Frc consts  --      6.5888                 1.7865                13.9883
 IR Inten    --     12.9941                27.0508               225.4938

                     70                     71                     72
                      A                      A                      A
 Frequencies --   1832.1964              2954.5984              3028.9770
 Red. masses --     10.0716                 1.0739                 1.0595
 Frc consts  --     19.9201                 5.5237                 5.7274
 IR Inten    --    338.0070                66.8839                13.9460

                     73                     74                     75
                      A                      A                      A
 Frequencies --   3034.5834              3058.0102              3066.2687
 Red. masses --      1.0820                 1.0609                 1.0993
 Frc consts  --      5.8705                 5.8453                 6.0896
 IR Inten    --      9.0533                15.7573                 6.8261

                     76                     77                     78
                      A                      A                      A
 Frequencies --   3095.4308              3096.6516              3226.4704
 Red. masses --      1.0916                 1.1047                 1.0964
 Frc consts  --      6.1625                 6.2416                 6.7245
 IR Inten    --     15.9488                 8.2834                 4.9996

                     79                     80                     81
                      A                      A                      A
 Frequencies --   3243.3748              3503.7612              3536.8301
 Red. masses --      1.0977                 1.0498                 1.0839
 Frc consts  --      6.8033                 7.5934                 7.9886
 IR Inten    --      1.0797                 0.3341               238.4148

                     82                     83                     84
                      A                      A                      A
 Frequencies --   3583.2058              3588.4694              3708.7598
 Red. masses --      1.0932                 1.0783                 1.0672
 Frc consts  --      8.2701                 8.1811                 8.6487
 IR Inten    --      2.3241                83.4251               169.3710

 - Thermochemistry -
 -------------------
 Temperature   298.150 Kelvin.  Pressure   1.00000 Atm.
 Atom     1 has atomic number  8 and mass  15.99491

 Molecular mass:   226.10659 amu.
 Principal axes and moments of inertia in atomic units:
                           1         2         3
     Eigenvalues --  2560.308006030.178488206.83328
           X            0.96322   0.25003  -0.09843
           Y           -0.26683   0.93320  -0.24069
           Z            0.03168   0.25810   0.96560
 This molecule is an asymmetric top.
 Rotational symmetry number  1.
 Warning -- assumption of classical behavior for rotation
           may cause significant error
 Rotational temperatures (Kelvin)      0.03383     0.01436     0.01055
 Rotational constants (GHZ):           0.70489     0.29928     0.21991
 Zero-point vibrational energy     641203.1 (Joules/Mol)
                                  153.25123 (Kcal/Mol)
 Warning -- explicit consideration of  21 degrees of freedom as
           vibrations may cause significant error
 Vibrational temperatures:     40.35    48.88    87.35   104.78   117.61
          (Kelvin)            126.87   143.39   162.98   238.55   272.39
                              295.50   351.43   392.65   451.67   481.86
                              508.87   567.15   594.49   763.43   783.75
                              822.34   902.37   926.24   947.88   972.74
                             1023.51  1073.51  1084.26  1108.93  1152.25
                             1193.60  1194.36  1215.68  1240.96  1348.93
                             1360.39  1409.57  1411.92  1465.42  1479.44
                             1526.69  1568.66  1605.41  1619.52  1642.73
                             1671.55  1707.62  1721.72  1767.63  1807.55
                             1815.36  1836.08  1860.14  1916.38  1922.06
                             1932.24  1967.00  1988.40  2023.63  2048.02
                             2062.71  2116.59  2139.27  2160.17  2182.78
                             2188.34  2310.68  2394.77  2441.25  2636.12
                             4251.00  4358.02  4366.08  4399.79  4411.67
                             4453.63  4455.39  4642.17  4666.49  5041.12
                             5088.70  5155.43  5163.00  5336.07

 Zero-point correction=                           0.244221 (Hartree/Particle)
 Thermal correction to Energy=                    0.260243
 Thermal correction to Enthalpy=                  0.261187
 Thermal correction to Gibbs Free Energy=         0.198507
 Sum of electronic and zero-point Energies=           -796.089393
 Sum of electronic and thermal Energies=              -796.073371
 Sum of electronic and thermal Enthalpies=            -796.072427
 Sum of electronic and thermal Free Energies=         -796.135107

                     E (Thermal)             CV                S
                      KCal/Mol        Cal/Mol-Kelvin    Cal/Mol-Kelvin
 Total                  163.305             58.291            131.921
 Electronic               0.000              0.000              0.000
 Translational            0.889              2.981             42.150
 Rotational               0.889              2.981             33.205
 Vibrational            161.527             52.330             56.567
 Vibration     1          0.593              1.984              5.963
 Vibration     2          0.594              1.983              5.583
 Vibration     3          0.597              1.973              4.434
 Vibration     4          0.599              1.967              4.076
 Vibration     5          0.600              1.962              3.849
 Vibration     6          0.601              1.957              3.700
 Vibration     7          0.604              1.949              3.461
 Vibration     8          0.607              1.938              3.212
 Vibration     9          0.624              1.885              2.483
 Vibration    10          0.633              1.855              2.234
 Vibration    11          0.640              1.832              2.084
 Vibration    12          0.660              1.772              1.772
 Vibration    13          0.676              1.723              1.578
 Vibration    14          0.702              1.647              1.342
 Vibration    15          0.716              1.606              1.236
 Vibration    16          0.730              1.568              1.150
 Vibration    17          0.761              1.483              0.984
 Vibration    18          0.777              1.442              0.915
 Vibration    19          0.886              1.182              0.586
 Vibration    20          0.900              1.151              0.555
 Vibration    21          0.928              1.093              0.501

 Optimization completed.
    -- Stationary point found.
 Normal termination of Gaussian 09 at Thu Jul 29 01:39:23 2021.
