 Gaussian 09, Revision D.01,
 Gaussian 09:  ES64L-G09RevD.01 24-Apr-2013

 ----------------------------------------------------------------------
 # B3LYP/6-311++G(d,p) opt=calcfc freq=noraman nosymm integral(ultrafin
 egrid)
 ----------------------------------------------------------------------

 ------------------------------------------------------------
 Candidate Structure: Conf:591 OPT and FREQ calc in gas phase
 ------------------------------------------------------------
 Symbolic Z-matrix:
 Charge =  0 Multiplicity = 1

 SCF Done:  E(RB3LYP) =  -796.330974767     A.U. after   16 cycles
 SCF Done:  E(RB3LYP) =  -796.333213314     A.U. after   14 cycles
 SCF Done:  E(RB3LYP) =  -796.333199405     A.U. after   14 cycles
 SCF Done:  E(RB3LYP) =  -796.333470173     A.U. after   14 cycles
 SCF Done:  E(RB3LYP) =  -796.333782198     A.U. after   14 cycles
 SCF Done:  E(RB3LYP) =  -796.333852702     A.U. after   13 cycles
 SCF Done:  E(RB3LYP) =  -796.333956086     A.U. after   13 cycles
 SCF Done:  E(RB3LYP) =  -796.336033103     A.U. after   16 cycles
 SCF Done:  E(RB3LYP) =  -796.299069151     A.U. after   14 cycles
 SCF Done:  E(RB3LYP) =  -796.336328917     A.U. after   11 cycles
 SCF Done:  E(RB3LYP) =  -796.337519356     A.U. after   10 cycles
 SCF Done:  E(RB3LYP) =  -796.337890088     A.U. after   13 cycles
 SCF Done:  E(RB3LYP) =  -796.338157478     A.U. after   13 cycles
 SCF Done:  E(RB3LYP) =  -796.338246983     A.U. after   12 cycles
 SCF Done:  E(RB3LYP) =  -796.338281376     A.U. after   12 cycles
 SCF Done:  E(RB3LYP) =  -796.338304497     A.U. after   12 cycles
 SCF Done:  E(RB3LYP) =  -796.338323020     A.U. after   12 cycles
 SCF Done:  E(RB3LYP) =  -796.338329546     A.U. after   11 cycles
 SCF Done:  E(RB3LYP) =  -796.338329741     A.U. after    9 cycles
 Optimization completed.
    -- Stationary point found.
 Normal termination of Gaussian 09 at Thu Jul 29 02:25:49 2021.

 ----------------------------------------------------------------------
 #N Geom=AllCheck Guess=TCheck SCRF=Check GenChk RB3LYP/6-311++G(d,p) F
 req
 ----------------------------------------------------------------------

 Structure from the checkpoint file:  "conf-591.chk"
 ------------------------------------------------------------
 Candidate Structure: Conf:591 OPT and FREQ calc in gas phase
 ------------------------------------------------------------
 Charge =  0 Multiplicity = 1

                          Input orientation:
 ---------------------------------------------------------------------
 Center     Atomic      Atomic             Coordinates (Angstroms)
 Number     Number       Type             X           Y           Z
 ---------------------------------------------------------------------
      1          8           0       -0.831451    0.223615   -1.011332
      2          6           0       -1.273637    0.079294    0.129137
      3          7           0       -0.480331   -0.266135    1.173684
      4          6           0        0.941351   -0.533762    1.033841
      5          6           0        1.378420   -1.293382    2.274470
      6          8           0        2.620247   -1.788926    2.138786
      7          8           0        0.712664   -1.425877    3.273157
      8          6           0        1.814483    0.766143    0.837281
      9          6           0        2.551388    0.827437   -0.458313
     10          6           0        3.887299    0.955675   -0.758473
     11          7           0        4.080722    0.989829   -2.119963
     12          6           0        2.878020    0.878867   -2.641505
     13          7           0        1.914809    0.781953   -1.682109
     14          6           0       -2.743305    0.284302    0.446910
     15          6           0       -3.652643   -0.546824   -0.469090
     16          7           0       -5.057873   -0.273414   -0.149607
     17          1           0       -0.878217   -0.420220    2.090796
     18          1           0        1.099548   -1.184378    0.170467
     19          1           0        2.855541   -2.234214    2.967339
     20          1           0        2.545184    0.852001    1.643552
     21          1           0        1.133230    1.616162    0.940327
     22          1           0        4.714705    1.026979   -0.068411
     23          1           0        2.647824    0.862316   -3.696060
     24          1           0        0.912167    0.645363   -1.791178
     25          1           0       -2.969907    0.055060    1.490961
     26          1           0       -2.956231    1.348591    0.292990
     27          1           0       -3.470080   -1.610196   -0.286125
     28          1           0       -3.379592   -0.345603   -1.512055
     29          1           0       -5.669841   -0.928400   -0.624117
     30          1           0       -5.324474    0.657879   -0.454718
 ---------------------------------------------------------------------

 SCF Done:  E(RB3LYP) =  -796.338329741     A.U. after    1 cycles

 Alpha  occ. eigenvalues --  -19.20584 -19.15283 -19.11600 -14.36724 -14.35336
 Alpha  occ. eigenvalues --  -14.30891 -14.28487 -10.34299 -10.30079 -10.25763
 Alpha  occ. eigenvalues --  -10.21579 -10.21242 -10.20815 -10.20143 -10.19660
 Alpha  occ. eigenvalues --  -10.17638  -1.15066  -1.06868  -1.06151  -1.00898
 Alpha  occ. eigenvalues --   -0.95817  -0.90038  -0.86570  -0.82090  -0.77741
 Alpha  occ. eigenvalues --   -0.75044  -0.69174  -0.66702  -0.62802  -0.61470
 Alpha  occ. eigenvalues --   -0.60554  -0.58547  -0.55062  -0.54745  -0.52721
 Alpha  occ. eigenvalues --   -0.51109  -0.50900  -0.49773  -0.49088  -0.47156
 Alpha  occ. eigenvalues --   -0.46414  -0.45500  -0.44233  -0.43629  -0.42474
 Alpha  occ. eigenvalues --   -0.41586  -0.40592  -0.40335  -0.40038  -0.39553
 Alpha  occ. eigenvalues --   -0.38722  -0.36397  -0.36234  -0.32367  -0.29562
 Alpha  occ. eigenvalues --   -0.29112  -0.27662  -0.26498  -0.25695  -0.22490
 Alpha virt. eigenvalues --   -0.03786  -0.02497  -0.01792  -0.01103  -0.00267
 Alpha virt. eigenvalues --    0.00267   0.00675   0.01382   0.01638   0.02657
 Alpha virt. eigenvalues --    0.02768   0.03224   0.03420   0.04519   0.04815

 Mulliken charges:
               1
     1  O   -0.352080
     2  C    0.052047
     3  N   -0.018435
     4  C   -0.393999
     5  C   -0.007268
     6  O   -0.104676
     7  O   -0.269015
     8  C   -0.477489
     9  C    0.382109
    10  C   -0.453806
    11  N   -0.143476
    12  C    0.017019
    13  N   -0.258699
    14  C   -0.323283
    15  C   -0.451026
    16  N   -0.340700
    17  H    0.281625
    18  H    0.292485
    19  H    0.298711
    20  H    0.228788
    21  H    0.205967
    22  H    0.127320
    23  H    0.156635
    24  H    0.425721
    25  H    0.168347
    26  H    0.182270
    27  H    0.155598
    28  H    0.170944
    29  H    0.236282
    30  H    0.212084
 Sum of Mulliken charges =   0.00000

 Dipole moment (field-independent basis, Debye):
    X=             -3.8062    Y=             -1.1945    Z=              2.3326  Tot=              4.6211
 Quadrupole moment (field-independent basis, Debye-Ang):
   XX=           -106.4558   YY=            -93.0333   ZZ=            -98.6033
   XY=             -8.3750   XZ=             23.5250   YZ=              1.9582

  Exact polarizability: 178.381   2.787 107.397  -7.722 -13.596 156.739
 Approx polarizability: 229.314  -0.065 158.625 -11.671 -11.503 237.400

                      1                      2                      3
                      A                      A                      A
 Frequencies --     24.9077                39.8981                54.8070
 Red. masses --      3.4962                 5.6552                 4.6916
 Frc consts  --      0.0013                 0.0053                 0.0083
 IR Inten    --      1.1302                 1.5048                 1.5521

                      4                      5                      6
                      A                      A                      A
 Frequencies --     59.5048                74.7900                81.6054
 Red. masses --      7.6644                 2.5971                 4.2679
 Frc consts  --      0.0160                 0.0086                 0.0167
 IR Inten    --      1.0698                 1.9120                 0.9031

                      7                      8                      9
                      A                      A                      A
 Frequencies --     93.3472               128.9899               138.1751
 Red. masses --      6.5738                 5.6959                 4.2464
 Frc consts  --      0.0337                 0.0558                 0.0478
 IR Inten    --      8.7983                 3.6402                 9.1392

                     10                     11                     12
                      A                      A                      A
 Frequencies --    188.6628               225.3496               237.0640
 Red. masses --      4.9047                 2.1480                 1.8194
 Frc consts  --      0.1029                 0.0643                 0.0602
 IR Inten    --      1.8837                 7.4620                48.0828

                     13                     14                     15
                      A                      A                      A
 Frequencies --    280.2624               290.3777               313.7022
 Red. masses --      3.4942                 3.2405                 3.7032
 Frc consts  --      0.1617                 0.1610                 0.2147
 IR Inten    --     11.4994                 5.1997                 3.9847

                     16                     17                     18
                      A                      A                      A
 Frequencies --    353.3958               392.2902               424.8326
 Red. masses --      6.5776                 4.2152                 3.4789
 Frc consts  --      0.4840                 0.3822                 0.3699
 IR Inten    --      0.5679                 6.0601                 3.8024

                     19                     20                     21
                      A                      A                      A
 Frequencies --    532.6884               565.2863               591.3476
 Red. masses --      2.5632                 1.4658                 1.4157
 Frc consts  --      0.4285                 0.2760                 0.2917
 IR Inten    --     64.1089                35.6192                84.6219

                     22                     23                     24
                      A                      A                      A
 Frequencies --    631.7254               642.7196               650.8795
 Red. masses --      3.8611                 3.8525                 2.3108
 Frc consts  --      0.9079                 0.9376                 0.5768
 IR Inten    --     23.8186                 6.2487                 6.7960

                     25                     26                     27
                      A                      A                      A
 Frequencies --    671.6013               715.4047               754.7498
 Red. masses --      3.4916                 3.4781                 5.0567
 Frc consts  --      0.9279                 1.0488                 1.6972
 IR Inten    --     50.4895                19.6871                11.8672

                     28                     29                     30
                      A                      A                      A
 Frequencies --    775.2892               779.1828               796.3463
 Red. masses --      1.2428                 2.5607                 1.2976
 Frc consts  --      0.4401                 0.9160                 0.4848
 IR Inten    --     46.0769                10.6389                24.1893

                     31                     32                     33
                      A                      A                      A
 Frequencies --    817.3007               835.3423               840.6246
 Red. masses --      1.4201                 1.3349                 1.3846
 Frc consts  --      0.5589                 0.5488                 0.5765
 IR Inten    --     25.9332               118.8026                24.5038

                     34                     35                     36
                      A                      A                      A
 Frequencies --    864.8723               939.0636               941.9473
 Red. masses --      2.4271                 5.8001                 3.7053
 Frc consts  --      1.0696                 3.0136                 1.9370
 IR Inten    --     18.9705                13.0328                 8.6148

                     37                     38                     39
                      A                      A                      A
 Frequencies --    972.9589               982.6000              1022.0587
 Red. masses --      3.1888                 2.5862                 3.5144
 Frc consts  --      1.7786                 1.4712                 2.1630
 IR Inten    --      2.4555                 3.5717                 4.8776

                     40                     41                     42
                      A                      A                      A
 Frequencies --   1023.1785              1046.9801              1081.5003
 Red. masses --      3.5541                 2.2989                 2.7869
 Frc consts  --      2.1922                 1.4847                 1.9205
 IR Inten    --     20.8137                 2.5617                54.3713

                     43                     44                     45
                      A                      A                      A
 Frequencies --   1125.3140              1129.1181              1146.0252
 Red. masses --      2.8985                 1.8485                 1.9626
 Frc consts  --      2.1625                 1.3885                 1.5187
 IR Inten    --     38.1087                49.3391                 4.3594

                     46                     47                     48
                      A                      A                      A
 Frequencies --   1155.7501              1176.9108              1209.5389
 Red. masses --      1.3560                 2.5459                 1.2837
 Frc consts  --      1.0672                 2.0777                 1.1065
 IR Inten    --     40.5255               170.5014                 8.0039

                     49                     50                     51
                      A                      A                      A
 Frequencies --   1233.4879              1262.4269              1273.1699
 Red. masses --      1.5526                 2.3234                 1.3739
 Frc consts  --      1.3918                 2.1817                 1.3121
 IR Inten    --     26.2122                 6.8298                12.8878

                     52                     53                     54
                      A                      A                      A
 Frequencies --   1286.4542              1298.4488              1314.4940
 Red. masses --      1.2979                 1.3359                 1.2303
 Frc consts  --      1.2656                 1.3270                 1.2525
 IR Inten    --      9.4518                 4.5176                 1.0595

                     55                     56                     57
                      A                      A                      A
 Frequencies --   1326.9702              1354.8337              1360.8865
 Red. masses --      1.3541                 1.4563                 1.4068
 Frc consts  --      1.4048                 1.5750                 1.5350
 IR Inten    --      4.2479                42.0596                 2.4949

                     58                     59                     60
                      A                      A                      A
 Frequencies --   1385.3385              1408.6054              1421.7943
 Red. masses --      3.7767                 2.2828                 1.4089
 Frc consts  --      4.2705                 2.6687                 1.6780
 IR Inten    --     18.2587                99.9324                43.1510

                     61                     62                     63
                      A                      A                      A
 Frequencies --   1441.1030              1477.2957              1479.4226
 Red. masses --      2.4102                 1.1384                 1.1198
 Frc consts  --      2.9491                 1.4638                 1.4440
 IR Inten    --     74.9701                14.0097                10.9617

                     64                     65                     66
                      A                      A                      A
 Frequencies --   1499.8867              1520.2991              1537.0808
 Red. masses --      3.2963                 1.0856                 2.3197
 Frc consts  --      4.3692                 1.4783                 3.2291
 IR Inten    --     29.8815                 2.6408               317.0504

                     67                     68                     69
                      A                      A                      A
 Frequencies --   1607.0211              1661.5223              1702.7030
 Red. masses --      4.1303                 1.0902                 8.2311
 Frc consts  --      6.2846                 1.7732                14.0600
 IR Inten    --     16.4227                33.7949               253.7396

                     70                     71                     72
                      A                      A                      A
 Frequencies --   1800.0567              3004.7763              3027.8511
 Red. masses --      9.6563                 1.0643                 1.0665
 Frc consts  --     18.4346                 5.6617                 5.7609
 IR Inten    --    329.8672                29.0205                 8.1670

                     73                     74                     75
                      A                      A                      A
 Frequencies --   3038.4949              3053.2289              3069.5309
 Red. masses --      1.0659                 1.0935                 1.0840
 Frc consts  --      5.7978                 6.0058                 6.0179
 IR Inten    --     18.8074                19.2162                 8.1031

                     76                     77                     78
                      A                      A                      A
 Frequencies --   3086.7636              3092.9609              3230.6529
 Red. masses --      1.1016                 1.0974                 1.0961
 Frc consts  --      6.1840                 6.1854                 6.7401
 IR Inten    --     23.4910                 9.5826                 7.8835

                     79                     80                     81
                      A                      A                      A
 Frequencies --   3241.0369              3494.7040              3499.2543
 Red. masses --      1.0976                 1.0849                 1.0500
 Frc consts  --      6.7928                 7.8067                 7.5749
 IR Inten    --      1.1775               425.8707                 0.1391

                     82                     83                     84
                      A                      A                      A
 Frequencies --   3579.4735              3589.2455              3754.8941
 Red. masses --      1.0930                 1.0780                 1.0646
 Frc consts  --      8.2511                 8.1824                 8.8434
 IR Inten    --      2.2948                82.3152                99.5636

 - Thermochemistry -
 -------------------
 Temperature   298.150 Kelvin.  Pressure   1.00000 Atm.
 Atom     1 has atomic number  8 and mass  15.99491

 Molecular mass:   226.10659 amu.
 Principal axes and moments of inertia in atomic units:
                           1         2         3
     Eigenvalues --  2715.229755924.044058246.57106
           X            0.98541   0.16467  -0.04305
           Y            0.10990  -0.42245   0.89970
           Z           -0.12996   0.89130   0.43439
 This molecule is an asymmetric top.
 Rotational symmetry number  1.
 Warning -- assumption of classical behavior for rotation
           may cause significant error
 Rotational temperatures (Kelvin)      0.03190     0.01462     0.01050
 Rotational constants (GHZ):           0.66467     0.30465     0.21885
 Zero-point vibrational energy     641416.3 (Joules/Mol)
                                  153.30218 (Kcal/Mol)
 Warning -- explicit consideration of  21 degrees of freedom as
           vibrations may cause significant error
 Vibrational temperatures:     35.84    57.40    78.85    85.61   107.61
          (Kelvin)            117.41   134.31   185.59   198.80   271.44
                              324.23   341.08   403.23   417.79   451.35
                              508.46   564.42   611.24   766.42   813.32
                              850.82   908.91   924.73   936.47   966.28
                             1029.31  1085.92  1115.47  1121.07  1145.76
                             1175.91  1201.87  1209.47  1244.36  1351.10
                             1355.25  1399.87  1413.74  1470.51  1472.12
                             1506.37  1556.04  1619.07  1624.55  1648.87
                             1662.86  1693.31  1740.25  1774.71  1816.35
                             1831.81  1850.92  1868.18  1891.26  1909.21
                             1949.30  1958.01  1993.19  2026.67  2045.64
                             2073.42  2125.50  2128.56  2158.00  2187.37
                             2211.51  2312.14  2390.56  2449.81  2589.88
                             4323.20  4356.40  4371.71  4392.91  4416.36
                             4441.16  4450.08  4648.18  4663.12  5028.09
                             5034.64  5150.06  5164.12  5402.45

 Zero-point correction=                           0.244303 (Hartree/Particle)
 Thermal correction to Energy=                    0.260401
 Thermal correction to Enthalpy=                  0.261345
 Thermal correction to Gibbs Free Energy=         0.198160
 Sum of electronic and zero-point Energies=           -796.094027
 Sum of electronic and thermal Energies=              -796.077929
 Sum of electronic and thermal Enthalpies=            -796.076984
 Sum of electronic and thermal Free Energies=         -796.140170

                     E (Thermal)             CV                S
                      KCal/Mol        Cal/Mol-Kelvin    Cal/Mol-Kelvin
 Total                  163.404             58.241            132.985
 Electronic               0.000              0.000              0.000
 Translational            0.889              2.981             42.150
 Rotational               0.889              2.981             33.250
 Vibrational            161.627             52.279             57.585
 Vibration     1          0.593              1.985              6.199
 Vibration     2          0.594              1.981              5.264
 Vibration     3          0.596              1.976              4.636
 Vibration     4          0.597              1.974              4.474
 Vibration     5          0.599              1.966              4.023
 Vibration     6          0.600              1.962              3.852
 Vibration     7          0.602              1.954              3.589
 Vibration     8          0.611              1.924              2.961
 Vibration     9          0.614              1.915              2.829
 Vibration    10          0.633              1.855              2.241
 Vibration    11          0.650              1.802              1.916
 Vibration    12          0.656              1.784              1.825
 Vibration    13          0.680              1.710              1.532
 Vibration    14          0.686              1.692              1.472
 Vibration    15          0.702              1.648              1.343
 Vibration    16          0.730              1.568              1.151
 Vibration    17          0.760              1.487              0.991
 Vibration    18          0.787              1.416              0.876
 Vibration    19          0.888              1.178              0.581
 Vibration    20          0.921              1.106              0.513
 Vibration    21          0.949              1.050              0.465

 Optimization completed.
    -- Stationary point found.
 Normal termination of Gaussian 09 at Thu Jul 29 03:33:46 2021.
