 Gaussian 09, Revision D.01,
 Gaussian 09:  ES64L-G09RevD.01 24-Apr-2013

 ----------------------------------------------------------------------
 # B3LYP/6-311++G(d,p) opt=calcfc freq=noraman nosymm integral(ultrafin
 egrid)
 ----------------------------------------------------------------------

 ------------------------------------------------------------
 Candidate Structure: Conf:118 OPT and FREQ calc in gas phase
 ------------------------------------------------------------
 Symbolic Z-matrix:
 Charge =  0 Multiplicity = 1

 SCF Done:  E(RB3LYP) =  -796.338200277     A.U. after   15 cycles
 SCF Done:  E(RB3LYP) =  -796.340649782     A.U. after   15 cycles
 SCF Done:  E(RB3LYP) =  -796.341285818     A.U. after   14 cycles
 SCF Done:  E(RB3LYP) =  -796.341626742     A.U. after   12 cycles
 SCF Done:  E(RB3LYP) =  -796.341734360     A.U. after   12 cycles
 SCF Done:  E(RB3LYP) =  -796.341739872     A.U. after   11 cycles
 SCF Done:  E(RB3LYP) =  -796.341743767     A.U. after   11 cycles
 SCF Done:  E(RB3LYP) =  -796.341748281     A.U. after   11 cycles
 SCF Done:  E(RB3LYP) =  -796.341748291     A.U. after    8 cycles
 Optimization completed.
    -- Stationary point found.
 Normal termination of Gaussian 09 at Thu Jul 29 00:16:56 2021.

 ----------------------------------------------------------------------
 #N Geom=AllCheck Guess=TCheck SCRF=Check GenChk RB3LYP/6-311++G(d,p) F
 req
 ----------------------------------------------------------------------

 Structure from the checkpoint file:  "conf-118.chk"
 ------------------------------------------------------------
 Candidate Structure: Conf:118 OPT and FREQ calc in gas phase
 ------------------------------------------------------------
 Charge =  0 Multiplicity = 1

                          Input orientation:
 ---------------------------------------------------------------------
 Center     Atomic      Atomic             Coordinates (Angstroms)
 Number     Number       Type             X           Y           Z
 ---------------------------------------------------------------------
      1          8           0       -1.010756   -1.907786    1.775430
      2          6           0       -1.044696   -1.270107    0.715283
      3          7           0        0.065671   -0.674065    0.219212
      4          6           0        1.401218   -0.856179    0.792745
      5          6           0        1.578472   -0.058340    2.109996
      6          8           0        0.761413   -0.409628    3.096501
      7          8           0        2.416820    0.802080    2.252693
      8          6           0        2.476402   -0.520652   -0.261203
      9          6           0        2.303664    0.795171   -0.951888
     10          6           0        1.940782    1.109204   -2.243270
     11          7           0        1.911801    2.472400   -2.427567
     12          6           0        2.252017    2.983857   -1.265065
     13          7           0        2.502010    2.015568   -0.338972
     14          6           0       -2.327826   -1.107896   -0.069344
     15          6           0       -3.449461   -0.463627    0.783446
     16          7           0       -4.744265   -0.343218    0.127382
     17          1           0        0.003245   -0.087578   -0.603847
     18          1           0        1.496031   -1.913743    1.064003
     19          1           0        0.115021   -1.096389    2.787971
     20          1           0        2.453259   -1.304420   -1.022459
     21          1           0        3.451804   -0.576910    0.228392
     22          1           0        1.726803    0.426444   -3.052811
     23          1           0        2.332089    4.036172   -1.038166
     24          1           0        2.731305    2.118516    0.642780
     25          1           0       -2.643547   -2.111325   -0.373971
     26          1           0       -2.162347   -0.523975   -0.980141
     27          1           0       -3.573384   -1.051894    1.694513
     28          1           0       -3.133897    0.536544    1.095916
     29          1           0       -4.701120    0.228523   -0.709167
     30          1           0       -5.128434   -1.246740   -0.126904
 ---------------------------------------------------------------------

 SCF Done:  E(RB3LYP) =  -796.341748291     A.U. after    1 cycles

 Alpha  occ. eigenvalues --  -19.17373 -19.13210 -19.13193 -14.38283 -14.37436
 Alpha  occ. eigenvalues --  -14.31264 -14.30367 -10.32656 -10.31387 -10.26276
 Alpha  occ. eigenvalues --  -10.23466 -10.22164 -10.21809 -10.21758 -10.20691
 Alpha  occ. eigenvalues --  -10.19706  -1.12427  -1.08230  -1.04215  -1.02851
 Alpha  occ. eigenvalues --   -0.97012  -0.90554  -0.88430  -0.82997  -0.78616
 Alpha  occ. eigenvalues --   -0.75494  -0.69341  -0.66285  -0.63340  -0.62921
 Alpha  occ. eigenvalues --   -0.61893  -0.60594  -0.57274  -0.56164  -0.53436
 Alpha  occ. eigenvalues --   -0.52239  -0.51697  -0.48710  -0.47544  -0.47138
 Alpha  occ. eigenvalues --   -0.46411  -0.45825  -0.45013  -0.44326  -0.43484
 Alpha  occ. eigenvalues --   -0.42466  -0.42351  -0.41889  -0.40764  -0.39903
 Alpha  occ. eigenvalues --   -0.38892  -0.37071  -0.34011  -0.32798  -0.30612
 Alpha  occ. eigenvalues --   -0.29740  -0.28899  -0.28300  -0.25985  -0.24646
 Alpha virt. eigenvalues --   -0.03516  -0.03076  -0.01714  -0.01422  -0.00522
 Alpha virt. eigenvalues --   -0.00148   0.00317   0.00857   0.01169   0.02013
 Alpha virt. eigenvalues --    0.02494   0.03150   0.03561   0.03752   0.04818

 Mulliken charges:
               1
     1  O   -0.316989
     2  C   -0.079454
     3  N   -0.016309
     4  C    0.129744
     5  C   -0.107121
     6  O   -0.141506
     7  O   -0.304349
     8  C   -1.059404
     9  C    0.404099
    10  C   -0.469793
    11  N   -0.110946
    12  C    0.063414
    13  N   -0.169303
    14  C   -0.093459
    15  C   -0.510473
    16  N   -0.332682
    17  H    0.264189
    18  H    0.304229
    19  H    0.305206
    20  H    0.199172
    21  H    0.218950
    22  H    0.134473
    23  H    0.163430
    24  H    0.356135
    25  H    0.191341
    26  H    0.140026
    27  H    0.201138
    28  H    0.175518
    29  H    0.229893
    30  H    0.230832
 Sum of Mulliken charges =   0.00000

 Dipole moment (field-independent basis, Debye):
    X=             -0.7151    Y=             -2.5526    Z=             -2.3983  Tot=              3.5747
 Quadrupole moment (field-independent basis, Debye-Ang):
   XX=            -98.5735   YY=            -95.3543   ZZ=           -117.5357
   XY=             -1.6070   XZ=              7.3183   YZ=              9.7804

  Exact polarizability: 152.417  16.632 141.431   1.123 -13.136 143.204
 Approx polarizability: 195.451  20.220 215.693   7.625 -14.856 218.186

                      1                      2                      3
                      A                      A                      A
 Frequencies --     23.5568                45.3291                58.7550
 Red. masses --      4.3897                 7.3611                 2.7884
 Frc consts  --      0.0014                 0.0089                 0.0057
 IR Inten    --      0.1598                 1.5755                 4.5829

                      4                      5                      6
                      A                      A                      A
 Frequencies --     75.9992                85.2398                93.6346
 Red. masses --      3.7630                 3.2164                 4.7371
 Frc consts  --      0.0128                 0.0138                 0.0245
 IR Inten    --      6.3865                 0.0564                 4.7748

                      7                      8                      9
                      A                      A                      A
 Frequencies --    128.7414               153.0617               190.9422
 Red. masses --      8.9068                 5.6369                 4.2506
 Frc consts  --      0.0870                 0.0778                 0.0913
 IR Inten    --     10.2410                 6.5444                11.1444

                     10                     11                     12
                      A                      A                      A
 Frequencies --    212.9982               226.5471               268.7626
 Red. masses --      4.8193                 6.9233                 6.7774
 Frc consts  --      0.1288                 0.2094                 0.2884
 IR Inten    --      5.0325                13.9068                 0.7613

                     13                     14                     15
                      A                      A                      A
 Frequencies --    288.6602               300.5538               343.5645
 Red. masses --      1.1069                 5.4955                 4.8159
 Frc consts  --      0.0543                 0.2925                 0.3349
 IR Inten    --     41.0448                 1.8982                 4.8532

                     16                     17                     18
                      A                      A                      A
 Frequencies --    360.1505               380.2573               437.7882
 Red. masses --      2.4507                 3.9532                 3.3873
 Frc consts  --      0.1873                 0.3368                 0.3825
 IR Inten    --      5.9896                 5.0506                24.2066

                     19                     20                     21
                      A                      A                      A
 Frequencies --    554.5340               573.2795               606.2458
 Red. masses --      1.3546                 4.1789                 3.8116
 Frc consts  --      0.2454                 0.8092                 0.8254
 IR Inten    --     42.7448                15.2534                10.2826

                     22                     23                     24
                      A                      A                      A
 Frequencies --    627.1743               656.6095               667.8047
 Red. masses --      3.5431                 2.7434                 3.4096
 Frc consts  --      0.8211                 0.6969                 0.8959
 IR Inten    --      7.6059                 2.8367                43.9937

                     25                     26                     27
                      A                      A                      A
 Frequencies --    726.0839               735.9153               759.9344
 Red. masses --      1.8740                 1.7993                 4.2678
 Frc consts  --      0.5821                 0.5741                 1.4521
 IR Inten    --     13.0543                58.2080                11.0708

                     28                     29                     30
                      A                      A                      A
 Frequencies --    769.3150               781.6573               792.2214
 Red. masses --      1.5459                 2.4223                 1.8044
 Frc consts  --      0.5391                 0.8720                 0.6672
 IR Inten    --      4.0164                42.3220               216.9383

                     31                     32                     33
                      A                      A                      A
 Frequencies --    829.1341               842.0529               855.5524
 Red. masses --      1.4003                 1.5722                 2.2837
 Frc consts  --      0.5672                 0.6568                 0.9849
 IR Inten    --     24.3584                25.4763                14.9931

                     34                     35                     36
                      A                      A                      A
 Frequencies --    909.9242               937.4610               942.4715
 Red. masses --      1.1715                 5.3103                 2.5381
 Frc consts  --      0.5715                 2.7496                 1.3283
 IR Inten    --     80.5409                 8.8791                 7.0436

                     37                     38                     39
                      A                      A                      A
 Frequencies --    974.4516               983.6453              1008.6413
 Red. masses --      1.3901                 4.7819                 4.0906
 Frc consts  --      0.7777                 2.7260                 2.4519
 IR Inten    --      1.6457                 4.6684                36.7150

                     40                     41                     42
                      A                      A                      A
 Frequencies --   1010.6741              1057.0168              1089.1172
 Red. masses --      4.5973                 2.4548                 2.4964
 Frc consts  --      2.7668                 1.6159                 1.7447
 IR Inten    --     23.8312                13.3229                 9.0898

                     43                     44                     45
                      A                      A                      A
 Frequencies --   1100.1062              1114.8861              1138.7179
 Red. masses --      3.7625                 1.6034                 1.3946
 Frc consts  --      2.6829                 1.1742                 1.0655
 IR Inten    --     23.6136                47.0907                 4.5041

                     46                     47                     48
                      A                      A                      A
 Frequencies --   1144.7457              1221.9683              1230.7673
 Red. masses --      2.1003                 1.6488                 2.5029
 Frc consts  --      1.6216                 1.4506                 2.2338
 IR Inten    --      9.2923                 8.6074                54.0811

                     49                     50                     51
                      A                      A                      A
 Frequencies --   1248.1879              1261.2235              1286.6719
 Red. masses --      1.5608                 2.1736                 1.3039
 Frc consts  --      1.4327                 2.0371                 1.2718
 IR Inten    --     24.5320                 3.5393                 6.4227

                     52                     53                     54
                      A                      A                      A
 Frequencies --   1291.3646              1306.8933              1350.7174
 Red. masses --      1.3185                 1.5098                 1.6350
 Frc consts  --      1.2955                 1.5193                 1.7575
 IR Inten    --      1.3507                26.5705                10.3404

                     55                     56                     57
                      A                      A                      A
 Frequencies --   1368.6850              1381.4034              1385.1262
 Red. masses --      1.5970                 1.4272                 1.2029
 Frc consts  --      1.7626                 1.6046                 1.3598
 IR Inten    --      9.6492                 2.6536                11.7582

                     58                     59                     60
                      A                      A                      A
 Frequencies --   1391.5085              1393.5027              1424.8483
 Red. masses --      1.2396                 2.7673                 2.6674
 Frc consts  --      1.4141                 3.1660                 3.1906
 IR Inten    --     18.4705                31.2541                69.8642

                     61                     62                     63
                      A                      A                      A
 Frequencies --   1449.9279              1472.0789              1475.1467
 Red. masses --      1.4288                 1.1355                 1.1211
 Frc consts  --      1.7697                 1.4497                 1.4373
 IR Inten    --    218.2250                23.1408                 4.0186

                     64                     65                     66
                      A                      A                      A
 Frequencies --   1499.8732              1500.4303              1529.9215
 Red. masses --      3.3797                 1.0919                 2.3144
 Frc consts  --      4.4796                 1.4483                 3.1917
 IR Inten    --     20.5128                 7.9896               462.6298

                     67                     68                     69
                      A                      A                      A
 Frequencies --   1598.4733              1664.0920              1674.2029
 Red. masses --      4.3214                 1.1729                 5.0337
 Frc consts  --      6.5055                 1.9137                 8.3130
 IR Inten    --     12.7401                80.4508               185.2651

                     70                     71                     72
                      A                      A                      A
 Frequencies --   1799.3161              3028.5751              3031.5723
 Red. masses --      8.3946                 1.0589                 1.0822
 Frc consts  --     16.0128                 5.7222                 5.8601
 IR Inten    --    382.2254                 3.9144                 4.2505

                     73                     74                     75
                      A                      A                      A
 Frequencies --   3041.2642              3054.2659              3069.5188
 Red. masses --      1.0663                 1.0614                 1.1003
 Frc consts  --      5.8110                 5.8337                 6.1081
 IR Inten    --     26.6377                18.8996                 5.8385

                     76                     77                     78
                      A                      A                      A
 Frequencies --   3093.1124              3099.7833              3224.1676
 Red. masses --      1.1038                 1.1033                 1.0963
 Frc consts  --      6.2222                 6.2460                 6.7143
 IR Inten    --      5.3243                18.0432                 5.8173

                     79                     80                     81
                      A                      A                      A
 Frequencies --   3243.5384              3270.5837              3507.3167
 Red. masses --      1.0977                 1.0738                 1.0481
 Frc consts  --      6.8039                 6.7675                 7.5963
 IR Inten    --      1.3346               692.2279                 1.3833

                     82                     83                     84
                      A                      A                      A
 Frequencies --   3562.8259              3574.7176              3589.6495
 Red. masses --      1.0789                 1.0828                 1.0950
 Frc consts  --      8.0688                 8.1524                 8.3134
 IR Inten    --    106.1047               203.3338                 2.5390

 - Thermochemistry -
 -------------------
 Temperature   298.150 Kelvin.  Pressure   1.00000 Atm.
 Atom     1 has atomic number  8 and mass  15.99491

 Molecular mass:   226.10659 amu.
 Principal axes and moments of inertia in atomic units:
                           1         2         3
     Eigenvalues --  2648.522185577.487717114.91896
           X            0.86941   0.42352  -0.25446
           Y            0.41955  -0.36081   0.83294
           Z           -0.26096   0.83093   0.49138
 This molecule is an asymmetric top.
 Rotational symmetry number  1.
 Warning -- assumption of classical behavior for rotation
           may cause significant error
 Rotational temperatures (Kelvin)      0.03270     0.01553     0.01217
 Rotational constants (GHZ):           0.68141     0.32358     0.25366
 Zero-point vibrational energy     642760.3 (Joules/Mol)
                                  153.62341 (Kcal/Mol)
 Warning -- explicit consideration of  21 degrees of freedom as
           vibrations may cause significant error
 Vibrational temperatures:     33.89    65.22    84.54   109.35   122.64
          (Kelvin)            134.72   185.23   220.22   274.72   306.46
                              325.95   386.69   415.32   432.43   494.31
                              518.18   547.10   629.88   797.85   824.82
                              872.25   902.36   944.71   960.82  1044.67
                             1058.82  1093.37  1106.87  1124.63  1139.83
                             1192.94  1211.52  1230.95  1309.18  1348.80
                             1356.00  1402.02  1415.24  1451.21  1454.13
                             1520.81  1566.99  1582.81  1604.07  1638.36
                             1647.03  1758.14  1770.80  1795.86  1814.62
                             1851.23  1857.98  1880.33  1943.38  1969.23
                             1987.53  1992.89  2002.07  2004.94  2050.04
                             2086.12  2117.99  2122.40  2157.98  2158.78
                             2201.21  2299.84  2394.25  2408.80  2588.81
                             4357.44  4361.75  4375.70  4394.40  4416.35
                             4450.29  4459.89  4638.85  4666.72  4705.63
                             5046.24  5126.11  5143.21  5164.70

 Zero-point correction=                           0.244814 (Hartree/Particle)
 Thermal correction to Energy=                    0.260381
 Thermal correction to Enthalpy=                  0.261325
 Thermal correction to Gibbs Free Energy=         0.200079
 Sum of electronic and zero-point Energies=           -796.096934
 Sum of electronic and thermal Energies=              -796.081367
 Sum of electronic and thermal Enthalpies=            -796.080423
 Sum of electronic and thermal Free Energies=         -796.141670

                     E (Thermal)             CV                S
                      KCal/Mol        Cal/Mol-Kelvin    Cal/Mol-Kelvin
 Total                  163.391             57.446            128.904
 Electronic               0.000              0.000              0.000
 Translational            0.889              2.981             42.150
 Rotational               0.889              2.981             33.019
 Vibrational            161.614             51.485             53.735
 Vibration     1          0.593              1.985              6.309
 Vibration     2          0.595              1.979              5.011
 Vibration     3          0.596              1.974              4.499
 Vibration     4          0.599              1.965              3.992
 Vibration     5          0.601              1.959              3.766
 Vibration     6          0.603              1.954              3.583
 Vibration     7          0.611              1.925              2.965
 Vibration     8          0.619              1.899              2.634
 Vibration     9          0.634              1.852              2.219
 Vibration    10          0.644              1.821              2.018
 Vibration    11          0.650              1.801              1.906
 Vibration    12          0.673              1.731              1.604
 Vibration    13          0.685              1.695              1.482
 Vibration    14          0.693              1.673              1.414
 Vibration    15          0.722              1.588              1.196
 Vibration    16          0.735              1.554              1.121
 Vibration    17          0.750              1.512              1.038
 Vibration    18          0.798              1.388              0.834
 Vibration    19          0.910              1.130              0.535
 Vibration    20          0.930              1.089              0.498
 Vibration    21          0.965              1.019              0.439

 Optimization completed.
    -- Stationary point found.
 Normal termination of Gaussian 09 at Thu Jul 29 01:28:31 2021.
