 Gaussian 09, Revision D.01,
 Gaussian 09:  ES64L-G09RevD.01 24-Apr-2013

 ----------------------------------------------------------------------
 # B3LYP/6-311++G(d,p) opt=calcfc freq=noraman nosymm integral(ultrafin
 egrid)
 ----------------------------------------------------------------------

 ------------------------------------------------------------
 Candidate Structure: Conf:801 OPT and FREQ calc in gas phase
 ------------------------------------------------------------
 Symbolic Z-matrix:
 Charge =  0 Multiplicity = 1

 SCF Done:  E(RB3LYP) =  -796.324462868     A.U. after   15 cycles
 SCF Done:  E(RB3LYP) =  -796.327229310     A.U. after   13 cycles
 SCF Done:  E(RB3LYP) =  -796.327387594     A.U. after   16 cycles
 SCF Done:  E(RB3LYP) =  -796.328162284     A.U. after   15 cycles
 SCF Done:  E(RB3LYP) =  -796.328315903     A.U. after   13 cycles
 SCF Done:  E(RB3LYP) =  -796.328508515     A.U. after   13 cycles
 SCF Done:  E(RB3LYP) =  -796.328594199     A.U. after   12 cycles
 SCF Done:  E(RB3LYP) =  -796.328624124     A.U. after   11 cycles
 SCF Done:  E(RB3LYP) =  -796.328642340     A.U. after   12 cycles
 SCF Done:  E(RB3LYP) =  -796.328647106     A.U. after   11 cycles
 SCF Done:  E(RB3LYP) =  -796.328647644     A.U. after   11 cycles
 SCF Done:  E(RB3LYP) =  -796.328647674     A.U. after   10 cycles
 Optimization completed.
    -- Stationary point found.
 Normal termination of Gaussian 09 at Thu Jul 29 00:44:08 2021.

 ----------------------------------------------------------------------
 #N Geom=AllCheck Guess=TCheck SCRF=Check GenChk RB3LYP/6-311++G(d,p) F
 req
 ----------------------------------------------------------------------

 Structure from the checkpoint file:  "conf-801.chk"
 ------------------------------------------------------------
 Candidate Structure: Conf:801 OPT and FREQ calc in gas phase
 ------------------------------------------------------------
 Charge =  0 Multiplicity = 1

                          Input orientation:
 ---------------------------------------------------------------------
 Center     Atomic      Atomic             Coordinates (Angstroms)
 Number     Number       Type             X           Y           Z
 ---------------------------------------------------------------------
      1          8           0        1.345977    0.142516   -1.477802
      2          6           0        1.659371   -0.300843   -0.379939
      3          7           0        0.788685   -0.290546    0.672553
      4          6           0       -0.516065    0.327961    0.569952
      5          6           0       -0.983400    0.680507    1.987107
      6          8           0       -2.080648    1.451982    2.075821
      7          8           0       -0.420283    0.290993    2.976954
      8          6           0       -1.527054   -0.600710   -0.170697
      9          6           0       -2.856655    0.032413   -0.445619
     10          6           0       -3.224495    1.155357   -1.155809
     11          7           0       -4.589462    1.339795   -1.115521
     12          6           0       -5.055327    0.348377   -0.395216
     13          7           0       -4.050555   -0.471392    0.038029
     14          6           0        3.023083   -0.910803   -0.102466
     15          6           0        4.166417    0.011387   -0.545041
     16          7           0        5.455901   -0.650405   -0.314141
     17          1           0        1.088031   -0.550351    1.603051
     18          1           0       -0.421022    1.248637   -0.015702
     19          1           0       -2.450184    1.634411    1.194826
     20          1           0       -1.654015   -1.516076    0.415052
     21          1           0       -1.043976   -0.880517   -1.109183
     22          1           0       -2.584300    1.821510   -1.714732
     23          1           0       -6.092080    0.171865   -0.152443
     24          1           0       -4.155302   -1.288299    0.620499
     25          1           0        3.075101   -1.845480   -0.673289
     26          1           0        3.147205   -1.168865    0.952271
     27          1           0        4.146808    0.922749    0.060497
     28          1           0        3.993153    0.310210   -1.585847
     29          1           0        5.591604   -1.414859   -0.968991
     30          1           0        6.223252   -0.001623   -0.452461
 ---------------------------------------------------------------------

 SCF Done:  E(RB3LYP) =  -796.328647674     A.U. after    1 cycles

 Alpha  occ. eigenvalues --  -19.19040 -19.13655 -19.10246 -14.39496 -14.35681
 Alpha  occ. eigenvalues --  -14.31557 -14.30328 -10.33087 -10.28811 -10.25659
 Alpha  occ. eigenvalues --  -10.24676 -10.23521 -10.21829 -10.20633 -10.20533
 Alpha  occ. eigenvalues --  -10.18876  -1.13219  -1.05778  -1.05147  -1.04299
 Alpha  occ. eigenvalues --   -0.94900  -0.89866  -0.89420  -0.82815  -0.77970
 Alpha  occ. eigenvalues --   -0.75122  -0.69887  -0.65119  -0.64154  -0.63195
 Alpha  occ. eigenvalues --   -0.61960  -0.60243  -0.57790  -0.55626  -0.51538
 Alpha  occ. eigenvalues --   -0.50806  -0.50020  -0.49620  -0.47946  -0.46901
 Alpha  occ. eigenvalues --   -0.46125  -0.45609  -0.44875  -0.44491  -0.43357
 Alpha  occ. eigenvalues --   -0.43078  -0.42001  -0.40696  -0.40475  -0.39140
 Alpha  occ. eigenvalues --   -0.37985  -0.35529  -0.34910  -0.31207  -0.30837
 Alpha  occ. eigenvalues --   -0.29390  -0.28553  -0.27643  -0.25455  -0.25052
 Alpha virt. eigenvalues --   -0.03175  -0.02400  -0.01487  -0.00886  -0.00404
 Alpha virt. eigenvalues --   -0.00225   0.00271   0.01097   0.01262   0.01473
 Alpha virt. eigenvalues --    0.02637   0.02830   0.03381   0.03487   0.04142

 Mulliken charges:
               1
     1  O   -0.312799
     2  C   -0.090282
     3  N   -0.004449
     4  C   -0.144503
     5  C   -0.243763
     6  O   -0.105503
     7  O   -0.256794
     8  C   -0.765790
     9  C    0.401647
    10  C   -0.362203
    11  N   -0.101802
    12  C    0.084521
    13  N   -0.103209
    14  C   -0.281645
    15  C   -0.466753
    16  N   -0.338961
    17  H    0.286275
    18  H    0.282110
    19  H    0.341738
    20  H    0.143903
    21  H    0.263521
    22  H    0.167153
    23  H    0.174444
    24  H    0.309363
    25  H    0.179125
    26  H    0.168132
    27  H    0.153777
    28  H    0.177483
    29  H    0.210191
    30  H    0.235074
 Sum of Mulliken charges =   0.00000

 Dipole moment (field-independent basis, Debye):
    X=              0.0225    Y=             -3.2406    Z=             -0.3888  Tot=              3.2639
 Quadrupole moment (field-independent basis, Debye-Ang):
   XX=            -84.9772   YY=            -93.6425   ZZ=           -115.8330
   XY=             15.1158   XZ=            -10.8338   YZ=              0.3683

  Exact polarizability: 190.504 -14.080 118.666   1.519  -9.776 130.541
 Approx polarizability: 226.335 -15.448 191.905   3.852 -27.928 206.627

                      1                      2                      3
                      A                      A                      A
 Frequencies --     20.9375                28.5426                43.0279
 Red. masses --      3.6118                 5.2340                 4.5662
 Frc consts  --      0.0009                 0.0025                 0.0050
 IR Inten    --      2.2988                 1.3847                 3.8750

                      4                      5                      6
                      A                      A                      A
 Frequencies --     56.9597                70.2884                77.9478
 Red. masses --      3.2205                 5.1090                 3.8278
 Frc consts  --      0.0062                 0.0149                 0.0137
 IR Inten    --      1.1410                15.7867                 1.1950

                      7                      8                      9
                      A                      A                      A
 Frequencies --     90.7888               107.6058               135.4153
 Red. masses --      5.4325                 6.0274                 4.4959
 Frc consts  --      0.0264                 0.0411                 0.0486
 IR Inten    --      2.1346                 2.5492                14.4385

                     10                     11                     12
                      A                      A                      A
 Frequencies --    195.4371               220.7573               237.4613
 Red. masses --      4.0363                 3.8691                 1.3778
 Frc consts  --      0.0908                 0.1111                 0.0458
 IR Inten    --      2.2856                18.1338                41.0878

                     13                     14                     15
                      A                      A                      A
 Frequencies --    276.9853               312.9327               326.9848
 Red. masses --      3.8233                 6.8899                 2.2693
 Frc consts  --      0.1728                 0.3975                 0.1430
 IR Inten    --      9.4888                 0.7512                 7.7348

                     16                     17                     18
                      A                      A                      A
 Frequencies --    349.2985               390.2380               403.0643
 Red. masses --      6.1109                 4.1823                 4.4837
 Frc consts  --      0.4393                 0.3753                 0.4292
 IR Inten    --      2.3562                21.9870                 7.8932

                     19                     20                     21
                      A                      A                      A
 Frequencies --    527.4411               539.0558               557.3638
 Red. masses --      2.0120                 1.3961                 1.7662
 Frc consts  --      0.3298                 0.2390                 0.3233
 IR Inten    --     25.9210                91.0584                48.2114

                     22                     23                     24
                      A                      A                      A
 Frequencies --    596.2756               631.6908               656.4178
 Red. masses --      1.3853                 3.2428                 2.3892
 Frc consts  --      0.2902                 0.7624                 0.6066
 IR Inten    --     83.5984                 1.3849                 9.2243

                     25                     26                     27
                      A                      A                      A
 Frequencies --    664.1335               677.4998               737.2562
 Red. masses --      3.0389                 3.0647                 3.3719
 Frc consts  --      0.7897                 0.8288                 1.0798
 IR Inten    --     21.2684                14.3360                 1.5557

                     28                     29                     30
                      A                      A                      A
 Frequencies --    747.7749               770.5463               796.1582
 Red. masses --      5.4047                 3.8118                 1.2751
 Frc consts  --      1.7806                 1.3334                 0.4762
 IR Inten    --      7.1960                15.0181                24.5169

                     31                     32                     33
                      A                      A                      A
 Frequencies --    816.6256               822.7747               839.8416
 Red. masses --      1.9706                 1.6663                 1.3877
 Frc consts  --      0.7743                 0.6646                 0.5767
 IR Inten    --      8.4905                28.7877                98.8321

                     34                     35                     36
                      A                      A                      A
 Frequencies --    856.4064               935.1811               950.9012
 Red. masses --      1.4021                 5.8864                 3.2370
 Frc consts  --      0.6059                 3.0331                 1.7245
 IR Inten    --     28.3718                10.1431                21.6071

                     37                     38                     39
                      A                      A                      A
 Frequencies --    980.4386              1009.1107              1024.6190
 Red. masses --      2.0869                 3.5872                 3.9585
 Frc consts  --      1.1820                 2.1522                 2.4486
 IR Inten    --      4.3164                 7.6809                 7.7429

                     40                     41                     42
                      A                      A                      A
 Frequencies --   1032.2472              1044.4899              1082.1673
 Red. masses --      3.3653                 2.2777                 2.6695
 Frc consts  --      2.1127                 1.4640                 1.8419
 IR Inten    --      1.5036                 8.4290                36.8248

                     43                     44                     45
                      A                      A                      A
 Frequencies --   1106.9232              1138.6852              1142.2194
 Red. masses --      1.6494                 2.5835                 2.2035
 Frc consts  --      1.1907                 1.9736                 1.6938
 IR Inten    --     16.0333                13.3416                11.4584

                     46                     47                     48
                      A                      A                      A
 Frequencies --   1155.7052              1166.3725              1200.0338
 Red. masses --      1.6060                 1.4556                 2.1942
 Frc consts  --      1.2639                 1.1667                 1.8617
 IR Inten    --     40.7679                 8.2955                25.8653

                     49                     50                     51
                      A                      A                      A
 Frequencies --   1220.0924              1249.9894              1276.2517
 Red. masses --      1.6061                 1.9571                 1.4244
 Frc consts  --      1.4087                 1.8017                 1.3670
 IR Inten    --     33.4552                16.8773                 1.6868

                     52                     53                     54
                      A                      A                      A
 Frequencies --   1290.7178              1311.4359              1316.6678
 Red. masses --      1.3102                 1.3389                 1.2942
 Frc consts  --      1.2860                 1.3567                 1.3219
 IR Inten    --      9.6880                13.3153                39.7176

                     55                     56                     57
                      A                      A                      A
 Frequencies --   1321.3412              1356.5969              1357.6189
 Red. masses --      1.4802                 1.3312                 1.3881
 Frc consts  --      1.5227                 1.4434                 1.5074
 IR Inten    --     81.3644                 6.5734               114.0149

                     58                     59                     60
                      A                      A                      A
 Frequencies --   1393.0207              1403.5200              1422.5648
 Red. masses --      2.3600                 1.9596                 1.4114
 Frc consts  --      2.6982                 2.2744                 1.6829
 IR Inten    --     83.4162                87.3748                38.7429

                     61                     62                     63
                      A                      A                      A
 Frequencies --   1427.8278              1477.5311              1482.4312
 Red. masses --      3.1220                 1.1023                 1.4167
 Frc consts  --      3.7500                 1.4178                 1.8343
 IR Inten    --     20.4679                10.1844                15.2113

                     64                     65                     66
                      A                      A                      A
 Frequencies --   1490.9526              1518.2642              1520.5866
 Red. masses --      2.3218                 2.1207                 1.0985
 Frc consts  --      3.0409                 2.8802                 1.4965
 IR Inten    --     24.8828               326.9775                 6.3282

                     67                     68                     69
                      A                      A                      A
 Frequencies --   1594.5300              1661.1447              1722.2668
 Red. masses --      4.0664                 1.0897                 9.2982
 Frc consts  --      6.0916                 1.7717                16.2499
 IR Inten    --     10.8725                33.9461               240.7737

                     70                     71                     72
                      A                      A                      A
 Frequencies --   1822.0764              3005.9478              3025.4834
 Red. masses --      9.7317                 1.0638                 1.0666
 Frc consts  --     19.0359                 5.6635                 5.7521
 IR Inten    --    317.4273                27.0882                10.1195

                     73                     74                     75
                      A                      A                      A
 Frequencies --   3036.3031              3048.6876              3052.4626
 Red. masses --      1.0769                 1.0676                 1.0938
 Frc consts  --      5.8492                 5.8464                 6.0046
 IR Inten    --      6.7940                17.3803                20.1064

                     76                     77                     78
                      A                      A                      A
 Frequencies --   3083.8056              3093.4260              3233.6803
 Red. masses --      1.1015                 1.1028                 1.0963
 Frc consts  --      6.1718                 6.2177                 6.7543
 IR Inten    --     26.0081                 1.9517                 3.6766

                     79                     80                     81
                      A                      A                      A
 Frequencies --   3245.8904              3497.6588              3577.7477
 Red. masses --      1.0981                 1.0499                 1.0929
 Frc consts  --      6.8167                 7.5676                 8.2426
 IR Inten    --      1.1763                 0.2164                 1.8257

                     82                     83                     84
                      A                      A                      A
 Frequencies --   3591.1110              3640.4750              3658.4619
 Red. masses --      1.0779                 1.0815                 1.0670
 Frc consts  --      8.1901                 8.4445                 8.4143
 IR Inten    --     74.6135                56.3283               265.0017

 - Thermochemistry -
 -------------------
 Temperature   298.150 Kelvin.  Pressure   1.00000 Atm.
 Atom     1 has atomic number  8 and mass  15.99491

 Molecular mass:   226.10659 amu.
 Principal axes and moments of inertia in atomic units:
                           1         2         3
     Eigenvalues --  1593.769488011.725238973.62967
           X            0.99145   0.03808   0.12484
           Y           -0.12820   0.10467   0.98621
           Z           -0.02449   0.99378  -0.10866
 This molecule is an asymmetric top.
 Rotational symmetry number  1.
 Warning -- assumption of classical behavior for rotation
           may cause significant error
 Rotational temperatures (Kelvin)      0.05435     0.01081     0.00965
 Rotational constants (GHZ):           1.13237     0.22526     0.20112
 Zero-point vibrational energy     639880.1 (Joules/Mol)
                                  152.93501 (Kcal/Mol)
 Warning -- explicit consideration of  22 degrees of freedom as
           vibrations may cause significant error
 Vibrational temperatures:     30.12    41.07    61.91    81.95   101.13
          (Kelvin)            112.15   130.62   154.82   194.83   281.19
                              317.62   341.65   398.52   450.24   470.46
                              502.56   561.46   579.92   758.87   775.58
                              801.92   857.91   908.86   944.44   955.54
                              974.77  1060.75  1075.88  1108.64  1145.49
                             1174.94  1183.79  1208.34  1232.18  1345.52
                             1368.13  1410.63  1451.88  1474.20  1485.17
                             1502.79  1557.00  1592.61  1638.31  1643.40
                             1662.80  1678.15  1726.58  1755.44  1798.45
                             1836.24  1857.05  1886.86  1894.39  1901.11
                             1951.84  1953.31  2004.24  2019.35  2046.75
                             2054.32  2125.84  2132.89  2145.15  2184.44
                             2187.78  2294.17  2390.01  2477.95  2621.56
                             4324.88  4352.99  4368.56  4386.38  4391.81
                             4436.90  4450.74  4652.54  4670.11  5032.34
                             5147.57  5166.80  5237.82  5263.70

 Zero-point correction=                           0.243717 (Hartree/Particle)
 Thermal correction to Energy=                    0.260029
 Thermal correction to Enthalpy=                  0.260973
 Thermal correction to Gibbs Free Energy=         0.196698
 Sum of electronic and zero-point Energies=           -796.084930
 Sum of electronic and thermal Energies=              -796.068619
 Sum of electronic and thermal Enthalpies=            -796.067675
 Sum of electronic and thermal Free Energies=         -796.131949

                     E (Thermal)             CV                S
                      KCal/Mol        Cal/Mol-Kelvin    Cal/Mol-Kelvin
 Total                  163.171             58.702            135.277
 Electronic               0.000              0.000              0.000
 Translational            0.889              2.981             42.150
 Rotational               0.889              2.981             33.105
 Vibrational            161.393             52.740             60.023
 Vibration     1          0.593              1.986              6.543
 Vibration     2          0.593              1.984              5.928
 Vibration     3          0.595              1.980              5.115
 Vibration     4          0.596              1.975              4.560
 Vibration     5          0.598              1.968              4.145
 Vibration     6          0.599              1.964              3.942
 Vibration     7          0.602              1.956              3.643
 Vibration     8          0.606              1.943              3.312
 Vibration     9          0.613              1.918              2.868
 Vibration    10          0.636              1.846              2.176
 Vibration    11          0.647              1.809              1.953
 Vibration    12          0.656              1.783              1.822
 Vibration    13          0.678              1.716              1.552
 Vibration    14          0.701              1.649              1.347
 Vibration    15          0.711              1.622              1.275
 Vibration    16          0.727              1.577              1.169
 Vibration    17          0.758              1.491              0.999
 Vibration    18          0.768              1.464              0.951
 Vibration    19          0.882              1.189              0.593
 Vibration    20          0.894              1.164              0.567
 Vibration    21          0.913              1.124              0.529
 Vibration    22          0.954              1.040              0.456

 Optimization completed.
    -- Stationary point found.
 Normal termination of Gaussian 09 at Thu Jul 29 01:53:01 2021.
