 Gaussian 09, Revision D.01,
 Gaussian 09:  ES64L-G09RevD.01 24-Apr-2013

 ----------------------------------------------------------------------
 # B3LYP/6-311++G(d,p) opt=calcfc freq=noraman nosymm integral(ultrafin
 egrid)
 ----------------------------------------------------------------------

 ------------------------------------------------------------
 Candidate Structure: Conf:599 OPT and FREQ calc in gas phase
 ------------------------------------------------------------
 Symbolic Z-matrix:
 Charge =  0 Multiplicity = 1

 SCF Done:  E(RB3LYP) =  -796.323639492     A.U. after   15 cycles
 SCF Done:  E(RB3LYP) =  -796.326400935     A.U. after   13 cycles
 SCF Done:  E(RB3LYP) =  -796.326549749     A.U. after   13 cycles
 SCF Done:  E(RB3LYP) =  -796.326558808     A.U. after   12 cycles
 SCF Done:  E(RB3LYP) =  -796.326559329     A.U. after   11 cycles
 SCF Done:  E(RB3LYP) =  -796.326559390     A.U. after   10 cycles
 SCF Done:  E(RB3LYP) =  -796.326559405     A.U. after    9 cycles
 Optimization completed.
    -- Stationary point found.
 Normal termination of Gaussian 09 at Wed Jul 28 23:59:21 2021.

 ----------------------------------------------------------------------
 #N Geom=AllCheck Guess=TCheck SCRF=Check GenChk RB3LYP/6-311++G(d,p) F
 req
 ----------------------------------------------------------------------

 Structure from the checkpoint file:  "conf-599.chk"
 ------------------------------------------------------------
 Candidate Structure: Conf:599 OPT and FREQ calc in gas phase
 ------------------------------------------------------------
 Charge =  0 Multiplicity = 1

                          Input orientation:
 ---------------------------------------------------------------------
 Center     Atomic      Atomic             Coordinates (Angstroms)
 Number     Number       Type             X           Y           Z
 ---------------------------------------------------------------------
      1          8           0        2.671030    1.651812    0.869989
      2          6           0        1.891153    0.821816    0.444663
      3          7           0        1.026278    1.168663   -0.596504
      4          6           0       -0.224326    0.490240   -0.944500
      5          6           0       -0.324545    0.317672   -2.476776
      6          8           0        0.839079    0.362854   -3.137319
      7          8           0       -1.364749    0.123886   -3.053845
      8          6           0       -1.479102    1.182778   -0.341757
      9          6           0       -2.654920    0.291944   -0.095258
     10          6           0       -3.287069   -0.058644    1.075671
     11          7           0       -4.353928   -0.889342    0.827308
     12          6           0       -4.373295   -1.044999   -0.477878
     13          7           0       -3.371460   -0.348038   -1.085996
     14          6           0        1.842634   -0.607979    0.961697
     15          6           0        3.006218   -0.935017    1.917479
     16          7           0        4.347333   -0.905118    1.350534
     17          1           0        1.034698    2.173706   -0.746868
     18          1           0       -0.172275   -0.526066   -0.547760
     19          1           0        1.536853    0.591266   -2.497215
     20          1           0       -1.756267    2.032422   -0.976708
     21          1           0       -1.183473    1.595057    0.625576
     22          1           0       -3.037250    0.253819    2.078907
     23          1           0       -5.079384   -1.644734   -1.031936
     24          1           0       -3.116723   -0.329629   -2.066124
     25          1           0        0.887727   -0.756706    1.483179
     26          1           0        1.841786   -1.306145    0.116039
     27          1           0        2.981093   -0.235493    2.755666
     28          1           0        2.828680   -1.931708    2.331929
     29          1           0        4.459451   -1.562700    0.586668
     30          1           0        4.584677    0.024443    1.023429
 ---------------------------------------------------------------------

 SCF Done:  E(RB3LYP) =  -796.326559405     A.U. after    2 cycles

 Alpha  occ. eigenvalues --  -19.20456 -19.15007 -19.13218 -14.38367 -14.37061
 Alpha  occ. eigenvalues --  -14.30319 -14.29891 -10.34485 -10.31611 -10.27482
 Alpha  occ. eigenvalues --  -10.23011 -10.22307 -10.21791 -10.21416 -10.21125
 Alpha  occ. eigenvalues --  -10.19131  -1.14809  -1.08581  -1.06665  -1.02453
 Alpha  occ. eigenvalues --   -0.97159  -0.89848  -0.88042  -0.82597  -0.78739
 Alpha  occ. eigenvalues --   -0.75985  -0.69957  -0.67161  -0.65308  -0.62002
 Alpha  occ. eigenvalues --   -0.60652  -0.60093  -0.58349  -0.55636  -0.54633
 Alpha  occ. eigenvalues --   -0.52356  -0.50231  -0.49688  -0.49289  -0.48420
 Alpha  occ. eigenvalues --   -0.46978  -0.45479  -0.45161  -0.44575  -0.44285
 Alpha  occ. eigenvalues --   -0.42981  -0.42050  -0.41798  -0.40999  -0.39986
 Alpha  occ. eigenvalues --   -0.39389  -0.37630  -0.36202  -0.33563  -0.31404
 Alpha  occ. eigenvalues --   -0.29573  -0.29142  -0.27817  -0.25413  -0.23997
 Alpha virt. eigenvalues --   -0.04498  -0.03743  -0.02688  -0.01617  -0.00851
 Alpha virt. eigenvalues --   -0.00293   0.00443   0.00864   0.01425   0.01619
 Alpha virt. eigenvalues --    0.02407   0.03055   0.03229   0.03785   0.04232

 Mulliken charges:
               1
     1  O   -0.280020
     2  C    0.075689
     3  N   -0.167096
     4  C   -0.282172
     5  C   -0.145497
     6  O   -0.115040
     7  O   -0.278016
     8  C   -0.781732
     9  C    0.548641
    10  C   -0.463725
    11  N   -0.133371
    12  C    0.064272
    13  N   -0.176720
    14  C   -0.026796
    15  C   -0.696312
    16  N   -0.312949
    17  H    0.318759
    18  H    0.269784
    19  H    0.288012
    20  H    0.238896
    21  H    0.205243
    22  H    0.130745
    23  H    0.163155
    24  H    0.356399
    25  H    0.156761
    26  H    0.192056
    27  H    0.208613
    28  H    0.173221
    29  H    0.215264
    30  H    0.253935
 Sum of Mulliken charges =   0.00000

 Dipole moment (field-independent basis, Debye):
    X=              1.3441    Y=              0.3450    Z=             -1.6443  Tot=              2.1516
 Quadrupole moment (field-independent basis, Debye-Ang):
   XX=           -122.5751   YY=            -94.3932   ZZ=           -108.9254
   XY=             -6.5946   XZ=             -1.0887   YZ=              0.8135

  Exact polarizability: 176.663  17.868 119.139  10.175  -1.552 143.428
 Approx polarizability: 228.240  33.006 183.231  10.854   4.636 217.275

                      1                      2                      3
                      A                      A                      A
 Frequencies --     19.4033                38.8197                49.6212
 Red. masses --      5.7058                 4.7721                 3.5824
 Frc consts  --      0.0013                 0.0042                 0.0052
 IR Inten    --      0.2475                 0.4273                 2.1002

                      4                      5                      6
                      A                      A                      A
 Frequencies --     62.8857                79.9448                88.8271
 Red. masses --      6.6663                 5.1908                 6.0636
 Frc consts  --      0.0155                 0.0195                 0.0282
 IR Inten    --      0.8437                 1.1331                10.7860

                      7                      8                      9
                      A                      A                      A
 Frequencies --    134.0504               140.2543               148.6472
 Red. masses --      4.5706                 5.8949                 3.4184
 Frc consts  --      0.0484                 0.0683                 0.0445
 IR Inten    --      4.8161                10.7918                 3.9426

                     10                     11                     12
                      A                      A                      A
 Frequencies --    207.0193               244.8512               285.7986
 Red. masses --      4.4315                 2.6306                 4.4044
 Frc consts  --      0.1119                 0.0929                 0.2120
 IR Inten    --      6.7691                 7.2297                 9.8445

                     13                     14                     15
                      A                      A                      A
 Frequencies --    310.0143               341.3308               346.0477
 Red. masses --      4.2509                 2.2446                 1.2786
 Frc consts  --      0.2407                 0.1541                 0.0902
 IR Inten    --      0.8724                 4.7491                53.6482

                     16                     17                     18
                      A                      A                      A
 Frequencies --    357.2870               412.0013               439.7667
 Red. masses --      5.0496                 3.3873                 4.3269
 Frc consts  --      0.3798                 0.3388                 0.4930
 IR Inten    --     14.7673                10.4434                 0.6560

                     19                     20                     21
                      A                      A                      A
 Frequencies --    523.9871               555.9834               599.8546
 Red. masses --      2.3334                 2.8207                 4.0376
 Frc consts  --      0.3775                 0.5137                 0.8560
 IR Inten    --     12.8122                 4.4485                 7.9922

                     22                     23                     24
                      A                      A                      A
 Frequencies --    622.9573               645.5271               668.7080
 Red. masses --      3.3439                 3.3241                 2.6094
 Frc consts  --      0.7646                 0.8161                 0.6875
 IR Inten    --     33.5446                 8.2564                33.1405

                     25                     26                     27
                      A                      A                      A
 Frequencies --    682.1386               720.3199               728.9512
 Red. masses --      1.5952                 3.5581                 1.2814
 Frc consts  --      0.4373                 1.0877                 0.4012
 IR Inten    --     70.0570                 5.5133                56.3320

                     28                     29                     30
                      A                      A                      A
 Frequencies --    738.9205               787.2161               800.6718
 Red. masses --      3.1983                 1.4139                 1.3953
 Frc consts  --      1.0289                 0.5162                 0.5270
 IR Inten    --      4.8077               234.5531                89.3157

                     31                     32                     33
                      A                      A                      A
 Frequencies --    817.5073               821.3078               830.7435
 Red. masses --      2.1728                 1.5242                 2.3330
 Frc consts  --      0.8556                 0.6058                 0.9486
 IR Inten    --     75.6081                13.0141                16.7837

                     34                     35                     36
                      A                      A                      A
 Frequencies --    847.1856               883.4596               923.4159
 Red. masses --      1.4226                 2.5389                 1.6581
 Frc consts  --      0.6016                 1.1675                 0.8330
 IR Inten    --     22.4589                 4.1999                 4.3877

                     37                     38                     39
                      A                      A                      A
 Frequencies --    937.7771               978.4600              1018.4786
 Red. masses --      5.7793                 2.7938                 2.2246
 Frc consts  --      2.9945                 1.5759                 1.3596
 IR Inten    --     11.8764                 4.7738                38.2681

                     40                     41                     42
                      A                      A                      A
 Frequencies --   1024.6479              1043.7960              1104.5768
 Red. masses --      4.0551                 4.2654                 2.9155
 Frc consts  --      2.5085                 2.7380                 2.0958
 IR Inten    --      6.1788                21.1255                 9.2497

                     43                     44                     45
                      A                      A                      A
 Frequencies --   1117.0965              1125.2611              1146.1602
 Red. masses --      1.6061                 3.7306                 2.0646
 Frc consts  --      1.1809                 2.7831                 1.5980
 IR Inten    --     62.8718                31.7581                11.7321

                     46                     47                     48
                      A                      A                      A
 Frequencies --   1160.6184              1191.3855              1198.7343
 Red. masses --      1.4220                 2.2789                 1.3219
 Frc consts  --      1.1286                 1.9058                 1.1192
 IR Inten    --     37.1363                29.0569                 1.8143

                     49                     50                     51
                      A                      A                      A
 Frequencies --   1236.3194              1260.3831              1264.6508
 Red. masses --      1.7648                 2.3558                 1.5741
 Frc consts  --      1.5893                 2.2049                 1.4833
 IR Inten    --    115.6304                16.6447               117.6688

                     52                     53                     54
                      A                      A                      A
 Frequencies --   1272.3977              1302.9350              1322.6737
 Red. masses --      1.5060                 1.2659                 1.3283
 Frc consts  --      1.4366                 1.2662                 1.3691
 IR Inten    --     28.5885                 3.3083                32.4385

                     55                     56                     57
                      A                      A                      A
 Frequencies --   1358.9650              1365.0109              1379.3790
 Red. masses --      1.8353                 1.4984                 1.5813
 Frc consts  --      1.9969                 1.6450                 1.7727
 IR Inten    --    274.8685                 6.5708               190.5966

                     58                     59                     60
                      A                      A                      A
 Frequencies --   1388.7233              1396.4727              1405.7241
 Red. masses --      3.6281                 1.2478                 1.3961
 Frc consts  --      4.1225                 1.4337                 1.6254
 IR Inten    --     26.9305                 2.1548                54.3543

                     61                     62                     63
                      A                      A                      A
 Frequencies --   1429.2403              1451.3660              1477.3179
 Red. masses --      2.7576                 1.1192                 1.1494
 Frc consts  --      3.3189                 1.3890                 1.4780
 IR Inten    --     32.2224                 8.5185                17.4557

                     64                     65                     66
                      A                      A                      A
 Frequencies --   1480.0328              1483.8217              1499.0063
 Red. masses --      1.3827                 1.0995                 3.2168
 Frc consts  --      1.7845                 1.4263                 4.2587
 IR Inten    --     17.7654                11.8037                24.1472

                     67                     68                     69
                      A                      A                      A
 Frequencies --   1599.8733              1657.9675              1759.0911
 Red. masses --      4.3106                 1.0958                 7.8889
 Frc consts  --      6.5007                 1.7747                14.3827
 IR Inten    --     13.8989                31.3126               441.0729

                     70                     71                     72
                      A                      A                      A
 Frequencies --   1819.9675              3005.8699              3021.1788
 Red. masses --      9.9465                 1.0610                 1.0675
 Frc consts  --     19.4110                 5.6482                 5.7409
 IR Inten    --    266.9884                22.2439                22.5636

                     73                     74                     75
                      A                      A                      A
 Frequencies --   3039.2454              3046.7935              3081.6766
 Red. masses --      1.0858                 1.0768                 1.0845
 Frc consts  --      5.9093                 5.8897                 6.0680
 IR Inten    --      7.3731                34.4651                 8.9691

                     76                     77                     78
                      A                      A                      A
 Frequencies --   3087.8458              3090.7159              3227.7495
 Red. masses --      1.0931                 1.1017                 1.0963
 Frc consts  --      6.1407                 6.2005                 6.7297
 IR Inten    --      2.1535                16.7358                 6.7859

                     79                     80                     81
                      A                      A                      A
 Frequencies --   3242.9399              3510.9718              3528.8609
 Red. masses --      1.0976                 1.0481                 1.0749
 Frc consts  --      6.8012                 7.6118                 7.8869
 IR Inten    --      1.1794                 1.9805                22.9680

                     82                     83                     84
                      A                      A                      A
 Frequencies --   3579.5465              3598.4162              3646.1963
 Red. masses --      1.0825                 1.0950                 1.0647
 Frc consts  --      8.1723                 8.3538                 8.3402
 IR Inten    --    195.9642                 6.7669               202.2324

 - Thermochemistry -
 -------------------
 Temperature   298.150 Kelvin.  Pressure   1.00000 Atm.
 Atom     1 has atomic number  8 and mass  15.99491

 Molecular mass:   226.10659 amu.
 Principal axes and moments of inertia in atomic units:
                           1         2         3
     Eigenvalues --  2343.882586503.687947844.97379
           X            0.97651  -0.18938  -0.10275
           Y            0.05298  -0.25119   0.96649
           Z            0.20884   0.94923   0.23525
 This molecule is an asymmetric top.
 Rotational symmetry number  1.
 Warning -- assumption of classical behavior for rotation
           may cause significant error
 Rotational temperatures (Kelvin)      0.03695     0.01332     0.01104
 Rotational constants (GHZ):           0.76998     0.27750     0.23005
 Zero-point vibrational energy     641627.5 (Joules/Mol)
                                  153.35266 (Kcal/Mol)
 Warning -- explicit consideration of  21 degrees of freedom as
           vibrations may cause significant error
 Vibrational temperatures:     27.92    55.85    71.39    90.48   115.02
          (Kelvin)            127.80   192.87   201.79   213.87   297.85
                              352.29   411.20   446.04   491.10   497.88
                              514.06   592.78   632.73   753.90   799.94
                              863.06   896.30   928.77   962.12   981.44
                             1036.38  1048.80  1063.14  1132.63  1151.99
                             1176.21  1181.68  1195.25  1218.91  1271.10
                             1328.59  1349.25  1407.78  1465.36  1474.24
                             1501.79  1589.24  1607.25  1619.00  1649.07
                             1669.87  1714.14  1724.71  1778.79  1813.41
                             1819.55  1830.69  1874.63  1903.03  1955.25
                             1963.94  1984.62  1998.06  2009.21  2022.52
                             2056.36  2088.19  2125.53  2129.43  2134.89
                             2156.73  2301.86  2385.44  2530.94  2618.52
                             4324.77  4346.80  4372.79  4383.65  4433.84
                             4442.72  4446.85  4644.01  4665.86  5051.50
                             5077.24  5150.16  5177.31  5246.06

 Zero-point correction=                           0.244383 (Hartree/Particle)
 Thermal correction to Energy=                    0.260108
 Thermal correction to Enthalpy=                  0.261052
 Thermal correction to Gibbs Free Energy=         0.198825
 Sum of electronic and zero-point Energies=           -796.082176
 Sum of electronic and thermal Energies=              -796.066452
 Sum of electronic and thermal Enthalpies=            -796.065507
 Sum of electronic and thermal Free Energies=         -796.127735

                     E (Thermal)             CV                S
                      KCal/Mol        Cal/Mol-Kelvin    Cal/Mol-Kelvin
 Total                  163.220             58.009            130.968
 Electronic               0.000              0.000              0.000
 Translational            0.889              2.981             42.150
 Rotational               0.889              2.981             33.147
 Vibrational            161.443             52.048             55.671
 Vibration     1          0.593              1.986              6.694
 Vibration     2          0.594              1.981              5.318
 Vibration     3          0.595              1.978              4.832
 Vibration     4          0.597              1.972              4.365
 Vibration     5          0.600              1.963              3.892
 Vibration     6          0.602              1.957              3.686
 Vibration     7          0.613              1.919              2.887
 Vibration     8          0.615              1.913              2.800
 Vibration     9          0.618              1.904              2.689
 Vibration    10          0.641              1.830              2.070
 Vibration    11          0.660              1.771              1.767
 Vibration    12          0.684              1.700              1.499
 Vibration    13          0.699              1.655              1.362
 Vibration    14          0.721              1.593              1.206
 Vibration    15          0.724              1.583              1.184
 Vibration    16          0.732              1.560              1.134
 Vibration    17          0.776              1.444              0.920
 Vibration    18          0.800              1.383              0.827
 Vibration    19          0.879              1.197              0.601
 Vibration    20          0.911              1.127              0.532
 Vibration    21          0.958              1.032              0.450

 Optimization completed.
    -- Stationary point found.
 Normal termination of Gaussian 09 at Thu Jul 29 01:12:04 2021.
