 Gaussian 09, Revision D.01,
 Gaussian 09:  ES64L-G09RevD.01 24-Apr-2013

 ----------------------------------------------------------------------
 # B3LYP/6-311++G(d,p) opt=calcfc freq=noraman nosymm integral(ultrafin
 egrid)
 ----------------------------------------------------------------------

 ------------------------------------------------------------
 Candidate Structure: Conf:490 OPT and FREQ calc in gas phase
 ------------------------------------------------------------
 Symbolic Z-matrix:
 Charge =  0 Multiplicity = 1

 SCF Done:  E(RB3LYP) =  -796.328421308     A.U. after   16 cycles
 SCF Done:  E(RB3LYP) =  -796.331283308     A.U. after   13 cycles
 SCF Done:  E(RB3LYP) =  -796.331441486     A.U. after   17 cycles
 SCF Done:  E(RB3LYP) =  -796.331673815     A.U. after   15 cycles
 SCF Done:  E(RB3LYP) =  -796.332063675     A.U. after   14 cycles
 SCF Done:  E(RB3LYP) =  -796.332239591     A.U. after   13 cycles
 SCF Done:  E(RB3LYP) =  -796.332262648     A.U. after   13 cycles
 SCF Done:  E(RB3LYP) =  -796.332297145     A.U. after   12 cycles
 SCF Done:  E(RB3LYP) =  -796.332300777     A.U. after   11 cycles
 SCF Done:  E(RB3LYP) =  -796.332301408     A.U. after   11 cycles
 SCF Done:  E(RB3LYP) =  -796.332301422     A.U. after   10 cycles
 Optimization completed.
    -- Stationary point found.
 Normal termination of Gaussian 09 at Thu Jul 29 00:41:39 2021.

 ----------------------------------------------------------------------
 #N Geom=AllCheck Guess=TCheck SCRF=Check GenChk RB3LYP/6-311++G(d,p) F
 req
 ----------------------------------------------------------------------

 Structure from the checkpoint file:  "conf-490.chk"
 ------------------------------------------------------------
 Candidate Structure: Conf:490 OPT and FREQ calc in gas phase
 ------------------------------------------------------------
 Charge =  0 Multiplicity = 1

                          Input orientation:
 ---------------------------------------------------------------------
 Center     Atomic      Atomic             Coordinates (Angstroms)
 Number     Number       Type             X           Y           Z
 ---------------------------------------------------------------------
      1          8           0        0.892324    0.621570   -2.312959
      2          6           0        1.574398    0.207682   -1.381390
      3          7           0        1.073035    0.042380   -0.126829
      4          6           0       -0.284149    0.430484    0.184122
      5          6           0       -0.382465    0.735645    1.681947
      6          8           0       -1.506009    1.368202    2.080126
      7          8           0        0.464058    0.431731    2.479349
      8          6           0       -1.302658   -0.670005   -0.254773
      9          6           0       -2.741178   -0.284646   -0.098763
     10          6           0       -3.509075    0.698385   -0.685152
     11          7           0       -4.798345    0.674220   -0.199065
     12          6           0       -4.825517   -0.306451    0.671028
     13          7           0       -3.607936   -0.919566    0.772643
     14          6           0        3.041398   -0.172875   -1.577379
     15          6           0        4.000553    0.160957   -0.426625
     16          7           0        3.717051   -0.657931    0.763495
     17          1           0        1.699587   -0.265033    0.619552
     18          1           0       -0.520991    1.337021   -0.382556
     19          1           0       -2.118571    1.489807    1.336001
     20          1           0       -1.084002   -0.873561   -1.304979
     21          1           0       -1.089046   -1.585433    0.305165
     22          1           0       -3.208529    1.401622   -1.447421
     23          1           0       -5.680734   -0.616965    1.251682
     24          1           0       -3.372485   -1.681764    1.389935
     25          1           0        3.082565   -1.248952   -1.789298
     26          1           0        3.361824    0.334203   -2.489158
     27          1           0        5.031215    0.048679   -0.789700
     28          1           0        3.877747    1.210452   -0.144009
     29          1           0        4.185463   -0.294938    1.586546
     30          1           0        4.030281   -1.615036    0.633076
 ---------------------------------------------------------------------

 SCF Done:  E(RB3LYP) =  -796.332301422     A.U. after    1 cycles

 Alpha  occ. eigenvalues --  -19.18141 -19.12627 -19.09239 -14.38864 -14.33866
 Alpha  occ. eigenvalues --  -14.32064 -14.30967 -10.32059 -10.27788 -10.24610
 Alpha  occ. eigenvalues --  -10.24080 -10.22808 -10.21901 -10.21042 -10.19960
 Alpha  occ. eigenvalues --  -10.18944  -1.12186  -1.04634  -1.04138  -1.03648
 Alpha  occ. eigenvalues --   -0.93685  -0.90823  -0.89235  -0.81932  -0.77716
 Alpha  occ. eigenvalues --   -0.74749  -0.69068  -0.64985  -0.63546  -0.63196
 Alpha  occ. eigenvalues --   -0.61174  -0.58822  -0.57316  -0.55125  -0.52443
 Alpha  occ. eigenvalues --   -0.50621  -0.48878  -0.48368  -0.47225  -0.46982
 Alpha  occ. eigenvalues --   -0.46027  -0.45112  -0.44378  -0.44070  -0.42724
 Alpha  occ. eigenvalues --   -0.42346  -0.41139  -0.40651  -0.40145  -0.39034
 Alpha  occ. eigenvalues --   -0.38163  -0.35906  -0.33995  -0.30528  -0.29816
 Alpha  occ. eigenvalues --   -0.28813  -0.27583  -0.27274  -0.26086  -0.24678
 Alpha virt. eigenvalues --   -0.02605  -0.02078  -0.01800  -0.00349  -0.00035
 Alpha virt. eigenvalues --    0.00331   0.00724   0.01115   0.01518   0.01906
 Alpha virt. eigenvalues --    0.02641   0.03132   0.03704   0.04093   0.04298

 Mulliken charges:
               1
     1  O   -0.330172
     2  C   -0.092647
     3  N   -0.024994
     4  C   -0.125925
     5  C   -0.248904
     6  O   -0.099633
     7  O   -0.251425
     8  C   -0.814375
     9  C    0.431991
    10  C   -0.431945
    11  N   -0.098398
    12  C    0.106620
    13  N   -0.102276
    14  C   -0.337709
    15  C   -0.395473
    16  N   -0.447234
    17  H    0.415577
    18  H    0.286402
    19  H    0.332024
    20  H    0.272710
    21  H    0.141978
    22  H    0.162909
    23  H    0.173092
    24  H    0.307270
    25  H    0.188196
    26  H    0.173043
    27  H    0.167549
    28  H    0.175178
    29  H    0.249124
    30  H    0.217446
 Sum of Mulliken charges =   0.00000

 Dipole moment (field-independent basis, Debye):
    X=              3.2363    Y=             -4.0107    Z=              1.1618  Tot=              5.2829
 Quadrupole moment (field-independent basis, Debye-Ang):
   XX=            -85.2014   YY=            -90.4835   ZZ=           -112.5291
   XY=              8.3142   XZ=             -7.5741   YZ=             -3.4647

  Exact polarizability: 187.604  -8.130 113.921  -5.395  -9.444 135.895
 Approx polarizability: 231.918 -18.269 185.583   2.467 -25.864 209.195

                      1                      2                      3
                      A                      A                      A
 Frequencies --     21.9577                35.0650                46.4469
 Red. masses --      4.6445                 5.1402                 4.6846
 Frc consts  --      0.0013                 0.0037                 0.0060
 IR Inten    --      0.8690                 7.5956                 3.0787

                      4                      5                      6
                      A                      A                      A
 Frequencies --     57.8317                78.7864                83.8440
 Red. masses --      4.4568                 5.4243                 5.1765
 Frc consts  --      0.0088                 0.0198                 0.0214
 IR Inten    --      6.3830                 2.5889                 3.4449

                      7                      8                      9
                      A                      A                      A
 Frequencies --     99.5935               118.2694               172.7820
 Red. masses --      6.8034                 4.2670                 5.1846
 Frc consts  --      0.0398                 0.0352                 0.0912
 IR Inten    --      7.2164                 5.1341                 8.2288

                     10                     11                     12
                      A                      A                      A
 Frequencies --    197.0605               221.7615               286.5911
 Red. masses --      2.2915                 5.1610                 7.9662
 Frc consts  --      0.0524                 0.1495                 0.3855
 IR Inten    --      6.8480                 5.2867                 0.6601

                     13                     14                     15
                      A                      A                      A
 Frequencies --    290.9537               329.5622               343.2779
 Red. masses --      1.2715                 2.2133                 3.6514
 Frc consts  --      0.0634                 0.1416                 0.2535
 IR Inten    --      9.5692                 7.3533                11.5028

                     16                     17                     18
                      A                      A                      A
 Frequencies --    344.3851               391.6372               471.9906
 Red. masses --      6.5341                 4.3938                 2.7616
 Frc consts  --      0.4566                 0.3971                 0.3625
 IR Inten    --      3.4702                19.5027                12.6140

                     19                     20                     21
                      A                      A                      A
 Frequencies --    507.6678               538.2783               584.4768
 Red. masses --      3.1030                 1.3908                 1.2777
 Frc consts  --      0.4712                 0.2374                 0.2572
 IR Inten    --     27.2233                89.3556                88.9441

                     22                     23                     24
                      A                      A                      A
 Frequencies --    600.0843               640.8888               664.8868
 Red. masses --      4.0368                 3.4991                 3.1543
 Frc consts  --      0.8565                 0.8468                 0.8216
 IR Inten    --      1.3991                 1.9361                18.4181

                     25                     26                     27
                      A                      A                      A
 Frequencies --    677.1493               692.4254               733.9410
 Red. masses --      3.0543                 3.0657                 3.3852
 Frc consts  --      0.8252                 0.8660                 1.0744
 IR Inten    --     10.4785                29.1512                 6.7776

                     28                     29                     30
                      A                      A                      A
 Frequencies --    757.3653               792.6336               812.8747
 Red. masses --      2.9057                 1.4398                 2.1548
 Frc consts  --      0.9820                 0.5329                 0.8389
 IR Inten    --      5.6172                32.9175                16.8548

                     31                     32                     33
                      A                      A                      A
 Frequencies --    818.7671               835.3629               855.9589
 Red. masses --      1.5395                 1.4071                 1.3989
 Frc consts  --      0.6081                 0.5785                 0.6039
 IR Inten    --     14.8076                96.9817                26.5058

                     34                     35                     36
                      A                      A                      A
 Frequencies --    887.8683               914.7565               935.2368
 Red. masses --      2.7439                 2.0368                 5.8361
 Frc consts  --      1.2744                 1.0042                 3.0076
 IR Inten    --     11.5497                14.7577                 9.4264

                     37                     38                     39
                      A                      A                      A
 Frequencies --    972.5044               999.2573              1009.7291
 Red. masses --      2.1943                 1.6810                 3.4159
 Frc consts  --      1.2227                 0.9889                 2.0519
 IR Inten    --     16.1014                23.4598                 2.0047

                     40                     41                     42
                      A                      A                      A
 Frequencies --   1024.0834              1032.9565              1080.5477
 Red. masses --      4.3553                 2.9192                 2.6483
 Frc consts  --      2.6912                 1.8352                 1.8218
 IR Inten    --      8.0435                 6.6578                 8.3580

                     43                     44                     45
                      A                      A                      A
 Frequencies --   1107.4028              1136.4977              1141.2079
 Red. masses --      1.6443                 3.0891                 2.2084
 Frc consts  --      1.1881                 2.3508                 1.6945
 IR Inten    --     15.7002                26.8449                13.6420

                     46                     47                     48
                      A                      A                      A
 Frequencies --   1157.4097              1161.0108              1192.0646
 Red. masses --      1.5165                 1.4768                 2.2458
 Frc consts  --      1.1969                 1.1728                 1.8803
 IR Inten    --     20.1681                 6.7676                13.7650

                     49                     50                     51
                      A                      A                      A
 Frequencies --   1244.6691              1252.4796              1277.0206
 Red. masses --      1.6531                 1.9266                 1.4053
 Frc consts  --      1.5089                 1.7806                 1.3502
 IR Inten    --     32.5288                28.9350                 0.8489

                     52                     53                     54
                      A                      A                      A
 Frequencies --   1295.7189              1310.5189              1313.2546
 Red. masses --      1.3086                 1.4196                 1.3477
 Frc consts  --      1.2944                 1.4365                 1.3694
 IR Inten    --      6.4691               112.7322                 5.8699

                     55                     56                     57
                      A                      A                      A
 Frequencies --   1318.1975              1356.7559              1368.4785
 Red. masses --      1.5288                 1.3613                 1.3780
 Frc consts  --      1.5652                 1.4764                 1.5204
 IR Inten    --     45.0282                87.9531                12.7061

                     58                     59                     60
                      A                      A                      A
 Frequencies --   1392.1214              1400.3184              1417.5054
 Red. masses --      2.2873                 1.9103                 1.3953
 Frc consts  --      2.6117                 2.2071                 1.6518
 IR Inten    --     49.1647                58.3562                17.5974

                     61                     62                     63
                      A                      A                      A
 Frequencies --   1427.8482              1464.0748              1482.6312
 Red. masses --      3.0986                 1.0822                 1.3188
 Frc consts  --      3.7220                 1.3667                 1.7080
 IR Inten    --     21.3415                14.5211                11.8513

                     64                     65                     66
                      A                      A                      A
 Frequencies --   1490.5047              1510.3162              1546.4332
 Red. masses --      2.5946                 1.0967                 1.9656
 Frc consts  --      3.3962                 1.4739                 2.7695
 IR Inten    --     19.6807                11.9090               366.2575

                     67                     68                     69
                      A                      A                      A
 Frequencies --   1595.0319              1656.5328              1715.3508
 Red. masses --      4.0919                 1.0906                 8.8923
 Frc consts  --      6.1336                 1.7632                15.4159
 IR Inten    --      8.7752                37.3532               337.7653

                     70                     71                     72
                      A                      A                      A
 Frequencies --   1828.3068              2982.7793              3018.8358
 Red. masses --      9.9692                 1.0720                 1.0704
 Frc consts  --     19.6341                 5.6194                 5.7476
 IR Inten    --    296.2015                81.7468                 8.2032

                     73                     74                     75
                      A                      A                      A
 Frequencies --   3037.4793              3049.3133              3062.1433
 Red. masses --      1.0747                 1.0700                 1.0914
 Frc consts  --      5.8418                 5.8621                 6.0294
 IR Inten    --      6.3070                21.8726                24.5747

                     76                     77                     78
                      A                      A                      A
 Frequencies --   3094.2549              3099.5691              3234.0097
 Red. masses --      1.1028                 1.0924                 1.0963
 Frc consts  --      6.2207                 6.1833                 6.7556
 IR Inten    --      1.9753                10.0120                 3.6113

                     79                     80                     81
                      A                      A                      A
 Frequencies --   3245.2078              3407.7810              3503.6699
 Red. masses --      1.0981                 1.0816                 1.0501
 Frc consts  --      6.8135                 7.4007                 7.5946
 IR Inten    --      1.2114               324.0090                 0.3482

                     82                     83                     84
                      A                      A                      A
 Frequencies --   3583.7627              3641.2143              3681.9852
 Red. masses --      1.0934                 1.0815                 1.0668
 Frc consts  --      8.2739                 8.4480                 8.5212
 IR Inten    --      5.7664                54.8063               209.8200

 - Thermochemistry -
 -------------------
 Temperature   298.150 Kelvin.  Pressure   1.00000 Atm.
 Atom     1 has atomic number  8 and mass  15.99491

 Molecular mass:   226.10659 amu.
 Principal axes and moments of inertia in atomic units:
                           1         2         3
     Eigenvalues --  1673.830446706.388537678.94730
           X            0.99214   0.12447   0.01257
           Y           -0.02079   0.06503   0.99767
           Z           -0.12336   0.99009  -0.06711
 This molecule is an asymmetric top.
 Rotational symmetry number  1.
 Warning -- assumption of classical behavior for rotation
           may cause significant error
 Rotational temperatures (Kelvin)      0.05175     0.01292     0.01128
 Rotational constants (GHZ):           1.07821     0.26911     0.23502
 Zero-point vibrational energy     640978.1 (Joules/Mol)
                                  153.19744 (Kcal/Mol)
 Warning -- explicit consideration of  22 degrees of freedom as
           vibrations may cause significant error
 Vibrational temperatures:     31.59    50.45    66.83    83.21   113.36
          (Kelvin)            120.63   143.29   170.16   248.59   283.53
                              319.06   412.34   418.62   474.17   493.90
                              495.49   563.48   679.09   730.42   774.46
                              840.93   863.39   922.09   956.62   974.27
                              996.24  1055.98  1089.68  1140.42  1169.54
                             1178.02  1201.90  1231.53  1277.44  1316.13
                             1345.60  1399.22  1437.71  1452.77  1473.43
                             1486.19  1554.67  1593.30  1635.16  1641.94
                             1665.25  1670.43  1715.11  1790.80  1802.04
                             1837.35  1864.25  1885.54  1889.48  1896.59
                             1952.07  1968.93  2002.95  2014.74  2039.47
                             2054.35  2106.47  2133.17  2144.50  2173.01
                             2224.97  2294.89  2383.38  2468.00  2630.52
                             4291.55  4343.43  4370.25  4387.28  4405.74
                             4451.94  4459.58  4653.01  4669.12  4903.03
                             5040.99  5156.23  5238.89  5297.55

 Zero-point correction=                           0.244136 (Hartree/Particle)
 Thermal correction to Energy=                    0.260067
 Thermal correction to Enthalpy=                  0.261012
 Thermal correction to Gibbs Free Energy=         0.198199
 Sum of electronic and zero-point Energies=           -796.088166
 Sum of electronic and thermal Energies=              -796.072234
 Sum of electronic and thermal Enthalpies=            -796.071290
 Sum of electronic and thermal Free Energies=         -796.134102

                     E (Thermal)             CV                S
                      KCal/Mol        Cal/Mol-Kelvin    Cal/Mol-Kelvin
 Total                  163.195             58.125            132.200
 Electronic               0.000              0.000              0.000
 Translational            0.889              2.981             42.150
 Rotational               0.889              2.981             32.822
 Vibrational            161.417             52.163             57.228
 Vibration     1          0.593              1.985              6.449
 Vibration     2          0.594              1.982              5.520
 Vibration     3          0.595              1.979              4.963
 Vibration     4          0.596              1.974              4.530
 Vibration     5          0.600              1.963              3.921
 Vibration     6          0.601              1.960              3.799
 Vibration     7          0.604              1.949              3.462
 Vibration     8          0.608              1.934              3.128
 Vibration     9          0.626              1.876              2.405
 Vibration    10          0.636              1.844              2.160
 Vibration    11          0.648              1.808              1.945
 Vibration    12          0.684              1.699              1.494
 Vibration    13          0.687              1.691              1.468
 Vibration    14          0.712              1.616              1.262
 Vibration    15          0.722              1.589              1.197
 Vibration    16          0.723              1.587              1.192
 Vibration    17          0.759              1.488              0.994
 Vibration    18          0.829              1.312              0.732
 Vibration    19          0.863              1.233              0.639
 Vibration    20          0.893              1.165              0.569
 Vibration    21          0.941              1.065              0.477
 Vibration    22          0.958              1.032              0.450

 Optimization completed.
    -- Stationary point found.
 Normal termination of Gaussian 09 at Thu Jul 29 01:53:11 2021.
