 Gaussian 09, Revision D.01,
 Gaussian 09:  ES64L-G09RevD.01 24-Apr-2013

 ----------------------------------------------------------------------
 # B3LYP/6-311++G(d,p) opt=calcfc freq=noraman nosymm integral(ultrafin
 egrid)
 ----------------------------------------------------------------------

 ------------------------------------------------------------
 Candidate Structure: Conf:273 OPT and FREQ calc in gas phase
 ------------------------------------------------------------
 Symbolic Z-matrix:
 Charge =  0 Multiplicity = 1

 SCF Done:  E(RB3LYP) =  -796.329512229     A.U. after   15 cycles
 SCF Done:  E(RB3LYP) =  -796.331586830     A.U. after   15 cycles
 SCF Done:  E(RB3LYP) =  -796.331798136     A.U. after   15 cycles
 SCF Done:  E(RB3LYP) =  -796.331880975     A.U. after   12 cycles
 SCF Done:  E(RB3LYP) =  -796.331902810     A.U. after   12 cycles
 SCF Done:  E(RB3LYP) =  -796.331905675     A.U. after   10 cycles
 SCF Done:  E(RB3LYP) =  -796.331905788     A.U. after    9 cycles
 SCF Done:  E(RB3LYP) =  -796.331905793     A.U. after    8 cycles
 Optimization completed.
    -- Stationary point found.
 Normal termination of Gaussian 09 at Thu Jul 29 00:09:34 2021.

 ----------------------------------------------------------------------
 #N Geom=AllCheck Guess=TCheck SCRF=Check GenChk RB3LYP/6-311++G(d,p) F
 req
 ----------------------------------------------------------------------

 Structure from the checkpoint file:  "conf-273.chk"
 ------------------------------------------------------------
 Candidate Structure: Conf:273 OPT and FREQ calc in gas phase
 ------------------------------------------------------------
 Charge =  0 Multiplicity = 1

                          Input orientation:
 ---------------------------------------------------------------------
 Center     Atomic      Atomic             Coordinates (Angstroms)
 Number     Number       Type             X           Y           Z
 ---------------------------------------------------------------------
      1          8           0        0.646808   -1.671969    1.648839
      2          6           0        0.878885   -0.648801    0.996587
      3          7           0        0.307689   -0.444533   -0.216869
      4          6           0       -0.799344   -1.264580   -0.731323
      5          6           0       -0.296856   -2.638335   -1.255065
      6          8           0        0.296914   -3.409800   -0.344925
      7          8           0       -0.455873   -2.992532   -2.394765
      8          6           0       -1.550323   -0.521665   -1.837045
      9          6           0       -2.180137    0.764050   -1.393349
     10          6           0       -2.436103    1.331392   -0.167512
     11          7           0       -3.087484    2.538315   -0.305664
     12          6           0       -3.232238    2.711167   -1.595936
     13          7           0       -2.697113    1.669391   -2.303838
     14          6           0        1.796568    0.439753    1.512775
     15          6           0        3.021535   -0.122204    2.241170
     16          7           0        3.794963    0.974114    2.830071
     17          1           0        0.480242    0.433516   -0.683864
     18          1           0       -1.475004   -1.471528    0.107285
     19          1           0        0.370025   -2.935569    0.521152
     20          1           0       -2.307166   -1.207010   -2.229093
     21          1           0       -0.861209   -0.348140   -2.672013
     22          1           0       -2.191417    0.942239    0.808592
     23          1           0       -3.703792    3.555288   -2.075902
     24          1           0       -2.700251    1.565189   -3.307007
     25          1           0        2.103533    1.101762    0.695982
     26          1           0        1.222191    1.051809    2.217002
     27          1           0        2.675423   -0.772739    3.045588
     28          1           0        3.599295   -0.751420    1.547356
     29          1           0        4.489493    0.620084    3.478330
     30          1           0        4.290713    1.503057    2.119480
 ---------------------------------------------------------------------

 SCF Done:  E(RB3LYP) =  -796.331905793     A.U. after    1 cycles

 Alpha  occ. eigenvalues --  -19.16177 -19.12902 -19.11766 -14.38770 -14.37942
 Alpha  occ. eigenvalues --  -14.31035 -14.30878 -10.31312 -10.31027 -10.25857
 Alpha  occ. eigenvalues --  -10.24081 -10.22811 -10.21601 -10.21341 -10.20295
 Alpha  occ. eigenvalues --  -10.19924  -1.11162  -1.07894  -1.03603  -1.02950
 Alpha  occ. eigenvalues --   -0.96669  -0.90215  -0.89218  -0.83084  -0.78548
 Alpha  occ. eigenvalues --   -0.75526  -0.69381  -0.65672  -0.63524  -0.62343
 Alpha  occ. eigenvalues --   -0.61666  -0.60640  -0.57306  -0.54549  -0.53944
 Alpha  occ. eigenvalues --   -0.52704  -0.51044  -0.48340  -0.47411  -0.46941
 Alpha  occ. eigenvalues --   -0.46008  -0.45348  -0.44649  -0.44094  -0.43855
 Alpha  occ. eigenvalues --   -0.42862  -0.42687  -0.41189  -0.40395  -0.38530
 Alpha  occ. eigenvalues --   -0.38272  -0.37046  -0.32683  -0.31929  -0.30395
 Alpha  occ. eigenvalues --   -0.29968  -0.28859  -0.27832  -0.26063  -0.24777
 Alpha virt. eigenvalues --   -0.03047  -0.02512  -0.02019  -0.01233  -0.00749
 Alpha virt. eigenvalues --   -0.00586   0.00143   0.00631   0.01410   0.01639
 Alpha virt. eigenvalues --    0.02304   0.03161   0.03837   0.04029   0.04076

 Mulliken charges:
               1
     1  O   -0.320561
     2  C   -0.010686
     3  N    0.047188
     4  C    0.165385
     5  C   -0.095749
     6  O   -0.169205
     7  O   -0.254267
     8  C   -0.630922
     9  C   -0.036683
    10  C   -0.609380
    11  N   -0.120000
    12  C    0.174182
    13  N   -0.139130
    14  C   -0.333621
    15  C   -0.499440
    16  N   -0.328620
    17  H    0.288106
    18  H    0.251594
    19  H    0.311954
    20  H    0.251743
    21  H    0.225159
    22  H    0.169561
    23  H    0.187419
    24  H    0.306568
    25  H    0.135981
    26  H    0.234758
    27  H    0.201189
    28  H    0.150555
    29  H    0.243801
    30  H    0.203119
 Sum of Mulliken charges =   0.00000

 Dipole moment (field-independent basis, Debye):
    X=              1.6912    Y=              3.8491    Z=             -2.3408  Tot=              4.8119
 Quadrupole moment (field-independent basis, Debye-Ang):
   XX=            -85.6111   YY=           -119.7825   ZZ=            -93.2640
   XY=              5.2519   XZ=             13.3903   YZ=            -18.9459

  Exact polarizability: 133.219 -15.072 150.734  24.617   4.003 150.238
 Approx polarizability: 171.192 -15.492 210.989  14.310  -0.671 239.934

                      1                      2                      3
                      A                      A                      A
 Frequencies --     25.1639                30.2430                45.1867
 Red. masses --      4.6647                 3.2174                 3.2191
 Frc consts  --      0.0017                 0.0017                 0.0039
 IR Inten    --      0.6561                 2.1205                 6.0552

                      4                      5                      6
                      A                      A                      A
 Frequencies --     61.9724                71.4696                83.6300
 Red. masses --      6.0895                 3.7824                 4.9746
 Frc consts  --      0.0138                 0.0114                 0.0205
 IR Inten    --      4.3602                11.3362                 0.6934

                      7                      8                      9
                      A                      A                      A
 Frequencies --     87.4309               154.3709               172.0330
 Red. masses --      4.0846                 4.7880                 3.9463
 Frc consts  --      0.0184                 0.0672                 0.0688
 IR Inten    --      1.5044                13.5349                 3.0375

                     10                     11                     12
                      A                      A                      A
 Frequencies --    212.7156               222.0321               235.4343
 Red. masses --      6.9362                 2.7502                 1.5992
 Frc consts  --      0.1849                 0.0799                 0.0522
 IR Inten    --      7.0489                14.3451                21.1662

                     13                     14                     15
                      A                      A                      A
 Frequencies --    258.7243               282.2330               312.9050
 Red. masses --      2.7330                 3.7362                 6.2408
 Frc consts  --      0.1078                 0.1753                 0.3600
 IR Inten    --     18.7397                14.3676                 5.6366

                     16                     17                     18
                      A                      A                      A
 Frequencies --    355.4101               384.0547               437.3453
 Red. masses --      5.8187                 4.4889                 2.9918
 Frc consts  --      0.4330                 0.3901                 0.3372
 IR Inten    --      1.9668                 2.1571                 5.8921

                     19                     20                     21
                      A                      A                      A
 Frequencies --    474.4381               517.7254               541.5064
 Red. masses --      1.2616                 1.4559                 4.3829
 Frc consts  --      0.1673                 0.2299                 0.7572
 IR Inten    --     83.8271                75.7033                15.5562

                     22                     23                     24
                      A                      A                      A
 Frequencies --    621.3705               628.1309               645.4968
 Red. masses --      5.4981                 2.7339                 2.3985
 Frc consts  --      1.2507                 0.6355                 0.5888
 IR Inten    --     13.0981                15.1983                18.3676

                     25                     26                     27
                      A                      A                      A
 Frequencies --    674.9214               728.8298               752.2059
 Red. masses --      3.0492                 4.5897                 3.9323
 Frc consts  --      0.8184                 1.4364                 1.3109
 IR Inten    --      5.5344                 2.1358                 9.3711

                     28                     29                     30
                      A                      A                      A
 Frequencies --    770.9251               799.0174               810.1583
 Red. masses --      4.5188                 1.4634                 1.3951
 Frc consts  --      1.5823                 0.5505                 0.5395
 IR Inten    --     32.2787                20.9495                20.2170

                     31                     32                     33
                      A                      A                      A
 Frequencies --    828.2130               842.5783               874.0245
 Red. masses --      1.3338                 1.3528                 2.1377
 Frc consts  --      0.5390                 0.5659                 0.9622
 IR Inten    --     91.8477                12.5364                28.7174

                     34                     35                     36
                      A                      A                      A
 Frequencies --    890.1402               931.8452               941.9515
 Red. masses --      1.1710                 5.2916                 3.9031
 Frc consts  --      0.5467                 2.7072                 2.0404
 IR Inten    --     80.2600                12.0249                 3.8878

                     37                     38                     39
                      A                      A                      A
 Frequencies --    962.2064               995.5757              1022.3157
 Red. masses --      2.7233                 2.6409                 3.8829
 Frc consts  --      1.4855                 1.5423                 2.3910
 IR Inten    --      3.6875                 1.6704                 9.1542

                     40                     41                     42
                      A                      A                      A
 Frequencies --   1059.7434              1081.4885              1091.6487
 Red. masses --      2.8813                 2.4973                 2.4177
 Frc consts  --      1.9065                 1.7210                 1.6975
 IR Inten    --     20.0131                14.0481                29.1078

                     43                     44                     45
                      A                      A                      A
 Frequencies --   1107.1630              1112.0006              1146.1379
 Red. masses --      1.7596                 2.6938                 2.4307
 Frc consts  --      1.2708                 1.9626                 1.8813
 IR Inten    --     14.7604                 8.6590                16.6001

                     46                     47                     48
                      A                      A                      A
 Frequencies --   1157.5826              1195.9128              1216.0138
 Red. masses --      1.3599                 1.7851                 2.5830
 Frc consts  --      1.0737                 1.5042                 2.2504
 IR Inten    --      4.0878                28.3595                27.0911

                     49                     50                     51
                      A                      A                      A
 Frequencies --   1235.4533              1261.4174              1277.0558
 Red. masses --      1.5745                 1.4535                 1.5081
 Frc consts  --      1.4159                 1.3626                 1.4491
 IR Inten    --     20.9723                 5.1755                11.6059

                     52                     53                     54
                      A                      A                      A
 Frequencies --   1280.9360              1315.7308              1338.4440
 Red. masses --      1.5073                 1.5728                 1.1123
 Frc consts  --      1.4571                 1.6042                 1.1740
 IR Inten    --     45.5146                 9.3359                 6.2264

                     55                     56                     57
                      A                      A                      A
 Frequencies --   1352.5980              1367.5194              1380.4844
 Red. masses --      1.7655                 1.5024                 1.4880
 Frc consts  --      1.9030                 1.6554                 1.6708
 IR Inten    --      1.5067                 5.6460                 9.2780

                     58                     59                     60
                      A                      A                      A
 Frequencies --   1418.7580              1423.9209              1424.7187
 Red. masses --      2.1187                 2.6210                 1.5317
 Frc consts  --      2.5127                 3.1311                 1.8318
 IR Inten    --      9.6576                13.7503                33.1908

                     61                     62                     63
                      A                      A                      A
 Frequencies --   1446.3748              1466.7168              1482.5381
 Red. masses --      1.3806                 1.1000                 1.1667
 Frc consts  --      1.7017                 1.3942                 1.5109
 IR Inten    --    262.4080                10.5982                30.8046

                     64                     65                     66
                      A                      A                      A
 Frequencies --   1500.4186              1516.9479              1532.8355
 Red. masses --      3.4603                 1.0830                 2.1478
 Frc consts  --      4.5897                 1.4683                 2.9732
 IR Inten    --     20.0239                 2.0733               337.0432

                     67                     68                     69
                      A                      A                      A
 Frequencies --   1605.7672              1665.2895              1686.6309
 Red. masses --      4.2439                 1.0999                 6.9284
 Frc consts  --      6.4473                 1.7972                11.6125
 IR Inten    --      9.6178                27.0410               242.6934

                     70                     71                     72
                      A                      A                      A
 Frequencies --   1821.5589              2962.7643              3019.6957
 Red. masses --      9.1290                 1.0739                 1.0771
 Frc consts  --     17.8467                 5.5539                 5.7866
 IR Inten    --    391.5640                57.9364                 4.0302

                     73                     74                     75
                      A                      A                      A
 Frequencies --   3027.3985              3031.3721              3064.0146
 Red. masses --      1.0598                 1.0721                 1.0994
 Frc consts  --      5.7229                 5.8044                 6.0813
 IR Inten    --     14.0654                14.1386                 5.9698

                     76                     77                     78
                      A                      A                      A
 Frequencies --   3065.1446              3098.1548              3238.8966
 Red. masses --      1.0953                 1.0915                 1.0951
 Frc consts  --      6.0630                 6.1726                 6.7686
 IR Inten    --      6.0702                13.3150                 7.3679

                     79                     80                     81
                      A                      A                      A
 Frequencies --   3243.4818              3307.6773              3504.7500
 Red. masses --      1.0989                 1.0730                 1.0500
 Frc consts  --      6.8113                 6.9169                 7.5987
 IR Inten    --      1.3657               691.5026                 0.4131

                     82                     83                     84
                      A                      A                      A
 Frequencies --   3584.4160              3616.1118              3641.1065
 Red. masses --      1.0932                 1.0781                 1.0813
 Frc consts  --      8.2750                 8.3063                 8.4462
 IR Inten    --      2.8314                38.4291                57.0478

 - Thermochemistry -
 -------------------
 Temperature   298.150 Kelvin.  Pressure   1.00000 Atm.
 Atom     1 has atomic number  8 and mass  15.99491

 Molecular mass:   226.10659 amu.
 Principal axes and moments of inertia in atomic units:
                           1         2         3
     Eigenvalues --  3055.653795636.448648077.42853
           X            0.79560   0.05546  -0.60328
           Y           -0.29335   0.90654  -0.30353
           Z            0.53006   0.41846   0.73751
 This molecule is an asymmetric top.
 Rotational symmetry number  1.
 Warning -- assumption of classical behavior for rotation
           may cause significant error
 Rotational temperatures (Kelvin)      0.02835     0.01537     0.01072
 Rotational constants (GHZ):           0.59062     0.32019     0.22343
 Zero-point vibrational energy     640365.3 (Joules/Mol)
                                  153.05098 (Kcal/Mol)
 Warning -- explicit consideration of  21 degrees of freedom as
           vibrations may cause significant error
 Vibrational temperatures:     36.21    43.51    65.01    89.16   102.83
          (Kelvin)            120.32   125.79   222.11   247.52   306.05
                              319.45   338.74   372.25   406.07   450.20
                              511.36   552.57   629.24   682.61   744.89
                              779.11   894.01   903.74   928.72   971.06
                             1048.62  1082.26  1109.19  1149.61  1165.64
                             1191.61  1212.28  1257.52  1280.71  1340.72
                             1355.26  1384.40  1432.41  1470.88  1524.73
                             1556.02  1570.64  1592.96  1599.92  1649.03
                             1665.50  1720.65  1749.57  1777.54  1814.90
                             1837.40  1842.98  1893.04  1925.72  1946.08
                             1967.55  1986.21  2041.27  2048.70  2049.85
                             2081.01  2110.28  2133.04  2158.77  2182.55
                             2205.41  2310.34  2395.98  2426.68  2620.81
                             4262.75  4344.66  4355.75  4361.46  4408.43
                             4410.05  4457.55  4660.04  4666.64  4759.00
                             5042.55  5157.17  5202.77  5238.73

 Zero-point correction=                           0.243902 (Hartree/Particle)
 Thermal correction to Energy=                    0.260027
 Thermal correction to Enthalpy=                  0.260971
 Thermal correction to Gibbs Free Energy=         0.197526
 Sum of electronic and zero-point Energies=           -796.088004
 Sum of electronic and thermal Energies=              -796.071879
 Sum of electronic and thermal Enthalpies=            -796.070935
 Sum of electronic and thermal Free Energies=         -796.134380

                     E (Thermal)             CV                S
                      KCal/Mol        Cal/Mol-Kelvin    Cal/Mol-Kelvin
 Total                  163.169             58.295            133.531
 Electronic               0.000              0.000              0.000
 Translational            0.889              2.981             42.150
 Rotational               0.889              2.981             33.297
 Vibrational            161.392             52.333             58.084
 Vibration     1          0.593              1.985              6.178
 Vibration     2          0.594              1.984              5.813
 Vibration     3          0.595              1.979              5.018
 Vibration     4          0.597              1.972              4.393
 Vibration     5          0.598              1.968              4.112
 Vibration     6          0.601              1.960              3.804
 Vibration     7          0.601              1.958              3.717
 Vibration     8          0.620              1.898              2.618
 Vibration     9          0.626              1.877              2.413
 Vibration    10          0.644              1.822              2.020
 Vibration    11          0.648              1.808              1.942
 Vibration    12          0.655              1.787              1.837
 Vibration    13          0.668              1.748              1.670
 Vibration    14          0.681              1.707              1.520
 Vibration    15          0.701              1.649              1.347
 Vibration    16          0.731              1.564              1.142
 Vibration    17          0.753              1.504              1.023
 Vibration    18          0.798              1.389              0.835
 Vibration    19          0.831              1.307              0.725
 Vibration    20          0.873              1.211              0.615
 Vibration    21          0.897              1.158              0.562

 Optimization completed.
    -- Stationary point found.
 Normal termination of Gaussian 09 at Thu Jul 29 01:20:05 2021.
