 Gaussian 09, Revision D.01,
 Gaussian 09:  ES64L-G09RevD.01 24-Apr-2013

 ----------------------------------------------------------------------
 # B3LYP/6-311++G(d,p) opt=calcfc freq=noraman nosymm integral(ultrafin
 egrid)
 ----------------------------------------------------------------------

 ------------------------------------------------------------
 Candidate Structure: Conf:455 OPT and FREQ calc in gas phase
 ------------------------------------------------------------
 Symbolic Z-matrix:
 Charge =  0 Multiplicity = 1

 SCF Done:  E(RB3LYP) =  -796.318175248     A.U. after   16 cycles
 SCF Done:  E(RB3LYP) =  -796.320294806     A.U. after   13 cycles
 SCF Done:  E(RB3LYP) =  -796.320726711     A.U. after   14 cycles
 SCF Done:  E(RB3LYP) =  -796.320810057     A.U. after   14 cycles
 SCF Done:  E(RB3LYP) =  -796.320829833     A.U. after   13 cycles
 SCF Done:  E(RB3LYP) =  -796.320870286     A.U. after   13 cycles
 SCF Done:  E(RB3LYP) =  -796.320877431     A.U. after   12 cycles
 SCF Done:  E(RB3LYP) =  -796.320878199     A.U. after   10 cycles
 SCF Done:  E(RB3LYP) =  -796.320878217     A.U. after    9 cycles
 Optimization completed.
    -- Stationary point found.
 Normal termination of Gaussian 09 at Thu Jul 29 00:23:33 2021.

 ----------------------------------------------------------------------
 #N Geom=AllCheck Guess=TCheck SCRF=Check GenChk RB3LYP/6-311++G(d,p) F
 req
 ----------------------------------------------------------------------

 Structure from the checkpoint file:  "conf-455.chk"
 ------------------------------------------------------------
 Candidate Structure: Conf:455 OPT and FREQ calc in gas phase
 ------------------------------------------------------------
 Charge =  0 Multiplicity = 1

                          Input orientation:
 ---------------------------------------------------------------------
 Center     Atomic      Atomic             Coordinates (Angstroms)
 Number     Number       Type             X           Y           Z
 ---------------------------------------------------------------------
      1          8           0        0.367378   -0.562877   -1.220668
      2          6           0        1.015951   -0.334316   -0.204740
      3          7           0        0.535460   -0.595761    1.048658
      4          6           0       -0.578233   -1.485229    1.338986
      5          6           0       -0.120632   -2.959610    1.191033
      6          8           0       -1.085691   -3.900725    1.335730
      7          8           0        1.017874   -3.283806    1.015529
      8          6           0       -1.896220   -1.181483    0.565173
      9          6           0       -2.307693    0.254686    0.550904
     10          6           0       -3.129046    0.996507    1.367453
     11          7           0       -3.216654    2.295315    0.924039
     12          6           0       -2.462229    2.345609   -0.151553
     13          7           0       -1.892005    1.137553   -0.424250
     14          6           0        2.398077    0.296351   -0.260456
     15          6           0        2.476154    1.468908   -1.260575
     16          7           0        3.801991    2.047691   -1.452628
     17          1           0        1.192562   -0.476610    1.804341
     18          1           0       -0.796190   -1.346433    2.403827
     19          1           0       -1.959677   -3.501399    1.423014
     20          1           0       -2.705239   -1.738484    1.051748
     21          1           0       -1.808578   -1.553512   -0.455923
     22          1           0       -3.670384    0.663881    2.240949
     23          1           0       -2.298391    3.216452   -0.767953
     24          1           0       -1.244520    0.899812   -1.165616
     25          1           0        2.723951    0.624378    0.732212
     26          1           0        3.084727   -0.497243   -0.577866
     27          1           0        2.104345    1.126767   -2.227930
     28          1           0        1.805137    2.268587   -0.930750
     29          1           0        4.192033    2.403098   -0.586187
     30          1           0        4.455650    1.371791   -1.833545
 ---------------------------------------------------------------------

 SCF Done:  E(RB3LYP) =  -796.320878217     A.U. after    1 cycles

 Alpha  occ. eigenvalues --  -19.19719 -19.13648 -19.11713 -14.37124 -14.37075
 Alpha  occ. eigenvalues --  -14.30809 -14.29847 -10.33083 -10.30267 -10.26746
 Alpha  occ. eigenvalues --  -10.22935 -10.22164 -10.21690 -10.21169 -10.19827
 Alpha  occ. eigenvalues --  -10.19027  -1.13442  -1.07077  -1.05438  -1.02407
 Alpha  occ. eigenvalues --   -0.96120  -0.90021  -0.88000  -0.82847  -0.77976
 Alpha  occ. eigenvalues --   -0.75123  -0.69680  -0.65979  -0.64130  -0.62221
 Alpha  occ. eigenvalues --   -0.61138  -0.60047  -0.57229  -0.54602  -0.54453
 Alpha  occ. eigenvalues --   -0.52391  -0.50214  -0.48460  -0.47656  -0.46909
 Alpha  occ. eigenvalues --   -0.46410  -0.45066  -0.44592  -0.43721  -0.43188
 Alpha  occ. eigenvalues --   -0.42577  -0.41886  -0.41684  -0.40832  -0.40101
 Alpha  occ. eigenvalues --   -0.38802  -0.36309  -0.35125  -0.31251  -0.29947
 Alpha  occ. eigenvalues --   -0.29203  -0.28814  -0.27774  -0.25478  -0.23881
 Alpha virt. eigenvalues --   -0.03903  -0.02627  -0.02398  -0.01589  -0.00858
 Alpha virt. eigenvalues --   -0.00125   0.00700   0.00995   0.01374   0.01807
 Alpha virt. eigenvalues --    0.02868   0.03181   0.03485   0.04034   0.04388

 Mulliken charges:
               1
     1  O   -0.299145
     2  C   -0.204295
     3  N   -0.014371
     4  C    0.091724
     5  C   -0.058811
     6  O   -0.101549
     7  O   -0.222184
     8  C   -0.941758
     9  C    0.349542
    10  C   -0.345643
    11  N   -0.130557
    12  C    0.041726
    13  N   -0.092723
    14  C   -0.173683
    15  C   -0.580518
    16  N   -0.317861
    17  H    0.329867
    18  H    0.234655
    19  H    0.245143
    20  H    0.127875
    21  H    0.274658
    22  H    0.134094
    23  H    0.162570
    24  H    0.326943
    25  H    0.115247
    26  H    0.208007
    27  H    0.207744
    28  H    0.173367
    29  H    0.227538
    30  H    0.232400
 Sum of Mulliken charges =   0.00000

 Dipole moment (field-independent basis, Debye):
    X=              1.2151    Y=             -0.4294    Z=              1.9850  Tot=              2.3667
 Quadrupole moment (field-independent basis, Debye-Ang):
   XX=            -95.9959   YY=           -117.9575   ZZ=            -93.4051
   XY=             17.1717   XZ=              4.1804   YZ=             -3.7429

  Exact polarizability: 153.991  -3.063 155.310 -17.395 -14.243 125.187
 Approx polarizability: 209.973  -7.021 211.285 -20.530  -7.445 206.693

                      1                      2                      3
                      A                      A                      A
 Frequencies --     18.5836                26.3017                48.6980
 Red. masses --      4.9614                 4.9315                 3.4612
 Frc consts  --      0.0010                 0.0020                 0.0048
 IR Inten    --      0.7637                 3.1747                 9.8510

                      4                      5                      6
                      A                      A                      A
 Frequencies --     64.3623                72.9469                87.1880
 Red. masses --      3.1634                 4.6550                 3.2784
 Frc consts  --      0.0077                 0.0146                 0.0147
 IR Inten    --      3.9847                 6.9024                 0.7288

                      7                      8                      9
                      A                      A                      A
 Frequencies --     89.5404               114.9712               154.0692
 Red. masses --      5.1714                 5.8179                 4.5119
 Frc consts  --      0.0244                 0.0453                 0.0631
 IR Inten    --      2.9823                11.3007                 9.2540

                     10                     11                     12
                      A                      A                      A
 Frequencies --    194.1181               213.8002               280.9244
 Red. masses --      5.8732                 5.5526                 3.6610
 Frc consts  --      0.1304                 0.1495                 0.1702
 IR Inten    --      3.4457                 9.8194                13.0482

                     13                     14                     15
                      A                      A                      A
 Frequencies --    282.1377               325.6367               336.2220
 Red. masses --      1.2510                 3.9654                 5.4233
 Frc consts  --      0.0587                 0.2477                 0.3612
 IR Inten    --     32.2393                 2.2886                21.0771

                     16                     17                     18
                      A                      A                      A
 Frequencies --    341.2077               392.8530               405.9123
 Red. masses --      2.4060                 3.5176                 2.8151
 Frc consts  --      0.1650                 0.3199                 0.2733
 IR Inten    --      4.4200                17.6749                20.4676

                     19                     20                     21
                      A                      A                      A
 Frequencies --    469.5033               529.1013               537.6001
 Red. masses --      1.3134                 4.4769                 1.3433
 Frc consts  --      0.1706                 0.7384                 0.2287
 IR Inten    --     60.7480                 8.0000                59.7741

                     22                     23                     24
                      A                      A                      A
 Frequencies --    598.9251               624.7093               655.6689
 Red. masses --      3.7610                 2.6410                 3.2113
 Frc consts  --      0.7949                 0.6073                 0.8134
 IR Inten    --     12.6107                39.2740                18.4534

                     25                     26                     27
                      A                      A                      A
 Frequencies --    672.4194               701.5042               717.7385
 Red. masses --      4.1242                 3.7614                 1.3336
 Frc consts  --      1.0987                 1.0906                 0.4048
 IR Inten    --     35.9988                 3.3206                51.3448

                     28                     29                     30
                      A                      A                      A
 Frequencies --    757.0615               761.1927               784.8422
 Red. masses --      5.3976                 1.5586                 2.0179
 Frc consts  --      1.8227                 0.5321                 0.7323
 IR Inten    --      8.2136                 5.1521                14.0004

                     31                     32                     33
                      A                      A                      A
 Frequencies --    802.8934               817.2497               835.2192
 Red. masses --      1.5264                 1.4100                 1.7017
 Frc consts  --      0.5797                 0.5549                 0.6994
 IR Inten    --    216.2915                22.9900                21.7294

                     34                     35                     36
                      A                      A                      A
 Frequencies --    859.4319               918.3440               922.6530
 Red. masses --      2.6082                 2.8635                 4.5582
 Frc consts  --      1.1350                 1.4228                 2.2862
 IR Inten    --      2.1710                 4.4080                 8.5155

                     37                     38                     39
                      A                      A                      A
 Frequencies --    940.9930               976.4314              1024.4486
 Red. masses --      5.5157                 1.4006                 4.3804
 Frc consts  --      2.8776                 0.7868                 2.7086
 IR Inten    --     10.0882                 0.6615                29.6770

                     40                     41                     42
                      A                      A                      A
 Frequencies --   1027.9340              1038.3030              1089.2507
 Red. masses --      3.9924                 3.0067                 3.0344
 Frc consts  --      2.4855                 1.9098                 2.1212
 IR Inten    --     24.4653                 6.3112                34.9406

                     43                     44                     45
                      A                      A                      A
 Frequencies --   1108.5303              1115.2649              1141.8023
 Red. masses --      2.4508                 1.6115                 1.8588
 Frc consts  --      1.7744                 1.1810                 1.4278
 IR Inten    --     10.0618                31.3589                24.1703

                     46                     47                     48
                      A                      A                      A
 Frequencies --   1145.5913              1163.9215              1206.2534
 Red. masses --      2.1438                 2.0134                 1.4690
 Frc consts  --      1.6577                 1.6070                 1.2593
 IR Inten    --     17.2624                 2.1207                 7.2317

                     49                     50                     51
                      A                      A                      A
 Frequencies --   1244.1666              1262.9659              1273.6420
 Red. masses --      1.8957                 2.1585                 1.5044
 Frc consts  --      1.7289                 2.0285                 1.4379
 IR Inten    --    180.7814                23.4287                23.7683

                     52                     53                     54
                      A                      A                      A
 Frequencies --   1290.7816              1294.2434              1305.8717
 Red. masses --      1.7430                 1.3183                 1.3573
 Frc consts  --      1.7110                 1.3011                 1.3638
 IR Inten    --    324.5779                 1.7191                27.7821

                     55                     56                     57
                      A                      A                      A
 Frequencies --   1350.4702              1365.3911              1385.7107
 Red. masses --      1.4381                 1.4396                 1.1584
 Frc consts  --      1.5453                 1.5812                 1.3106
 IR Inten    --     11.6814                12.2724                 2.3965

                     58                     59                     60
                      A                      A                      A
 Frequencies --   1388.8586              1395.1735              1399.9991
 Red. masses --      1.4486                 1.3612                 2.4854
 Frc consts  --      1.6463                 1.5611                 2.8701
 IR Inten    --     12.4869                38.3401                23.1212

                     61                     62                     63
                      A                      A                      A
 Frequencies --   1433.9625              1464.9799              1471.2743
 Red. masses --      3.0050                 1.1037                 1.1286
 Frc consts  --      3.6406                 1.3956                 1.4393
 IR Inten    --     22.6614                 7.8604                17.0118

                     64                     65                     66
                      A                      A                      A
 Frequencies --   1496.5497              1502.0825              1548.2095
 Red. masses --      3.4171                 1.0882                 1.7471
 Frc consts  --      4.5091                 1.4466                 2.4673
 IR Inten    --     31.9480                 3.6418               190.7034

                     67                     68                     69
                      A                      A                      A
 Frequencies --   1602.0957              1664.7265              1722.9648
 Red. masses --      4.3180                 1.0923                 7.6209
 Frc consts  --      6.5299                 1.7835                13.3294
 IR Inten    --      7.4484                34.6123               185.6386

                     70                     71                     72
                      A                      A                      A
 Frequencies --   1845.1452              3017.4096              3020.7227
 Red. masses --     11.0178                 1.0708                 1.0590
 Frc consts  --     22.1007                 5.7443                 5.6935
 IR Inten    --    275.6291                37.6987                 6.3928

                     73                     74                     75
                      A                      A                      A
 Frequencies --   3035.1293              3035.7440              3059.7559
 Red. masses --      1.0693                 1.0814                 1.0986
 Frc consts  --      5.8038                 5.8717                 6.0597
 IR Inten    --     32.4202                15.3262                 9.5805

                     76                     77                     78
                      A                      A                      A
 Frequencies --   3098.0341              3106.4983              3225.8330
 Red. masses --      1.1008                 1.0933                 1.0963
 Frc consts  --      6.2246                 6.2161                 6.7214
 IR Inten    --     16.7589                 2.8031                 7.2960

                     79                     80                     81
                      A                      A                      A
 Frequencies --   3242.8679              3503.4297              3580.7102
 Red. masses --      1.0975                 1.0482                 1.0830
 Frc consts  --      6.8002                 7.5803                 8.1809
 IR Inten    --      1.1295                 0.9932               151.7308

                     82                     83                     84
                      A                      A                      A
 Frequencies --   3584.5329              3625.4031              3805.9495
 Red. masses --      1.0947                 1.0774                 1.0658
 Frc consts  --      8.2870                 8.3430                 9.0964
 IR Inten    --      1.6224                32.0146                57.6060

 - Thermochemistry -
 -------------------
 Temperature   298.150 Kelvin.  Pressure   1.00000 Atm.
 Atom     1 has atomic number  8 and mass  15.99491

 Molecular mass:   226.10659 amu.
 Principal axes and moments of inertia in atomic units:
                           1         2         3
     Eigenvalues --  3577.088884117.889927134.25345
           X            0.89357  -0.35640   0.27298
           Y            0.27606   0.91573   0.29193
           Z           -0.35402  -0.18550   0.91666
 This molecule is an asymmetric top.
 Rotational symmetry number  1.
 Warning -- assumption of classical behavior for rotation
           may cause significant error
 Rotational temperatures (Kelvin)      0.02421     0.02103     0.01214
 Rotational constants (GHZ):           0.50453     0.43827     0.25297
 Zero-point vibrational energy     640274.5 (Joules/Mol)
                                  153.02928 (Kcal/Mol)
 Warning -- explicit consideration of  22 degrees of freedom as
           vibrations may cause significant error
 Vibrational temperatures:     26.74    37.84    70.07    92.60   104.95
          (Kelvin)            125.44   128.83   165.42   221.67   279.29
                              307.61   404.19   405.93   468.52   483.75
                              490.92   565.23   584.02   675.51   761.26
                              773.49   861.72   898.82   943.36   967.46
                             1009.31  1032.66  1089.24  1095.19  1129.21
                             1155.18  1175.84  1201.69  1236.53  1321.29
                             1327.49  1353.88  1404.87  1473.95  1478.97
                             1493.88  1567.19  1594.93  1604.62  1642.80
                             1648.25  1674.62  1735.53  1790.08  1817.12
                             1832.48  1857.14  1862.13  1878.86  1943.02
                             1964.49  1993.73  1998.26  2007.34  2014.28
                             2063.15  2107.78  2116.83  2153.20  2161.16
                             2227.53  2305.06  2395.17  2478.96  2654.75
                             4341.37  4346.14  4366.87  4367.75  4402.30
                             4457.37  4469.55  4641.25  4665.76  5040.65
                             5151.84  5157.34  5216.14  5475.91

 Zero-point correction=                           0.243868 (Hartree/Particle)
 Thermal correction to Energy=                    0.260106
 Thermal correction to Enthalpy=                  0.261050
 Thermal correction to Gibbs Free Energy=         0.197196
 Sum of electronic and zero-point Energies=           -796.077011
 Sum of electronic and thermal Energies=              -796.060772
 Sum of electronic and thermal Enthalpies=            -796.059828
 Sum of electronic and thermal Free Energies=         -796.123683

                     E (Thermal)             CV                S
                      KCal/Mol        Cal/Mol-Kelvin    Cal/Mol-Kelvin
 Total                  163.219             58.928            134.393
 Electronic               0.000              0.000              0.000
 Translational            0.889              2.981             42.150
 Rotational               0.889              2.981             33.019
 Vibrational            161.441             52.966             59.224
 Vibration     1          0.593              1.986              6.780
 Vibration     2          0.593              1.985              6.090
 Vibration     3          0.595              1.978              4.870
 Vibration     4          0.597              1.971              4.319
 Vibration     5          0.599              1.967              4.072
 Vibration     6          0.601              1.958              3.722
 Vibration     7          0.602              1.957              3.670
 Vibration     8          0.608              1.937              3.183
 Vibration     9          0.620              1.898              2.621
 Vibration    10          0.635              1.848              2.188
 Vibration    11          0.644              1.820              2.011
 Vibration    12          0.681              1.709              1.528
 Vibration    13          0.681              1.707              1.521
 Vibration    14          0.710              1.624              1.282
 Vibration    15          0.717              1.603              1.230
 Vibration    16          0.721              1.593              1.207
 Vibration    17          0.760              1.485              0.989
 Vibration    18          0.771              1.457              0.941
 Vibration    19          0.827              1.318              0.739
 Vibration    20          0.884              1.186              0.589
 Vibration    21          0.893              1.167              0.570
 Vibration    22          0.957              1.034              0.452

 Optimization completed.
    -- Stationary point found.
 Normal termination of Gaussian 09 at Thu Jul 29 01:37:37 2021.
