 Gaussian 09, Revision D.01,
 Gaussian 09:  ES64L-G09RevD.01 24-Apr-2013

 ----------------------------------------------------------------------
 # B3LYP/6-311++G(d,p) opt=calcfc freq=noraman nosymm integral(ultrafin
 egrid)
 ----------------------------------------------------------------------

 ------------------------------------------------------------
 Candidate Structure: Conf:150 OPT and FREQ calc in gas phase
 ------------------------------------------------------------
 Symbolic Z-matrix:
 Charge =  0 Multiplicity = 1

 SCF Done:  E(RB3LYP) =  -796.332394762     A.U. after   15 cycles
 SCF Done:  E(RB3LYP) =  -796.333511302     A.U. after   16 cycles
 SCF Done:  E(RB3LYP) =  -796.327380319     A.U. after   16 cycles
 SCF Done:  E(RB3LYP) =  -796.333955922     A.U. after   12 cycles
 SCF Done:  E(RB3LYP) =  -796.334609524     A.U. after   13 cycles
 SCF Done:  E(RB3LYP) =  -796.334876372     A.U. after   13 cycles
 SCF Done:  E(RB3LYP) =  -796.334982360     A.U. after   12 cycles
 SCF Done:  E(RB3LYP) =  -796.335034672     A.U. after   12 cycles
 SCF Done:  E(RB3LYP) =  -796.335043035     A.U. after   11 cycles
 SCF Done:  E(RB3LYP) =  -796.335047245     A.U. after   11 cycles
 SCF Done:  E(RB3LYP) =  -796.335049134     A.U. after   11 cycles
 SCF Done:  E(RB3LYP) =  -796.335049330     A.U. after   11 cycles
 Optimization completed.
    -- Stationary point found.
 Normal termination of Gaussian 09 at Thu Jul 29 00:43:42 2021.

 ----------------------------------------------------------------------
 #N Geom=AllCheck Guess=TCheck SCRF=Check GenChk RB3LYP/6-311++G(d,p) F
 req
 ----------------------------------------------------------------------

 Structure from the checkpoint file:  "conf-150.chk"
 ------------------------------------------------------------
 Candidate Structure: Conf:150 OPT and FREQ calc in gas phase
 ------------------------------------------------------------
 Charge =  0 Multiplicity = 1

                          Input orientation:
 ---------------------------------------------------------------------
 Center     Atomic      Atomic             Coordinates (Angstroms)
 Number     Number       Type             X           Y           Z
 ---------------------------------------------------------------------
      1          8           0       -1.116810   -1.892387   -0.838210
      2          6           0       -1.281202   -0.758013   -0.413111
      3          7           0       -0.381041   -0.166035    0.432775
      4          6           0        0.724122   -0.918601    1.003538
      5          6           0        1.074727   -0.289466    2.342744
      6          8           0        2.046521   -0.973106    2.974687
      7          8           0        0.552930    0.698050    2.798565
      8          6           0        1.959119   -1.012907    0.062177
      9          6           0        2.644607    0.283026   -0.220700
     10          6           0        3.855702    0.788789    0.188586
     11          7           0        4.075184    2.040824   -0.339369
     12          6           0        3.013552    2.303380   -1.063843
     13          7           0        2.115316    1.273547   -1.029685
     14          6           0       -2.461771    0.109713   -0.826414
     15          6           0       -3.756066   -0.696803   -0.956847
     16          7           0       -4.819816    0.148839   -1.508273
     17          1           0       -0.630272    0.686232    0.917589
     18          1           0        0.389293   -1.944843    1.189731
     19          1           0        2.240492   -0.509375    3.803732
     20          1           0        1.608543   -1.487851   -0.858285
     21          1           0        2.680385   -1.693410    0.517801
     22          1           0        4.583222    0.311063    0.827185
     23          1           0        2.837922    3.206471   -1.628589
     24          1           0        1.219593    1.239223   -1.490464
     25          1           0       -2.232535    0.549609   -1.803436
     26          1           0       -2.595137    0.942519   -0.127097
     27          1           0       -3.578254   -1.523671   -1.645930
     28          1           0       -4.005407   -1.142271    0.018257
     29          1           0       -5.135637    0.835121   -0.829998
     30          1           0       -5.626972   -0.408057   -1.766578
 ---------------------------------------------------------------------

 SCF Done:  E(RB3LYP) =  -796.335049330     A.U. after    1 cycles

 Alpha  occ. eigenvalues --  -19.20171 -19.14767 -19.10676 -14.37535 -14.35878
 Alpha  occ. eigenvalues --  -14.30603 -14.29743 -10.33768 -10.29161 -10.25222
 Alpha  occ. eigenvalues --  -10.22956 -10.21352 -10.20693 -10.20496 -10.19337
 Alpha  occ. eigenvalues --  -10.18689  -1.14562  -1.06188  -1.05613  -1.02386
 Alpha  occ. eigenvalues --   -0.95050  -0.89681  -0.87992  -0.82179  -0.77617
 Alpha  occ. eigenvalues --   -0.75169  -0.69610  -0.66190  -0.62502  -0.61971
 Alpha  occ. eigenvalues --   -0.60797  -0.59830  -0.54695  -0.54488  -0.52335
 Alpha  occ. eigenvalues --   -0.51358  -0.50779  -0.49535  -0.48227  -0.46768
 Alpha  occ. eigenvalues --   -0.46374  -0.45256  -0.44541  -0.43576  -0.43189
 Alpha  occ. eigenvalues --   -0.41633  -0.41491  -0.40947  -0.40223  -0.39592
 Alpha  occ. eigenvalues --   -0.37125  -0.36200  -0.35859  -0.31783  -0.29250
 Alpha  occ. eigenvalues --   -0.28838  -0.27809  -0.27625  -0.25628  -0.23598
 Alpha virt. eigenvalues --   -0.03256  -0.02419  -0.01579  -0.01229  -0.00635
 Alpha virt. eigenvalues --    0.00063   0.00635   0.01401   0.01663   0.02021
 Alpha virt. eigenvalues --    0.02746   0.03276   0.03647   0.04099   0.04374

 Mulliken charges:
               1
     1  O   -0.299900
     2  C   -0.275173
     3  N   -0.080164
     4  C   -0.064265
     5  C   -0.128846
     6  O   -0.118004
     7  O   -0.252388
     8  C   -0.376227
     9  C    0.281416
    10  C   -0.487960
    11  N   -0.124995
    12  C    0.046133
    13  N   -0.161376
    14  C   -0.221051
    15  C   -0.479320
    16  N   -0.333471
    17  H    0.288887
    18  H    0.281308
    19  H    0.304035
    20  H    0.205582
    21  H    0.242341
    22  H    0.137035
    23  H    0.160501
    24  H    0.321105
    25  H    0.208516
    26  H    0.140679
    27  H    0.202611
    28  H    0.138495
    29  H    0.204574
    30  H    0.239923
 Sum of Mulliken charges =   0.00000

 Dipole moment (field-independent basis, Debye):
    X=             -3.1493    Y=             -0.4491    Z=              1.4196  Tot=              3.4835
 Quadrupole moment (field-independent basis, Debye-Ang):
   XX=           -101.0524   YY=           -103.4487   ZZ=            -92.1738
   XY=            -11.5180   XZ=              1.7686   YZ=             -7.6067

  Exact polarizability: 166.193   8.632 139.503  18.435  -6.785 129.323
 Approx polarizability: 212.089   3.010 224.665  23.701  -1.022 186.576

                      1                      2                      3
                      A                      A                      A
 Frequencies --     22.9733                30.0862                46.9191
 Red. masses --      4.2271                 4.0212                 7.3448
 Frc consts  --      0.0013                 0.0021                 0.0095
 IR Inten    --      0.7658                 1.9189                 8.2864

                      4                      5                      6
                      A                      A                      A
 Frequencies --     51.4457                63.1650                71.5305
 Red. masses --      3.1699                 6.8436                 7.7599
 Frc consts  --      0.0049                 0.0161                 0.0234
 IR Inten    --      4.3705                 0.1698                 2.1239

                      7                      8                      9
                      A                      A                      A
 Frequencies --     77.6749               118.6069               133.2940
 Red. masses --      2.7651                 4.6999                 4.2781
 Frc consts  --      0.0098                 0.0390                 0.0448
 IR Inten    --      2.2513                 3.5427                 6.0519

                     10                     11                     12
                      A                      A                      A
 Frequencies --    188.3093               217.5339               243.4182
 Red. masses --      5.0672                 3.0097                 1.6067
 Frc consts  --      0.1059                 0.0839                 0.0561
 IR Inten    --      1.6208                11.7522                34.8342

                     13                     14                     15
                      A                      A                      A
 Frequencies --    260.7955               306.4980               326.4341
 Red. masses --      3.2528                 5.0265                 5.7708
 Frc consts  --      0.1303                 0.2782                 0.3623
 IR Inten    --     22.4575                 1.4355                 2.0073

                     16                     17                     18
                      A                      A                      A
 Frequencies --    364.0257               395.5541               473.8043
 Red. masses --      2.3187                 3.6344                 3.1950
 Frc consts  --      0.1810                 0.3350                 0.4226
 IR Inten    --      2.7960                 5.7755                16.5779

                     19                     20                     21
                      A                      A                      A
 Frequencies --    500.9819               539.8006               575.8239
 Red. masses --      1.3448                 3.2005                 1.5262
 Frc consts  --      0.1989                 0.5495                 0.2981
 IR Inten    --    119.3568                22.9341                18.3686

                     22                     23                     24
                      A                      A                      A
 Frequencies --    592.6517               611.9638               641.5865
 Red. masses --      3.0733                 1.9481                 2.3350
 Frc consts  --      0.6360                 0.4298                 0.5663
 IR Inten    --     37.1232                91.7505                 4.8890

                     25                     26                     27
                      A                      A                      A
 Frequencies --    653.6942               677.9392               703.2447
 Red. masses --      2.1532                 2.7366                 3.4545
 Frc consts  --      0.5421                 0.7410                 1.0066
 IR Inten    --     14.9830                 4.0371                47.5961

                     28                     29                     30
                      A                      A                      A
 Frequencies --    738.2383               776.2625               803.3382
 Red. masses --      4.3268                 2.5209                 1.4870
 Frc consts  --      1.3893                 0.8950                 0.5654
 IR Inten    --      9.0110                33.3514                14.6386

                     31                     32                     33
                      A                      A                      A
 Frequencies --    809.7953               832.5226               849.2327
 Red. masses --      1.4333                 1.3587                 1.4661
 Frc consts  --      0.5538                 0.5548                 0.6230
 IR Inten    --     25.4524               108.1715                15.8705

                     34                     35                     36
                      A                      A                      A
 Frequencies --    867.0269               919.8138               935.4023
 Red. masses --      2.5991                 3.7429                 5.0873
 Frc consts  --      1.1512                 1.8658                 2.6226
 IR Inten    --      4.0349                 9.1774                12.5632

                     37                     38                     39
                      A                      A                      A
 Frequencies --    966.4411               980.9810              1019.4456
 Red. masses --      3.0571                 2.0969                 2.9696
 Frc consts  --      1.6823                 1.1889                 1.8183
 IR Inten    --      6.0913                 4.5600                23.1500

                     40                     41                     42
                      A                      A                      A
 Frequencies --   1026.5548              1058.5073              1087.6225
 Red. masses --      3.1540                 2.8157                 2.2180
 Frc consts  --      1.9583                 1.8588                 1.5459
 IR Inten    --      1.2612                17.3349                33.6361

                     43                     44                     45
                      A                      A                      A
 Frequencies --   1104.8419              1110.1479              1142.7272
 Red. masses --      1.6099                 2.4678                 2.1089
 Frc consts  --      1.1578                 1.7919                 1.6226
 IR Inten    --     14.7306                60.4843                15.8439

                     46                     47                     48
                      A                      A                      A
 Frequencies --   1156.3372              1176.5212              1213.1290
 Red. masses --      1.5700                 2.3577                 1.3939
 Frc consts  --      1.2369                 1.9228                 1.2086
 IR Inten    --     68.3854               168.5933                 0.9480

                     49                     50                     51
                      A                      A                      A
 Frequencies --   1232.6301              1249.5506              1259.0398
 Red. masses --      1.7993                 2.0574                 1.4889
 Frc consts  --      1.6107                 1.8927                 1.3906
 IR Inten    --     53.0982                 9.8281                 1.1255

                     52                     53                     54
                      A                      A                      A
 Frequencies --   1264.6471              1290.0375              1312.5114
 Red. masses --      1.5270                 1.3042                 1.4230
 Frc consts  --      1.4389                 1.2787                 1.4444
 IR Inten    --     18.2013                 3.7265                 1.2074

                     55                     56                     57
                      A                      A                      A
 Frequencies --   1336.7522              1359.9806              1375.6417
 Red. masses --      1.1109                 1.4846                 1.9493
 Frc consts  --      1.1696                 1.6178                 2.1734
 IR Inten    --      7.6839                 9.0242                12.0088

                     58                     59                     60
                      A                      A                      A
 Frequencies --   1390.1054              1404.8011              1422.5070
 Red. masses --      1.9479                 2.2890                 1.7092
 Frc consts  --      2.2178                 2.6615                 2.0378
 IR Inten    --     28.1377               133.3603                30.7809

                     61                     62                     63
                      A                      A                      A
 Frequencies --   1424.3775              1471.1633              1483.2841
 Red. masses --      2.2990                 1.0936                 1.1611
 Frc consts  --      2.7482                 1.3945                 1.5051
 IR Inten    --     37.0592                 9.6459                11.0282

                     64                     65                     66
                      A                      A                      A
 Frequencies --   1497.4991              1517.0178              1519.9584
 Red. masses --      3.3981                 1.0830                 2.0284
 Frc consts  --      4.4897                 1.4685                 2.7610
 IR Inten    --     79.1919                 1.7642               265.8381

                     67                     68                     69
                      A                      A                      A
 Frequencies --   1605.6931              1664.3138              1732.8326
 Red. masses --      4.4653                 1.0910                 9.1513
 Frc consts  --      6.7831                 1.7805                16.1899
 IR Inten    --      7.4866                30.2838               260.3369

                     70                     71                     72
                      A                      A                      A
 Frequencies --   1805.2136              2960.0647              3022.6959
 Red. masses --      9.8651                 1.0739                 1.0595
 Frc consts  --     18.9413                 5.5441                 5.7036
 IR Inten    --    238.6176                60.8257                17.5045

                     73                     74                     75
                      A                      A                      A
 Frequencies --   3041.3697              3055.0502              3059.1047
 Red. masses --      1.0806                 1.0660                 1.0999
 Frc consts  --      5.8893                 5.8620                 6.0644
 IR Inten    --     10.4179                 8.2380                11.3335

                     76                     77                     78
                      A                      A                      A
 Frequencies --   3096.9440              3105.6111              3234.6149
 Red. masses --      1.0909                 1.0998                 1.0958
 Frc consts  --      6.1648                 6.2499                 6.7550
 IR Inten    --     14.4657                 5.8431                 5.9311

                     79                     80                     81
                      A                      A                      A
 Frequencies --   3241.6926              3502.1662              3581.3111
 Red. masses --      1.0982                 1.0499                 1.0931
 Frc consts  --      6.7993                 7.5868                 8.2604
 IR Inten    --      0.9096                 0.3194                 1.7465

                     82                     83                     84
                      A                      A                      A
 Frequencies --   3585.1892              3651.6806              3756.1620
 Red. masses --      1.0775                 1.0813                 1.0646
 Frc consts  --      8.1599                 8.4950                 8.8494
 IR Inten    --     67.1709                54.4451                94.8164

 - Thermochemistry -
 -------------------
 Temperature   298.150 Kelvin.  Pressure   1.00000 Atm.
 Atom     1 has atomic number  8 and mass  15.99491

 Molecular mass:   226.10659 amu.
 Principal axes and moments of inertia in atomic units:
                           1         2         3
     Eigenvalues --  2300.997096443.375147551.22072
           X            0.95700  -0.09406  -0.27443
           Y            0.19584  -0.48841   0.85035
           Z            0.21402   0.86753   0.44899
 This molecule is an asymmetric top.
 Rotational symmetry number  1.
 Warning -- assumption of classical behavior for rotation
           may cause significant error
 Rotational temperatures (Kelvin)      0.03764     0.01344     0.01147
 Rotational constants (GHZ):           0.78433     0.28009     0.23900
 Zero-point vibrational energy     639869.7 (Joules/Mol)
                                  152.93253 (Kcal/Mol)
 Warning -- explicit consideration of  23 degrees of freedom as
           vibrations may cause significant error
 Vibrational temperatures:     33.05    43.29    67.51    74.02    90.88
          (Kelvin)            102.92   111.76   170.65   191.78   270.93
                              312.98   350.22   375.23   440.98   469.67
                              523.75   569.11   681.70   720.80   776.65
                              828.48   852.69   880.48   923.10   940.52
                              975.40  1011.81  1062.16  1116.87  1155.82
                             1165.11  1197.81  1221.85  1247.46  1323.41
                             1345.83  1390.49  1411.41  1466.75  1476.98
                             1522.95  1564.84  1589.62  1597.25  1644.13
                             1663.71  1692.75  1745.42  1773.48  1797.82
                             1811.48  1819.54  1856.07  1888.41  1923.29
                             1956.71  1979.24  2000.05  2021.19  2046.67
                             2049.36  2116.67  2134.11  2154.56  2182.65
                             2186.88  2310.23  2394.57  2493.16  2597.30
                             4258.87  4348.98  4375.85  4395.53  4401.36
                             4455.81  4468.28  4653.88  4664.07  5038.83
                             5152.70  5158.28  5253.95  5404.27

 Zero-point correction=                           0.243713 (Hartree/Particle)
 Thermal correction to Energy=                    0.260062
 Thermal correction to Enthalpy=                  0.261006
 Thermal correction to Gibbs Free Energy=         0.196597
 Sum of electronic and zero-point Energies=           -796.091336
 Sum of electronic and thermal Energies=              -796.074987
 Sum of electronic and thermal Enthalpies=            -796.074043
 Sum of electronic and thermal Free Energies=         -796.138452

                     E (Thermal)             CV                S
                      KCal/Mol        Cal/Mol-Kelvin    Cal/Mol-Kelvin
 Total                  163.191             58.801            135.560
 Electronic               0.000              0.000              0.000
 Translational            0.889              2.981             42.150
 Rotational               0.889              2.981             33.082
 Vibrational            161.414             52.839             60.329
 Vibration     1          0.593              1.985              6.359
 Vibration     2          0.594              1.984              5.824
 Vibration     3          0.595              1.979              4.943
 Vibration     4          0.596              1.977              4.761
 Vibration     5          0.597              1.972              4.356
 Vibration     6          0.598              1.968              4.111
 Vibration     7          0.599              1.964              3.949
 Vibration     8          0.609              1.934              3.123
 Vibration     9          0.613              1.920              2.898
 Vibration    10          0.633              1.856              2.244
 Vibration    11          0.646              1.814              1.980
 Vibration    12          0.659              1.774              1.778
 Vibration    13          0.669              1.744              1.656
 Vibration    14          0.697              1.661              1.381
 Vibration    15          0.710              1.623              1.278
 Vibration    16          0.738              1.546              1.105
 Vibration    17          0.762              1.480              0.979
 Vibration    18          0.831              1.308              0.727
 Vibration    19          0.856              1.248              0.656
 Vibration    20          0.895              1.162              0.566
 Vibration    21          0.932              1.084              0.493
 Vibration    22          0.950              1.047              0.462
 Vibration    23          0.971              1.007              0.430

 Normal termination of Gaussian 09 at Thu Jul 29 01:53:56 2021.
