 Gaussian 09, Revision D.01,
 Gaussian 09:  ES64L-G09RevD.01 24-Apr-2013

 ----------------------------------------------------------------------
 # B3LYP/6-311++G(d,p) opt=calcfc freq=noraman nosymm integral(ultrafin
 egrid)
 ----------------------------------------------------------------------

 ------------------------------------------------------------
 Candidate Structure: Conf:683 OPT and FREQ calc in gas phase
 ------------------------------------------------------------
 Symbolic Z-matrix:
 Charge =  0 Multiplicity = 1

 SCF Done:  E(RB3LYP) =  -796.338737966     A.U. after   15 cycles
 SCF Done:  E(RB3LYP) =  -796.341341338     A.U. after   13 cycles
 SCF Done:  E(RB3LYP) =  -796.341939411     A.U. after   15 cycles
 SCF Done:  E(RB3LYP) =  -796.341381545     A.U. after   15 cycles
 SCF Done:  E(RB3LYP) =  -796.342053961     A.U. after   15 cycles
 SCF Done:  E(RB3LYP) =  -796.342079596     A.U. after   11 cycles
 SCF Done:  E(RB3LYP) =  -796.342082715     A.U. after   11 cycles
 SCF Done:  E(RB3LYP) =  -796.342082950     A.U. after   10 cycles
 SCF Done:  E(RB3LYP) =  -796.342082962     A.U. after    8 cycles
 Optimization completed.
    -- Stationary point found.
 Normal termination of Gaussian 09 at Thu Jul 29 00:22:28 2021.

 ----------------------------------------------------------------------
 #N Geom=AllCheck Guess=TCheck SCRF=Check GenChk RB3LYP/6-311++G(d,p) F
 req
 ----------------------------------------------------------------------

 Structure from the checkpoint file:  "conf-683.chk"
 ------------------------------------------------------------
 Candidate Structure: Conf:683 OPT and FREQ calc in gas phase
 ------------------------------------------------------------
 Charge =  0 Multiplicity = 1

                          Input orientation:
 ---------------------------------------------------------------------
 Center     Atomic      Atomic             Coordinates (Angstroms)
 Number     Number       Type             X           Y           Z
 ---------------------------------------------------------------------
      1          8           0       -0.592479    0.079934   -2.148034
      2          6           0        0.359584    0.360404   -1.415958
      3          7           0        0.216014    0.665140   -0.103366
      4          6           0       -1.083828    0.822718    0.512857
      5          6           0       -1.128020    2.145852    1.269588
      6          8           0       -2.393817    2.470258    1.615337
      7          8           0       -0.173938    2.823259    1.555116
      8          6           0       -1.486235   -0.331162    1.473370
      9          6           0       -1.439009   -1.705918    0.877396
     10          6           0       -1.273470   -2.930648    1.480687
     11          7           0       -1.391103   -3.950933    0.564659
     12          6           0       -1.618419   -3.354998   -0.583875
     13          7           0       -1.677509   -1.996794   -0.452447
     14          6           0        1.787462    0.343653   -1.952604
     15          6           0        2.763948    1.370826   -1.364180
     16          7           0        3.034956    1.105391    0.059633
     17          1           0        1.065186    0.898175    0.416841
     18          1           0       -1.820373    0.879822   -0.292132
     19          1           0       -2.356822    3.299606    2.116104
     20          1           0       -0.830752   -0.315612    2.349873
     21          1           0       -2.496185   -0.106321    1.832200
     22          1           0       -1.087173   -3.130736    2.525417
     23          1           0       -1.742125   -3.845345   -1.537554
     24          1           0       -1.659158   -1.323539   -1.216435
     25          1           0        2.180138   -0.670278   -1.803582
     26          1           0        1.704555    0.484534   -3.031705
     27          1           0        2.327300    2.370953   -1.435528
     28          1           0        3.673378    1.374629   -1.979587
     29          1           0        3.619837    0.282757    0.173732
     30          1           0        3.518155    1.884363    0.493962
 ---------------------------------------------------------------------

 SCF Done:  E(RB3LYP) =  -796.342082962     A.U. after    2 cycles

 Alpha  occ. eigenvalues --  -19.19728 -19.14209 -19.10422 -14.35349 -14.34763
 Alpha  occ. eigenvalues --  -14.32668 -14.28385 -10.33205 -10.28925 -10.24816
 Alpha  occ. eigenvalues --  -10.22390 -10.21293 -10.20294 -10.20177 -10.19588
 Alpha  occ. eigenvalues --  -10.17313  -1.13992  -1.05653  -1.05066  -1.00709
 Alpha  occ. eigenvalues --   -0.94605  -0.91371  -0.86385  -0.81573  -0.77676
 Alpha  occ. eigenvalues --   -0.74768  -0.68378  -0.66397  -0.63224  -0.60596
 Alpha  occ. eigenvalues --   -0.59641  -0.58277  -0.55344  -0.53187  -0.52394
 Alpha  occ. eigenvalues --   -0.51818  -0.49944  -0.49084  -0.47847  -0.47601
 Alpha  occ. eigenvalues --   -0.46152  -0.45461  -0.43942  -0.42997  -0.41926
 Alpha  occ. eigenvalues --   -0.41516  -0.40968  -0.40383  -0.39982  -0.39021
 Alpha  occ. eigenvalues --   -0.38515  -0.36500  -0.35409  -0.31221  -0.28548
 Alpha  occ. eigenvalues --   -0.28128  -0.27612  -0.27320  -0.26267  -0.22132
 Alpha virt. eigenvalues --   -0.02736  -0.02636  -0.01789  -0.00384   0.00074
 Alpha virt. eigenvalues --    0.00715   0.01085   0.01586   0.01953   0.02387
 Alpha virt. eigenvalues --    0.02900   0.03613   0.04060   0.04531   0.04991

 Mulliken charges:
               1
     1  O   -0.352677
     2  C   -0.209737
     3  N    0.004963
     4  C   -0.073554
     5  C   -0.033961
     6  O   -0.121790
     7  O   -0.251064
     8  C   -1.790511
     9  C    1.085508
    10  C   -0.206566
    11  N   -0.129201
    12  C    0.084702
    13  N   -0.144540
    14  C   -0.246714
    15  C   -0.398539
    16  N   -0.454066
    17  H    0.432528
    18  H    0.292790
    19  H    0.299097
    20  H    0.193354
    21  H    0.200417
    22  H    0.136745
    23  H    0.162888
    24  H    0.312121
    25  H    0.203102
    26  H    0.183347
    27  H    0.180363
    28  H    0.166260
    29  H    0.223095
    30  H    0.251640
 Sum of Mulliken charges =   0.00000

 Dipole moment (field-independent basis, Debye):
    X=              3.2063    Y=              4.8342    Z=              0.3596  Tot=              5.8119
 Quadrupole moment (field-independent basis, Debye-Ang):
   XX=            -82.6771   YY=           -112.7747   ZZ=            -93.5018
   XY=             -7.0595   XZ=             -6.0852   YZ=              6.3884

  Exact polarizability: 134.473   9.211 156.775  -6.280  10.168 142.093
 Approx polarizability: 190.341   5.662 214.792  10.305  12.250 219.846

                      1                      2                      3
                      A                      A                      A
 Frequencies --     25.3131                44.5603                53.6967
 Red. masses --      5.0376                 9.6273                 3.9294
 Frc consts  --      0.0019                 0.0113                 0.0067
 IR Inten    --      4.4857                 2.4015                 1.7731

                      4                      5                      6
                      A                      A                      A
 Frequencies --     67.7714                86.8770               101.3139
 Red. masses --      4.1330                 4.0360                 5.1615
 Frc consts  --      0.0112                 0.0179                 0.0312
 IR Inten    --      0.9074                 2.5131                 1.6967

                      7                      8                      9
                      A                      A                      A
 Frequencies --    117.6678               136.1101               179.7503
 Red. masses --      4.0086                 6.2690                 6.5680
 Frc consts  --      0.0327                 0.0684                 0.1250
 IR Inten    --      7.2134                13.8457                 1.4286

                     10                     11                     12
                      A                      A                      A
 Frequencies --    200.8563               221.7275               263.3457
 Red. masses --      2.2499                 5.0311                 3.9812
 Frc consts  --      0.0535                 0.1457                 0.1627
 IR Inten    --      3.0971                 9.1543                 0.8767

                     13                     14                     15
                      A                      A                      A
 Frequencies --    302.1788               305.5106               343.7793
 Red. masses --      1.4278                 4.7946                 4.2400
 Frc consts  --      0.0768                 0.2637                 0.2952
 IR Inten    --      9.5999                 3.8036                 0.2075

                     16                     17                     18
                      A                      A                      A
 Frequencies --    351.5840               431.0234               484.7360
 Red. masses --      3.0515                 3.3351                 2.8521
 Frc consts  --      0.2222                 0.3651                 0.3948
 IR Inten    --      6.2368                14.3629                12.1023

                     19                     20                     21
                      A                      A                      A
 Frequencies --    513.1594               586.0198               595.0487
 Red. masses --      3.0167                 2.7741                 1.5129
 Frc consts  --      0.4680                 0.5613                 0.3156
 IR Inten    --     38.9757                14.3748                77.9653

                     22                     23                     24
                      A                      A                      A
 Frequencies --    626.4678               644.4662               670.1567
 Red. masses --      3.5977                 4.5564                 3.4240
 Frc consts  --      0.8319                 1.1150                 0.9060
 IR Inten    --     13.8101                36.5764                41.2447

                     25                     26                     27
                      A                      A                      A
 Frequencies --    685.6396               695.6680               739.1629
 Red. masses --      3.0842                 3.3956                 1.1967
 Frc consts  --      0.8543                 0.9682                 0.3852
 IR Inten    --     36.3367                17.1641                97.2549

                     28                     29                     30
                      A                      A                      A
 Frequencies --    777.6848               794.7015               810.9580
 Red. masses --      3.5561                 1.2191                 1.4048
 Frc consts  --      1.2671                 0.4536                 0.5443
 IR Inten    --      9.9552                60.7420                18.3814

                     31                     32                     33
                      A                      A                      A
 Frequencies --    832.0500               838.2412               875.3871
 Red. masses --      1.3867                 1.4102                 2.9047
 Frc consts  --      0.5656                 0.5838                 1.3114
 IR Inten    --     11.2829                84.6795                 1.8705

                     34                     35                     36
                      A                      A                      A
 Frequencies --    895.5647               911.0870               938.5805
 Red. masses --      2.3172                 1.9915                 5.7412
 Frc consts  --      1.0950                 0.9740                 2.9799
 IR Inten    --     20.9776                33.3071                16.1921

                     37                     38                     39
                      A                      A                      A
 Frequencies --    958.8114               989.4977              1010.3543
 Red. masses --      2.5658                 2.3262                 2.3976
 Frc consts  --      1.3897                 1.3419                 1.4421
 IR Inten    --      4.7646                 2.0811                11.7789

                     40                     41                     42
                      A                      A                      A
 Frequencies --   1022.8956              1048.1395              1080.6699
 Red. masses --      2.5905                 3.1089                 2.7000
 Frc consts  --      1.5970                 2.0123                 1.8578
 IR Inten    --     31.9651                12.1180                 8.7958

                     43                     44                     45
                      A                      A                      A
 Frequencies --   1124.5795              1138.4608              1150.1232
 Red. masses --      3.5354                 2.1372                 1.7995
 Frc consts  --      2.6343                 1.6320                 1.4025
 IR Inten    --    147.7019                22.9055                17.1503

                     46                     47                     48
                      A                      A                      A
 Frequencies --   1158.4711              1174.2923              1232.2428
 Red. masses --      1.3893                 2.2359                 1.4786
 Frc consts  --      1.0985                 1.8166                 1.3228
 IR Inten    --     40.5806                87.0655                 7.9306

                     49                     50                     51
                      A                      A                      A
 Frequencies --   1260.0708              1264.3939              1275.6263
 Red. masses --      2.1685                 1.4434                 1.4601
 Frc consts  --      2.0287                 1.3596                 1.3998
 IR Inten    --      3.1922                34.3239                12.0953

                     52                     53                     54
                      A                      A                      A
 Frequencies --   1287.7117              1312.0840              1313.6515
 Red. masses --      1.3460                 1.6417                 1.3346
 Frc consts  --      1.3150                 1.6652                 1.3570
 IR Inten    --      4.6293                10.0876                 2.6923

                     55                     56                     57
                      A                      A                      A
 Frequencies --   1339.8792              1364.8685              1372.4932
 Red. masses --      1.7584                 1.4213                 1.4676
 Frc consts  --      1.8600                 1.5600                 1.6289
 IR Inten    --     13.9102                16.7723                12.2519

                     58                     59                     60
                      A                      A                      A
 Frequencies --   1390.4141              1394.9186              1420.3647
 Red. masses --      2.3444                 2.1851                 1.3916
 Frc consts  --      2.6704                 2.5050                 1.6541
 IR Inten    --     15.1594                74.3623                15.6289

                     61                     62                     63
                      A                      A                      A
 Frequencies --   1455.1486              1463.0194              1484.9328
 Red. masses --      2.2001                 1.0804                 1.2791
 Frc consts  --      2.7448                 1.3625                 1.6618
 IR Inten    --     41.6377                12.3179                20.7000

                     64                     65                     66
                      A                      A                      A
 Frequencies --   1497.6852              1511.2546              1581.3881
 Red. masses --      2.6083                 1.0835                 1.8892
 Frc consts  --      3.4471                 1.4580                 2.7837
 IR Inten    --     17.3757                 4.0130               274.1284

                     67                     68                     69
                      A                      A                      A
 Frequencies --   1605.6982              1655.6253              1695.1592
 Red. masses --      3.5461                 1.0904                 6.9154
 Frc consts  --      5.3867                 1.7610                11.7082
 IR Inten    --     13.6231                37.8013               329.2784

                     70                     71                     72
                      A                      A                      A
 Frequencies --   1812.5594              2988.2071              3021.6520
 Red. masses --      9.9696                 1.0716                 1.0705
 Frc consts  --     19.2979                 5.6377                 5.7588
 IR Inten    --    298.6639                74.6879                 4.8987

                     73                     74                     75
                      A                      A                      A
 Frequencies --   3027.5534              3058.8275              3065.1790
 Red. masses --      1.0598                 1.0989                 1.0920
 Frc consts  --      5.7236                 6.0576                 6.0447
 IR Inten    --     17.8014                 5.8115                20.3973

                     76                     77                     78
                      A                      A                      A
 Frequencies --   3080.1846              3100.2030              3227.9244
 Red. masses --      1.0866                 1.0923                 1.0960
 Frc consts  --      6.0740                 6.1855                 6.7284
 IR Inten    --      9.6361                 7.9989                 7.8284

                     79                     80                     81
                      A                      A                      A
 Frequencies --   3241.5861              3384.7067              3471.0900
 Red. masses --      1.0973                 1.0822                 1.0854
 Frc consts  --      6.7935                 7.3045                 7.7048
 IR Inten    --      1.1755               373.1007               312.5553

                     82                     83                     84
                      A                      A                      A
 Frequencies --   3501.2099              3581.5453              3753.3000
 Red. masses --      1.0501                 1.0933                 1.0645
 Frc consts  --      7.5846                 8.2631                 8.8357
 IR Inten    --      0.5254                 6.3074                85.2839

 - Thermochemistry -
 -------------------
 Temperature   298.150 Kelvin.  Pressure   1.00000 Atm.
 Atom     1 has atomic number  8 and mass  15.99491

 Molecular mass:   226.10659 amu.
 Principal axes and moments of inertia in atomic units:
                           1         2         3
     Eigenvalues --  3039.609874505.237716210.95080
           X            0.50090   0.64097   0.58160
           Y            0.86072  -0.43944  -0.25700
           Z           -0.09085  -0.62933   0.77181
 This molecule is an asymmetric top.
 Rotational symmetry number  1.
 Warning -- assumption of classical behavior for rotation
           may cause significant error
 Rotational temperatures (Kelvin)      0.02850     0.01923     0.01395
 Rotational constants (GHZ):           0.59374     0.40059     0.29057
 Zero-point vibrational energy     642983.8 (Joules/Mol)
                                  153.67682 (Kcal/Mol)
 Warning -- explicit consideration of  21 degrees of freedom as
           vibrations may cause significant error
 Vibrational temperatures:     36.42    64.11    77.26    97.51   125.00
          (Kelvin)            145.77   169.30   195.83   258.62   288.99
                              319.02   378.90   434.77   439.56   494.62
                              505.85   620.15   697.43   738.32   843.15
                              856.14   901.35   927.24   964.20   986.48
                             1000.91  1063.49  1118.91  1143.40  1166.79
                             1197.13  1206.04  1259.49  1288.52  1310.85
                             1350.41  1379.51  1423.66  1453.67  1471.72
                             1508.04  1554.84  1618.02  1637.99  1654.77
                             1666.78  1689.54  1772.92  1812.96  1819.18
                             1835.34  1852.73  1887.79  1890.05  1927.78
                             1963.74  1974.71  2000.49  2006.97  2043.59
                             2093.63  2104.96  2136.48  2154.83  2174.36
                             2275.26  2310.24  2382.07  2438.95  2607.87
                             4299.36  4347.48  4355.97  4400.97  4410.10
                             4431.69  4460.50  4644.26  4663.91  4869.83
                             4994.12  5037.45  5153.04  5400.15

 Zero-point correction=                           0.244900 (Hartree/Particle)
 Thermal correction to Energy=                    0.260535
 Thermal correction to Enthalpy=                  0.261479
 Thermal correction to Gibbs Free Energy=         0.200048
 Sum of electronic and zero-point Energies=           -796.097183
 Sum of electronic and thermal Energies=              -796.081548
 Sum of electronic and thermal Enthalpies=            -796.080604
 Sum of electronic and thermal Free Energies=         -796.142035

                     E (Thermal)             CV                S
                      KCal/Mol        Cal/Mol-Kelvin    Cal/Mol-Kelvin
 Total                  163.488             57.559            129.294
 Electronic               0.000              0.000              0.000
 Translational            0.889              2.981             42.150
 Rotational               0.889              2.981             32.808
 Vibrational            161.711             51.597             54.335
 Vibration     1          0.593              1.985              6.167
 Vibration     2          0.595              1.980              5.045
 Vibration     3          0.596              1.976              4.676
 Vibration     4          0.598              1.970              4.217
 Vibration     5          0.601              1.958              3.729
 Vibration     6          0.604              1.948              3.429
 Vibration     7          0.608              1.935              3.138
 Vibration     8          0.614              1.917              2.858
 Vibration     9          0.629              1.867              2.331
 Vibration    10          0.638              1.839              2.125
 Vibration    11          0.648              1.808              1.945
 Vibration    12          0.670              1.740              1.639
 Vibration    13          0.694              1.670              1.405
 Vibration    14          0.696              1.663              1.387
 Vibration    15          0.723              1.588              1.195
 Vibration    16          0.728              1.572              1.159
 Vibration    17          0.792              1.403              0.855
 Vibration    18          0.841              1.284              0.697
 Vibration    19          0.868              1.221              0.626
 Vibration    20          0.943              1.062              0.474
 Vibration    21          0.953              1.042              0.458

 Optimization completed.
    -- Stationary point found.
 Normal termination of Gaussian 09 at Thu Jul 29 01:36:22 2021.
