 Gaussian 09, Revision D.01,
 Gaussian 09:  ES64L-G09RevD.01 24-Apr-2013

 ----------------------------------------------------------------------
 # B3LYP/6-311++G(d,p) opt=calcfc freq=noraman nosymm integral(ultrafin
 egrid)
 ----------------------------------------------------------------------

 ------------------------------------------------------------
 Candidate Structure: Conf:900 OPT and FREQ calc in gas phase
 ------------------------------------------------------------
 Symbolic Z-matrix:
 Charge =  0 Multiplicity = 1

 SCF Done:  E(RB3LYP) =  -796.337777895     A.U. after   15 cycles
 SCF Done:  E(RB3LYP) =  -796.339692997     A.U. after   13 cycles
 SCF Done:  E(RB3LYP) =  -796.339971880     A.U. after   13 cycles
 SCF Done:  E(RB3LYP) =  -796.339979543     A.U. after   12 cycles
 SCF Done:  E(RB3LYP) =  -796.339999823     A.U. after   12 cycles
 SCF Done:  E(RB3LYP) =  -796.340000676     A.U. after   10 cycles
 SCF Done:  E(RB3LYP) =  -796.340000763     A.U. after    9 cycles
 Optimization completed.
    -- Stationary point found.
 Normal termination of Gaussian 09 at Wed Jul 28 23:59:48 2021.

 ----------------------------------------------------------------------
 #N Geom=AllCheck Guess=TCheck SCRF=Check GenChk RB3LYP/6-311++G(d,p) F
 req
 ----------------------------------------------------------------------

 Structure from the checkpoint file:  "conf-900.chk"
 ------------------------------------------------------------
 Candidate Structure: Conf:900 OPT and FREQ calc in gas phase
 ------------------------------------------------------------
 Charge =  0 Multiplicity = 1

                          Input orientation:
 ---------------------------------------------------------------------
 Center     Atomic      Atomic             Coordinates (Angstroms)
 Number     Number       Type             X           Y           Z
 ---------------------------------------------------------------------
      1          8           0       -0.768489    0.512181   -1.172912
      2          6           0       -1.197176   -0.560547   -0.743613
      3          7           0       -0.432171   -1.400285   -0.004755
      4          6           0        0.971020   -1.155201    0.282268
      5          6           0        1.575500   -2.476253    0.726017
      6          8           0        2.915899   -2.407818    0.795590
      7          8           0        0.942757   -3.466285    1.004659
      8          6           0        1.209494   -0.036944    1.370132
      9          6           0        1.977351    1.144601    0.880556
     10          6           0        3.149564    1.728274    1.299958
     11          7           0        3.448833    2.829860    0.531941
     12          6           0        2.473799    2.912405   -0.347038
     13          7           0        1.553489    1.920690   -0.179480
     14          6           0       -2.612788   -1.042957   -1.029200
     15          6           0       -3.559056    0.092400   -1.418740
     16          7           0       -3.709468    1.043934   -0.312580
     17          1           0       -0.809054   -2.281006    0.321096
     18          1           0        1.477136   -0.850089   -0.636751
     19          1           0        3.241889   -3.264468    1.111823
     20          1           0        0.220571    0.260692    1.731006
     21          1           0        1.742542   -0.453703    2.226591
     22          1           0        3.788847    1.415282    2.111827
     23          1           0        2.384029    3.660667   -1.119980
     24          1           0        0.724913    1.713922   -0.732378
     25          1           0       -3.005235   -1.568800   -0.153844
     26          1           0       -2.549886   -1.770081   -1.848360
     27          1           0       -4.539203   -0.343142   -1.630317
     28          1           0       -3.198544    0.555641   -2.346566
     29          1           0       -2.896867    1.650129   -0.264261
     30          1           0       -4.519559    1.637195   -0.452562
 ---------------------------------------------------------------------

 SCF Done:  E(RB3LYP) =  -796.340000763     A.U. after    1 cycles

 Alpha  occ. eigenvalues --  -19.20564 -19.15264 -19.11874 -14.36561 -14.35427
 Alpha  occ. eigenvalues --  -14.30101 -14.28543 -10.34278 -10.30146 -10.25761
 Alpha  occ. eigenvalues --  -10.21648 -10.20822 -10.20736 -10.20180 -10.19616
 Alpha  occ. eigenvalues --  -10.17668  -1.15045  -1.07004  -1.06154  -1.00962
 Alpha  occ. eigenvalues --   -0.95824  -0.89399  -0.86634  -0.82069  -0.77594
 Alpha  occ. eigenvalues --   -0.75037  -0.69175  -0.66890  -0.62401  -0.61401
 Alpha  occ. eigenvalues --   -0.60622  -0.58588  -0.54896  -0.54086  -0.52686
 Alpha  occ. eigenvalues --   -0.51842  -0.50251  -0.49593  -0.49066  -0.48462
 Alpha  occ. eigenvalues --   -0.45960  -0.44885  -0.44298  -0.43682  -0.42688
 Alpha  occ. eigenvalues --   -0.40867  -0.40549  -0.40130  -0.40014  -0.39288
 Alpha  occ. eigenvalues --   -0.38153  -0.37293  -0.36311  -0.32333  -0.29448
 Alpha  occ. eigenvalues --   -0.29126  -0.27729  -0.26521  -0.25392  -0.22528
 Alpha virt. eigenvalues --   -0.03754  -0.02421  -0.01803  -0.01217  -0.00078
 Alpha virt. eigenvalues --    0.00658   0.00691   0.01524   0.01849   0.02285
 Alpha virt. eigenvalues --    0.02756   0.03297   0.03678   0.04221   0.04860

 Mulliken charges:
               1
     1  O   -0.361911
     2  C   -0.122554
     3  N   -0.002774
     4  C   -0.280645
     5  C    0.012626
     6  O   -0.101664
     7  O   -0.269372
     8  C   -0.502547
     9  C    0.396660
    10  C   -0.508097
    11  N   -0.140227
    12  C    0.024003
    13  N   -0.264911
    14  C   -0.194074
    15  C   -0.502668
    16  N   -0.371688
    17  H    0.297475
    18  H    0.289371
    19  H    0.299101
    20  H    0.219331
    21  H    0.224416
    22  H    0.128552
    23  H    0.156840
    24  H    0.431045
    25  H    0.161156
    26  H    0.183189
    27  H    0.165868
    28  H    0.161639
    29  H    0.222900
    30  H    0.248959
 Sum of Mulliken charges =   0.00000

 Dipole moment (field-independent basis, Debye):
    X=             -3.1187    Y=             -3.6505    Z=             -1.0902  Tot=              4.9236
 Quadrupole moment (field-independent basis, Debye-Ang):
   XX=           -100.3746   YY=           -100.7086   ZZ=            -93.3418
   XY=            -18.7337   XZ=              5.9730   YZ=             -4.2433

  Exact polarizability: 160.675  13.447 158.513  17.907 -14.194 119.736
 Approx polarizability: 214.813  23.777 224.656  16.654 -28.086 185.470

                      1                      2                      3
                      A                      A                      A
 Frequencies --     22.1291                37.3547                55.9531
 Red. masses --      3.6606                 6.2864                 4.5364
 Frc consts  --      0.0011                 0.0052                 0.0084
 IR Inten    --      1.0459                 1.0799                 1.2821

                      4                      5                      6
                      A                      A                      A
 Frequencies --     57.3673                79.7704                90.3447
 Red. masses --      9.1465                 5.1595                 6.1061
 Frc consts  --      0.0177                 0.0193                 0.0294
 IR Inten    --      1.2316                 1.1580                 6.2336

                      7                      8                      9
                      A                      A                      A
 Frequencies --    110.8566               131.5723               140.8163
 Red. masses --      4.3089                 3.9414                 5.3384
 Frc consts  --      0.0312                 0.0402                 0.0624
 IR Inten    --      2.3580                 4.9890                 3.5201

                     10                     11                     12
                      A                      A                      A
 Frequencies --    191.7243               242.4601               284.1811
 Red. masses --      4.6475                 2.1833                 1.5536
 Frc consts  --      0.1007                 0.0756                 0.0739
 IR Inten    --      2.0860                39.5020                35.4647

                     13                     14                     15
                      A                      A                      A
 Frequencies --    286.7771               296.0049               318.3513
 Red. masses --      5.5106                 1.9745                 4.0150
 Frc consts  --      0.2670                 0.1019                 0.2397
 IR Inten    --      4.0349                 4.3982                 4.1045

                     16                     17                     18
                      A                      A                      A
 Frequencies --    350.0504               404.0848               436.7888
 Red. masses --      5.1339                 3.5993                 2.6366
 Frc consts  --      0.3706                 0.3463                 0.2964
 IR Inten    --      1.3095                11.2094                28.1124

                     19                     20                     21
                      A                      A                      A
 Frequencies --    539.1923               562.7599               594.0308
 Red. masses --      1.5526                 3.0584                 1.4616
 Frc consts  --      0.2659                 0.5707                 0.3039
 IR Inten    --     61.9516                34.0894                73.4512

                     22                     23                     24
                      A                      A                      A
 Frequencies --    628.5577               629.8455               644.3445
 Red. masses --      2.8314                 2.8179                 2.7664
 Frc consts  --      0.6591                 0.6586                 0.6767
 IR Inten    --     25.2482                12.8448                 0.6890

                     25                     26                     27
                      A                      A                      A
 Frequencies --    672.0630               679.3765               715.7987
 Red. masses --      3.4774                 2.8965                 3.4753
 Frc consts  --      0.9254                 0.7877                 1.0491
 IR Inten    --     49.4773                 6.0182                20.5139

                     28                     29                     30
                      A                      A                      A
 Frequencies --    769.9835               775.2390               816.2354
 Red. masses --      4.2721                 1.0948                 1.4233
 Frc consts  --      1.4923                 0.3877                 0.5587
 IR Inten    --     13.3706                35.6248                24.7769

                     31                     32                     33
                      A                      A                      A
 Frequencies --    839.0912               847.8264               856.3678
 Red. masses --      1.5055                 1.4605                 2.2182
 Frc consts  --      0.6245                 0.6185                 0.9585
 IR Inten    --     27.7728                83.8431                30.2377

                     34                     35                     36
                      A                      A                      A
 Frequencies --    887.3624               895.9045               938.8682
 Red. masses --      1.9824                 2.2508                 5.8604
 Frc consts  --      0.9197                 1.0644                 3.0436
 IR Inten    --     13.7032                11.2692                13.7539

                     37                     38                     39
                      A                      A                      A
 Frequencies --    950.6578               976.9954              1017.6163
 Red. masses --      2.8916                 3.9643                 2.9538
 Frc consts  --      1.5397                 2.2295                 1.8022
 IR Inten    --      3.4016                 6.6046                21.4094

                     40                     41                     42
                      A                      A                      A
 Frequencies --   1023.0252              1056.4834              1095.4978
 Red. masses --      3.8716                 2.4356                 3.2656
 Frc consts  --      2.3873                 1.6017                 2.3090
 IR Inten    --      1.8803                15.4389                44.1580

                     43                     44                     45
                      A                      A                      A
 Frequencies --   1121.2522              1127.4407              1145.0595
 Red. masses --      1.9703                 1.7775                 1.9950
 Frc consts  --      1.4594                 1.3312                 1.5412
 IR Inten    --     21.8281                48.0953                 5.1606

                     46                     47                     48
                      A                      A                      A
 Frequencies --   1167.5267              1181.3010              1210.0446
 Red. masses --      1.6753                 2.1291                 1.3092
 Frc consts  --      1.3454                 1.7505                 1.1294
 IR Inten    --    130.2105                84.1358                 9.1374

                     49                     50                     51
                      A                      A                      A
 Frequencies --   1234.1590              1255.7356              1261.6342
 Red. masses --      1.3029                 1.5033                 2.3336
 Frc consts  --      1.1692                 1.3967                 2.1885
 IR Inten    --     15.6504                25.0553                 8.8145

                     52                     53                     54
                      A                      A                      A
 Frequencies --   1274.6983              1287.6331              1325.1154
 Red. masses --      1.3902                 1.2940                 1.3832
 Frc consts  --      1.3309                 1.2640                 1.4310
 IR Inten    --     10.7902                10.7384                 2.1217

                     55                     56                     57
                      A                      A                      A
 Frequencies --   1348.3922              1355.6657              1380.8477
 Red. masses --      1.2619                 1.4602                 1.6306
 Frc consts  --      1.3518                 1.5811                 1.8318
 IR Inten    --      8.9966                37.5073                40.8240

                     58                     59                     60
                      A                      A                      A
 Frequencies --   1385.8359              1413.5078              1421.6511
 Red. masses --      3.2469                 2.1242                 1.4051
 Frc consts  --      3.6741                 2.5006                 1.6732
 IR Inten    --      7.0105                80.8813                16.6225

                     61                     62                     63
                      A                      A                      A
 Frequencies --   1440.2811              1449.5690              1478.5551
 Red. masses --      2.4301                 1.1054                 1.1477
 Frc consts  --      2.9701                 1.3685                 1.4782
 IR Inten    --     74.6789                16.1713                13.7701

                     64                     65                     66
                      A                      A                      A
 Frequencies --   1498.6926              1499.8288              1540.2963
 Red. masses --      1.1049                 3.1178                 2.2854
 Frc consts  --      1.4622                 4.1321                 3.1946
 IR Inten    --      2.3408                31.7616               319.9809

                     67                     68                     69
                      A                      A                      A
 Frequencies --   1607.3035              1655.2249              1705.3003
 Red. masses --      4.1656                 1.1620                 5.5372
 Frc consts  --      6.3405                 1.8757                 9.4872
 IR Inten    --     16.1361                91.8390               181.6982

                     70                     71                     72
                      A                      A                      A
 Frequencies --   1800.0521              2993.7209              3022.1204
 Red. masses --      9.6539                 1.0699                 1.0632
 Frc consts  --     18.4299                 5.6494                 5.7214
 IR Inten    --    335.7044                48.6541                13.4857

                     73                     74                     75
                      A                      A                      A
 Frequencies --   3041.1916              3064.7512              3068.7396
 Red. masses --      1.0653                 1.0929                 1.0840
 Frc consts  --      5.8051                 6.0483                 6.0144
 IR Inten    --     15.9755                26.8859                 8.0850

                     76                     77                     78
                      A                      A                      A
 Frequencies --   3074.2487              3093.5392              3231.1932
 Red. masses --      1.0986                 1.0982                 1.0960
 Frc consts  --      6.1173                 6.1923                 6.7420
 IR Inten    --     21.1024                 9.1151                 7.8286

                     79                     80                     81
                      A                      A                      A
 Frequencies --   3240.7097              3501.3089              3510.0802
 Red. masses --      1.0976                 1.0847                 1.0496
 Frc consts  --      6.7918                 7.8346                 7.6191
 IR Inten    --      1.1330               404.7474                 0.3938

                     82                     83                     84
                      A                      A                      A
 Frequencies --   3583.9105              3586.9720              3755.1071
 Red. masses --      1.0779                 1.0935                 1.0646
 Frc consts  --      8.1570                 8.2894                 8.8444
 IR Inten    --     85.1161                 5.9890                99.6177

 - Thermochemistry -
 -------------------
 Temperature   298.150 Kelvin.  Pressure   1.00000 Atm.
 Atom     1 has atomic number  8 and mass  15.99491

 Molecular mass:   226.10659 amu.
 Principal axes and moments of inertia in atomic units:
                           1         2         3
     Eigenvalues --  3088.965704864.583477458.31870
           X            0.94205  -0.15279  -0.29867
           Y            0.20229   0.96892   0.14240
           Z            0.26763  -0.19456   0.94367
 This molecule is an asymmetric top.
 Rotational symmetry number  1.
 Warning -- assumption of classical behavior for rotation
           may cause significant error
 Rotational temperatures (Kelvin)      0.02804     0.01780     0.01161
 Rotational constants (GHZ):           0.58425     0.37100     0.24198
 Zero-point vibrational energy     641736.2 (Joules/Mol)
                                  153.37862 (Kcal/Mol)
 Warning -- explicit consideration of  21 degrees of freedom as
           vibrations may cause significant error
 Vibrational temperatures:     31.84    53.74    80.50    82.54   114.77
          (Kelvin)            129.99   159.50   189.30   202.60   275.85
                              348.85   408.87   412.61   425.88   458.04
                              503.64   581.39   628.44   775.78   809.68
                              854.68   904.35   906.21   927.07   966.95
                              977.47  1029.87  1107.83  1115.39  1174.38
                             1207.26  1219.83  1232.12  1276.71  1289.01
                             1350.82  1367.78  1405.68  1464.12  1471.90
                             1520.04  1576.18  1613.23  1622.13  1647.48
                             1679.81  1699.63  1740.98  1775.68  1806.72
                             1815.21  1834.00  1852.61  1906.54  1940.03
                             1950.50  1986.73  1993.91  2033.72  2045.44
                             2072.24  2085.60  2127.31  2156.28  2157.92
                             2216.14  2312.55  2381.50  2453.54  2589.87
                             4307.29  4348.15  4375.59  4409.49  4415.23
                             4423.15  4450.91  4648.96  4662.65  5037.60
                             5050.22  5156.44  5160.85  5402.75

 Zero-point correction=                           0.244424 (Hartree/Particle)
 Thermal correction to Energy=                    0.260359
 Thermal correction to Enthalpy=                  0.261303
 Thermal correction to Gibbs Free Energy=         0.198625
 Sum of electronic and zero-point Energies=           -796.095576
 Sum of electronic and thermal Energies=              -796.079642
 Sum of electronic and thermal Enthalpies=            -796.078698
 Sum of electronic and thermal Free Energies=         -796.141375

                     E (Thermal)             CV                S
                      KCal/Mol        Cal/Mol-Kelvin    Cal/Mol-Kelvin
 Total                  163.378             58.153            131.916
 Electronic               0.000              0.000              0.000
 Translational            0.889              2.981             42.150
 Rotational               0.889              2.981             33.083
 Vibrational            161.600             52.192             56.684
 Vibration     1          0.593              1.985              6.433
 Vibration     2          0.594              1.982              5.395
 Vibration     3          0.596              1.975              4.595
 Vibration     4          0.596              1.975              4.546
 Vibration     5          0.600              1.963              3.897
 Vibration     6          0.602              1.956              3.653
 Vibration     7          0.607              1.940              3.254
 Vibration     8          0.612              1.922              2.923
 Vibration     9          0.615              1.912              2.793
 Vibration    10          0.634              1.851              2.211
 Vibration    11          0.659              1.775              1.785
 Vibration    12          0.683              1.703              1.508
 Vibration    13          0.684              1.698              1.493
 Vibration    14          0.690              1.681              1.439
 Vibration    15          0.705              1.639              1.319
 Vibration    16          0.727              1.575              1.166
 Vibration    17          0.769              1.461              0.948
 Vibration    18          0.797              1.390              0.837
 Vibration    19          0.894              1.163              0.567
 Vibration    20          0.918              1.112              0.518
 Vibration    21          0.952              1.044              0.460

 Normal termination of Gaussian 09 at Thu Jul 29 01:16:30 2021.
