 Gaussian 09, Revision D.01,
 Gaussian 09:  ES64L-G09RevD.01 24-Apr-2013

 ----------------------------------------------------------------------
 # B3LYP/6-31G(d,p) EmpiricalDispersion=GD3BJ opt=calcfc freq=noraman n
 osymm integral(ultrafinegrid)
 ----------------------------------------------------------------------

 ------------------------------------------------------------
 Candidate Structure: Conf:609 OPT and FREQ calc in gas phase
 ------------------------------------------------------------
 Symbolic Z-matrix:
 Charge =  0 Multiplicity = 1

 SCF Done:  E(RB3LYP) =  -796.158352059     A.U. after   14 cycles
 SCF Done:  E(RB3LYP) =  -796.160448085     A.U. after   14 cycles
 SCF Done:  E(RB3LYP) =  -796.160615002     A.U. after   14 cycles
 SCF Done:  E(RB3LYP) =  -796.161043152     A.U. after   12 cycles
 SCF Done:  E(RB3LYP) =  -796.161167426     A.U. after   13 cycles
 SCF Done:  E(RB3LYP) =  -796.161225584     A.U. after   12 cycles
 SCF Done:  E(RB3LYP) =  -796.161334434     A.U. after   12 cycles
 SCF Done:  E(RB3LYP) =  -796.161333764     A.U. after   12 cycles
 SCF Done:  E(RB3LYP) =  -796.161357447     A.U. after   11 cycles
 SCF Done:  E(RB3LYP) =  -796.161359712     A.U. after   10 cycles
 SCF Done:  E(RB3LYP) =  -796.161359863     A.U. after    8 cycles
 SCF Done:  E(RB3LYP) =  -796.161359869     A.U. after    6 cycles
 Optimization completed.
    -- Stationary point found.
 Normal termination of Gaussian 09 at Sat Jul 24 01:11:38 2021.

 ----------------------------------------------------------------------
 #N Geom=AllCheck Guess=TCheck SCRF=Check GenChk RB3LYP/6-31G(d,p) Freq
 ----------------------------------------------------------------------

 Structure from the checkpoint file:  "conf-609.chk"
 ------------------------------------------------------------
 Candidate Structure: Conf:609 OPT and FREQ calc in gas phase
 ------------------------------------------------------------
 Charge =  0 Multiplicity = 1

                          Input orientation:
 ---------------------------------------------------------------------
 Center     Atomic      Atomic             Coordinates (Angstroms)
 Number     Number       Type             X           Y           Z
 ---------------------------------------------------------------------
      1          8           0        1.371994    1.318607   -0.397608
      2          6           0        1.615841    0.430278    0.412024
      3          7           0        0.630415   -0.412530    0.864462
      4          6           0       -0.651189   -0.423510    0.173533
      5          6           0       -0.390578   -0.724017   -1.310934
      6          8           0       -1.288657   -0.153798   -2.155034
      7          8           0        0.495813   -1.440127   -1.710654
      8          6           0       -1.489269    0.849712    0.461990
      9          6           0       -2.966805    0.633094    0.446217
     10          6           0       -3.896024    0.603775    1.462260
     11          7           0       -5.161761    0.359903    0.974046
     12          6           0       -5.007888    0.238365   -0.328342
     13          7           0       -3.703176    0.397123   -0.700264
     14          6           0        3.015961    0.155444    0.917405
     15          6           0        3.880814   -0.416782   -0.233900
     16          7           0        5.270971   -0.696555    0.102684
     17          1           0        0.918677   -1.268482    1.314141
     18          1           0       -1.209282   -1.284255    0.558427
     19          1           0       -1.012542   -0.418994   -3.049125
     20          1           0       -1.215555    1.175612    1.468134
     21          1           0       -1.177369    1.642592   -0.221093
     22          1           0       -3.717490    0.756572    2.518046
     23          1           0       -5.793924    0.039328   -1.043492
     24          1           0       -3.300843    0.321164   -1.622420
     25          1           0        3.444697    1.103775    1.256941
     26          1           0        3.012040   -0.536938    1.768016
     27          1           0        3.417386   -1.337970   -0.604366
     28          1           0        3.854050    0.296544   -1.062582
     29          1           0        5.322579   -1.360194    0.872226
     30          1           0        5.731183    0.152271    0.423713
 ---------------------------------------------------------------------

 SCF Done:  E(RB3LYP) =  -796.161359869     A.U. after    1 cycles

 Alpha  occ. eigenvalues --  -19.22292 -19.15731 -19.12520 -14.37965 -14.37436
 Alpha  occ. eigenvalues --  -14.31936 -14.30259 -10.34041 -10.29619 -10.26043
 Alpha  occ. eigenvalues --  -10.23072 -10.21578 -10.21260 -10.20460 -10.20059
 Alpha  occ. eigenvalues --  -10.18809  -1.12859  -1.04728  -1.03450  -1.00274
 Alpha  occ. eigenvalues --   -0.93862  -0.88730  -0.86006  -0.80643  -0.76261
 Alpha  occ. eigenvalues --   -0.73259  -0.67633  -0.64946  -0.62009  -0.60567
 Alpha  occ. eigenvalues --   -0.58720  -0.57932  -0.54385  -0.52032  -0.51213
 Alpha  occ. eigenvalues --   -0.50457  -0.50165  -0.47884  -0.46253  -0.44862
 Alpha  occ. eigenvalues --   -0.44362  -0.42929  -0.42583  -0.41795  -0.41197
 Alpha  occ. eigenvalues --   -0.40270  -0.39782  -0.39218  -0.38661  -0.38131
 Alpha  occ. eigenvalues --   -0.36912  -0.34893  -0.33652  -0.29492  -0.27821
 Alpha  occ. eigenvalues --   -0.27024  -0.26605  -0.25640  -0.23750  -0.21628
 Alpha virt. eigenvalues --   -0.01270   0.01200   0.03341   0.05452   0.05766
 Alpha virt. eigenvalues --    0.07560   0.07874   0.11514   0.12218   0.12408
 Alpha virt. eigenvalues --    0.12714   0.14635   0.15129   0.15495   0.16199

 Mulliken charges:
               1
     1  O   -0.523635
     2  C    0.594969
     3  N   -0.511287
     4  C   -0.016484
     5  C    0.618356
     6  O   -0.501894
     7  O   -0.464320
     8  C   -0.233020
     9  C    0.260477
    10  C   -0.016039
    11  N   -0.445143
    12  C    0.256465
    13  N   -0.525823
    14  C   -0.268676
    15  C   -0.061272
    16  N   -0.589676
    17  H    0.267383
    18  H    0.145474
    19  H    0.332298
    20  H    0.127702
    21  H    0.153728
    22  H    0.082071
    23  H    0.107109
    24  H    0.270864
    25  H    0.126372
    26  H    0.083934
    27  H    0.123494
    28  H    0.135926
    29  H    0.233290
    30  H    0.237356
 Sum of Mulliken charges =   0.00000

 Dipole moment (field-independent basis, Debye):
    X=              2.0314    Y=             -1.6194    Z=             -0.0215  Tot=              2.5980
 Quadrupole moment (field-independent basis, Debye-Ang):
   XX=           -114.2702   YY=            -96.3057   ZZ=            -82.8831
   XY=              4.6286   XZ=             26.6736   YZ=             -3.0678

  Exact polarizability: 170.964  -2.789  87.604   3.060   1.761 115.674
 Approx polarizability: 212.945  -0.806 145.569  -1.315  -6.867 187.255

                      1                      2                      3
                      A                      A                      A
 Frequencies --     16.4265                23.9493                36.7369
 Red. masses --      4.2109                 5.2590                 5.9020
 Frc consts  --      0.0007                 0.0018                 0.0047
 IR Inten    --      1.6170                 8.5338                 4.1715

                      4                      5                      6
                      A                      A                      A
 Frequencies --     53.1567                71.3358                93.9123
 Red. masses --      5.0480                 3.1323                 2.3091
 Frc consts  --      0.0084                 0.0094                 0.0120
 IR Inten    --      1.7583                 3.9660                 2.5135

                      7                      8                      9
                      A                      A                      A
 Frequencies --     97.9500               131.5948               150.3850
 Red. masses --      8.9946                 6.4123                 6.3460
 Frc consts  --      0.0508                 0.0654                 0.0846
 IR Inten    --      3.0469                 1.8749                 5.7593

                     10                     11                     12
                      A                      A                      A
 Frequencies --    192.7197               221.6766               285.8586
 Red. masses --      4.6256                 5.3712                 3.8387
 Frc consts  --      0.1012                 0.1555                 0.1848
 IR Inten    --     10.8829                 2.1180                 8.6259

                     13                     14                     15
                      A                      A                      A
 Frequencies --    308.2285               317.2208               339.4735
 Red. masses --      3.0079                 1.1359                 4.3067
 Frc consts  --      0.1684                 0.0673                 0.2924
 IR Inten    --      7.3198                45.6181                 1.7164

                     16                     17                     18
                      A                      A                      A
 Frequencies --    370.0765               391.6075               433.9088
 Red. masses --      3.2463                 3.5948                 2.5492
 Frc consts  --      0.2620                 0.3248                 0.2828
 IR Inten    --      2.0692                12.9746                 7.9474

                     19                     20                     21
                      A                      A                      A
 Frequencies --    463.8923               517.8841               551.2786
 Red. masses --      1.7081                 3.5964                 2.9609
 Frc consts  --      0.2166                 0.5683                 0.5302
 IR Inten    --     72.1201                32.4173                29.9454

                     22                     23                     24
                      A                      A                      A
 Frequencies --    589.2426               617.0425               673.7875
 Red. masses --      1.5623                 2.0167                 2.8853
 Frc consts  --      0.3196                 0.4524                 0.7718
 IR Inten    --     39.2684                91.2073                43.6889

                     25                     26                     27
                      A                      A                      A
 Frequencies --    690.9556               693.2249               729.7130
 Red. masses --      2.9072                 1.9741                 3.5372
 Frc consts  --      0.8178                 0.5589                 1.1097
 IR Inten    --     33.4968                 6.2482                31.5814

                     28                     29                     30
                      A                      A                      A
 Frequencies --    740.9267               774.8410               780.5889
 Red. masses --      5.9763                 1.2470                 2.8832
 Frc consts  --      1.9330                 0.4411                 1.0351
 IR Inten    --      5.6012                 1.1219                 3.5452

                     31                     32                     33
                      A                      A                      A
 Frequencies --    798.6752               839.1584               847.6259
 Red. masses --      1.3876                 1.6344                 1.7553
 Frc consts  --      0.5215                 0.6781                 0.7430
 IR Inten    --     14.6323                50.2542                72.9332

                     34                     35                     36
                      A                      A                      A
 Frequencies --    861.0189               917.1154               942.3610
 Red. masses --      2.0676                 2.5263                 5.7825
 Frc consts  --      0.9031                 1.2519                 3.0255
 IR Inten    --    139.6640                 1.4308                15.9284

                     37                     38                     39
                      A                      A                      A
 Frequencies --    972.1405               991.1838              1013.4464
 Red. masses --      1.8470                 1.9210                 4.4608
 Frc consts  --      1.0284                 1.1120                 2.6994
 IR Inten    --      5.6130                13.1611               102.2595

                     40                     41                     42
                      A                      A                      A
 Frequencies --   1033.6735              1053.7316              1092.0278
 Red. masses --      3.5950                 4.4210                 1.6134
 Frc consts  --      2.2632                 2.8922                 1.1336
 IR Inten    --     14.6776                 5.4831                 9.2922

                     43                     44                     45
                      A                      A                      A
 Frequencies --   1116.0153              1122.9735              1143.9119
 Red. masses --      3.2269                 1.5184                 1.7360
 Frc consts  --      2.3680                 1.1282                 1.3384
 IR Inten    --     13.9250                42.3223                35.9325

                     46                     47                     48
                      A                      A                      A
 Frequencies --   1154.8753              1172.1188              1202.9981
 Red. masses --      2.1750                 2.1440                 1.5604
 Frc consts  --      1.7092                 1.7355                 1.3305
 IR Inten    --     34.9801               171.1764                50.4976

                     49                     50                     51
                      A                      A                      A
 Frequencies --   1259.4646              1270.7334              1279.8704
 Red. masses --      1.6985                 2.1350                 1.4318
 Frc consts  --      1.5874                 2.0312                 1.3819
 IR Inten    --     50.8286                25.1238                 2.5412

                     52                     53                     54
                      A                      A                      A
 Frequencies --   1296.0435              1305.0976              1332.0805
 Red. masses --      1.3466                 1.2876                 1.3973
 Frc consts  --      1.3326                 1.2922                 1.4608
 IR Inten    --      5.7616                 1.8018                 4.9134

                     55                     56                     57
                      A                      A                      A
 Frequencies --   1333.2413              1359.9027              1389.0497
 Red. masses --      1.5037                 1.8826                 1.7269
 Frc consts  --      1.5748                 2.0513                 1.9631
 IR Inten    --     55.5532                13.2426                12.8005

                     58                     59                     60
                      A                      A                      A
 Frequencies --   1390.4627              1400.1208              1405.2128
 Red. masses --      1.3558                 1.2153                 3.0924
 Frc consts  --      1.5445                 1.4037                 3.5977
 IR Inten    --      8.9731                10.4705                11.8113

                     61                     62                     63
                      A                      A                      A
 Frequencies --   1442.0341              1494.5620              1494.9574
 Red. masses --      2.9307                 1.1066                 1.1350
 Frc consts  --      3.5907                 1.4564                 1.4945
 IR Inten    --     29.7818                 1.1869                 9.8935

                     64                     65                     66
                      A                      A                      A
 Frequencies --   1513.9530              1515.1954              1528.6304
 Red. masses --      1.0924                 3.4735                 1.9835
 Frc consts  --      1.4752                 4.6984                 2.7308
 IR Inten    --      3.8389                35.7594               204.6233

                     67                     68                     69
                      A                      A                      A
 Frequencies --   1622.0705              1673.1003              1772.8697
 Red. masses --      4.5491                 1.0906                 9.5054
 Frc consts  --      7.0520                 1.7987                17.6025
 IR Inten    --      8.6395                21.5247               164.9593

                     70                     71                     72
                      A                      A                      A
 Frequencies --   1850.3871              3042.7139              3061.9540
 Red. masses --     10.3413                 1.0617                 1.0644
 Frc consts  --     20.8618                 5.7910                 5.8795
 IR Inten    --    258.8322                17.4880                23.2249

                     73                     74                     75
                      A                      A                      A
 Frequencies --   3070.7915              3090.8155              3096.5659
 Red. masses --      1.0831                 1.0618                 1.0990
 Frc consts  --      6.0177                 5.9763                 6.2090
 IR Inten    --      4.2722                 9.7997                 4.9153

                     76                     77                     78
                      A                      A                      A
 Frequencies --   3119.5054              3137.7356              3246.3862
 Red. masses --      1.1058                 1.1039                 1.0959
 Frc consts  --      6.3402                 6.4034                 6.8050
 IR Inten    --     27.2557                 3.3535                 9.7146

                     79                     80                     81
                      A                      A                      A
 Frequencies --   3257.8146              3487.2418              3572.8438
 Red. masses --      1.0975                 1.0489                 1.0929
 Frc consts  --      6.8631                 7.5152                 8.2197
 IR Inten    --      2.3663                 0.6801                 0.1243

                     82                     83                     84
                      A                      A                      A
 Frequencies --   3643.8335              3662.7900              3746.6117
 Red. masses --      1.0781                 1.0811                 1.0641
 Frc consts  --      8.4342                 8.5454                 8.8007
 IR Inten    --     23.6850               118.5092                67.4448

 - Thermochemistry -
 -------------------
 Temperature   298.150 Kelvin.  Pressure   1.00000 Atm.
 Atom     1 has atomic number  8 and mass  15.99491

 Molecular mass:   226.10659 amu.
 Principal axes and moments of inertia in atomic units:
                           1         2         3
     Eigenvalues --  1258.790057836.924258521.85179
           X            0.99608   0.04847   0.07403
           Y           -0.08643   0.35357   0.93141
           Z           -0.01897   0.93415  -0.35637
 This molecule is an asymmetric top.
 Rotational symmetry number  1.
 Warning -- assumption of classical behavior for rotation
           may cause significant error
 Rotational temperatures (Kelvin)      0.06881     0.01105     0.01016
 Rotational constants (GHZ):           1.43371     0.23029     0.21178
 Zero-point vibrational energy     644794.9 (Joules/Mol)
                                  154.10968 (Kcal/Mol)
 Warning -- explicit consideration of  23 degrees of freedom as
           vibrations may cause significant error
 Vibrational temperatures:     23.63    34.46    52.86    76.48   102.64
          (Kelvin)            135.12   140.93   189.34   216.37   277.28
                              318.94   411.29   443.47   456.41   488.43
                              532.46   563.44   624.30   667.44   745.12
                              793.17   847.79   887.79   969.43   994.13
                              997.39  1049.89  1066.03  1114.82  1123.09
                             1149.11  1207.36  1219.54  1238.81  1319.52
                             1355.85  1398.69  1426.09  1458.12  1487.22
                             1516.08  1571.18  1605.70  1615.71  1645.83
                             1661.61  1686.42  1730.84  1812.09  1828.30
                             1841.45  1864.72  1877.74  1916.56  1918.23
                             1956.59  1998.53  2000.56  2014.46  2021.79
                             2074.76  2150.34  2150.91  2178.24  2180.03
                             2199.36  2333.79  2407.22  2550.76  2662.29
                             4377.78  4405.46  4418.18  4446.99  4455.26
                             4488.27  4514.50  4670.82  4687.26  5017.36
                             5140.52  5242.66  5269.93  5390.53

 Zero-point correction=                           0.245589 (Hartree/Particle)
 Thermal correction to Energy=                    0.261707
 Thermal correction to Enthalpy=                  0.262651
 Thermal correction to Gibbs Free Energy=         0.198723
 Sum of electronic and zero-point Energies=           -795.915770
 Sum of electronic and thermal Energies=              -795.899653
 Sum of electronic and thermal Enthalpies=            -795.898709
 Sum of electronic and thermal Free Energies=         -795.962637

                     E (Thermal)             CV                S
                      KCal/Mol        Cal/Mol-Kelvin    Cal/Mol-Kelvin
 Total                  164.223             58.491            134.548
 Electronic               0.000              0.000              0.000
 Translational            0.889              2.981             42.150
 Rotational               0.889              2.981             32.797
 Vibrational            162.446             52.530             59.601
 Vibration     1          0.593              1.986              7.025
 Vibration     2          0.593              1.985              6.276
 Vibration     3          0.594              1.982              5.428
 Vibration     4          0.596              1.976              4.696
 Vibration     5          0.598              1.968              4.116
 Vibration     6          0.603              1.954              3.577
 Vibration     7          0.603              1.951              3.495
 Vibration     8          0.612              1.922              2.923
 Vibration     9          0.618              1.902              2.667
 Vibration    10          0.635              1.850              2.202
 Vibration    11          0.648              1.808              1.945
 Vibration    12          0.684              1.700              1.498
 Vibration    13          0.698              1.658              1.372
 Vibration    14          0.704              1.641              1.324
 Vibration    15          0.719              1.597              1.215
 Vibration    16          0.742              1.534              1.079
 Vibration    17          0.759              1.488              0.994
 Vibration    18          0.795              1.396              0.846
 Vibration    19          0.821              1.330              0.755
 Vibration    20          0.873              1.210              0.615
 Vibration    21          0.907              1.137              0.542
 Vibration    22          0.947              1.055              0.469
 Vibration    23          0.977              0.996              0.421

 Optimization completed on the basis of negligible forces.
    -- Stationary point found.
 Normal termination of Gaussian 09 at Sat Jul 24 01:30:35 2021.
