 Gaussian 09, Revision D.01,
 Gaussian 09:  ES64L-G09RevD.01 24-Apr-2013

 ----------------------------------------------------------------------
 # B3LYP/6-31G(d,p) EmpiricalDispersion=GD3BJ opt=calcfc freq=noraman n
 osymm integral(ultrafinegrid)
 ----------------------------------------------------------------------

 ------------------------------------------------------------
 Candidate Structure: Conf:338 OPT and FREQ calc in gas phase
 ------------------------------------------------------------
 Symbolic Z-matrix:
 Charge =  0 Multiplicity = 1

 SCF Done:  E(RB3LYP) =  -796.169222866     A.U. after   14 cycles
 SCF Done:  E(RB3LYP) =  -796.171397321     A.U. after   13 cycles
 SCF Done:  E(RB3LYP) =  -796.171257946     A.U. after   14 cycles
 SCF Done:  E(RB3LYP) =  -796.171637658     A.U. after   13 cycles
 SCF Done:  E(RB3LYP) =  -796.171778342     A.U. after   11 cycles
 SCF Done:  E(RB3LYP) =  -796.171953182     A.U. after   12 cycles
 SCF Done:  E(RB3LYP) =  -796.173866721     A.U. after   15 cycles
 SCF Done:  E(RB3LYP) =  -796.170370050     A.U. after   15 cycles
 SCF Done:  E(RB3LYP) =  -796.174657416     A.U. after   11 cycles
 SCF Done:  E(RB3LYP) =  -796.174047678     A.U. after   14 cycles
 SCF Done:  E(RB3LYP) =  -796.177887758     A.U. after   12 cycles
 SCF Done:  E(RB3LYP) =  -796.178074314     A.U. after   11 cycles
 SCF Done:  E(RB3LYP) =  -796.178106991     A.U. after   11 cycles
 SCF Done:  E(RB3LYP) =  -796.178129921     A.U. after   11 cycles
 SCF Done:  E(RB3LYP) =  -796.178138222     A.U. after    9 cycles
 SCF Done:  E(RB3LYP) =  -796.178141877     A.U. after   10 cycles
 SCF Done:  E(RB3LYP) =  -796.178142230     A.U. after    8 cycles
 SCF Done:  E(RB3LYP) =  -796.178142409     A.U. after    7 cycles
 SCF Done:  E(RB3LYP) =  -796.178142420     A.U. after    6 cycles
 Optimization completed.
    -- Stationary point found.
 Normal termination of Gaussian 09 at Sat Jul 24 01:30:27 2021.

 ----------------------------------------------------------------------
 #N Geom=AllCheck Guess=TCheck SCRF=Check GenChk RB3LYP/6-31G(d,p) Freq
 ----------------------------------------------------------------------

 Structure from the checkpoint file:  "conf-338.chk"
 ------------------------------------------------------------
 Candidate Structure: Conf:338 OPT and FREQ calc in gas phase
 ------------------------------------------------------------
 Charge =  0 Multiplicity = 1

                          Input orientation:
 ---------------------------------------------------------------------
 Center     Atomic      Atomic             Coordinates (Angstroms)
 Number     Number       Type             X           Y           Z
 ---------------------------------------------------------------------
      1          8           0        0.565394    0.498401    1.775993
      2          6           0        1.279444    0.048407    0.870699
      3          7           0        0.796816   -0.568543   -0.227757
      4          6           0       -0.620457   -0.775553   -0.426473
      5          6           0       -0.791482   -1.875197   -1.455359
      6          8           0       -2.079580   -2.262809   -1.543209
      7          8           0        0.093285   -2.341964   -2.139663
      8          6           0       -1.389780    0.523467   -0.878806
      9          6           0       -2.437027    0.962199    0.085104
     10          6           0       -3.784949    1.212212   -0.040694
     11          7           0       -4.324864    1.609477    1.163537
     12          6           0       -3.312986    1.594305    2.011141
     13          7           0       -2.148954    1.214865    1.411702
     14          6           0        2.799961    0.143398    0.970946
     15          6           0        3.552321    0.350393   -0.349066
     16          7           0        3.401307   -0.816907   -1.228859
     17          1           0        1.470288   -0.933854   -0.911941
     18          1           0       -1.067891   -1.119695    0.511081
     19          1           0       -2.119142   -2.940809   -2.238506
     20          1           0       -1.864530    0.365565   -1.850463
     21          1           0       -0.628032    1.298633   -1.019671
     22          1           0       -4.390836    1.126925   -0.932664
     23          1           0       -3.367027    1.846233    3.061157
     24          1           0       -1.221844    1.071478    1.814572
     25          1           0        3.009832    0.967308    1.656572
     26          1           0        3.161884   -0.770865    1.461411
     27          1           0        3.131285    1.215810   -0.872593
     28          1           0        4.600838    0.595387   -0.120993
     29          1           0        3.916883   -1.612172   -0.859642
     30          1           0        3.769779   -0.626051   -2.155779
 ---------------------------------------------------------------------

 SCF Done:  E(RB3LYP) =  -796.178142420     A.U. after    1 cycles

 Alpha  occ. eigenvalues --  -19.21137 -19.15631 -19.12334 -14.35786 -14.35584
 Alpha  occ. eigenvalues --  -14.34716 -14.28679 -10.33558 -10.29514 -10.24848
 Alpha  occ. eigenvalues --  -10.23751 -10.21388 -10.20677 -10.20499 -10.19700
 Alpha  occ. eigenvalues --  -10.17427  -1.12227  -1.03997  -1.03155  -0.98463
 Alpha  occ. eigenvalues --   -0.93296  -0.90873  -0.84270  -0.79957  -0.76715
 Alpha  occ. eigenvalues --   -0.72957  -0.66875  -0.65376  -0.61959  -0.58572
 Alpha  occ. eigenvalues --   -0.58082  -0.56259  -0.53496  -0.52502  -0.51712
 Alpha  occ. eigenvalues --   -0.49819  -0.48495  -0.47100  -0.46799  -0.46449
 Alpha  occ. eigenvalues --   -0.45095  -0.43171  -0.41824  -0.41597  -0.40799
 Alpha  occ. eigenvalues --   -0.40122  -0.38835  -0.38338  -0.38167  -0.37794
 Alpha  occ. eigenvalues --   -0.37473  -0.35395  -0.33372  -0.29388  -0.27247
 Alpha  occ. eigenvalues --   -0.26567  -0.26032  -0.25227  -0.24061  -0.20145
 Alpha virt. eigenvalues --   -0.00684   0.01685   0.04826   0.05897   0.06569
 Alpha virt. eigenvalues --    0.08852   0.10756   0.11056   0.11720   0.12659
 Alpha virt. eigenvalues --    0.13043   0.14655   0.15231   0.16170   0.16594

 Mulliken charges:
               1
     1  O   -0.554979
     2  C    0.578787
     3  N   -0.535837
     4  C    0.029953
     5  C    0.551600
     6  O   -0.473429
     7  O   -0.466585
     8  C   -0.245182
     9  C    0.270265
    10  C   -0.015718
    11  N   -0.453872
    12  C    0.253721
    13  N   -0.532211
    14  C   -0.257884
    15  C   -0.074530
    16  N   -0.618505
    17  H    0.325386
    18  H    0.161080
    19  H    0.328523
    20  H    0.126834
    21  H    0.127605
    22  H    0.075193
    23  H    0.102954
    24  H    0.301115
    25  H    0.135434
    26  H    0.127694
    27  H    0.121291
    28  H    0.099424
    29  H    0.253624
    30  H    0.258247
 Sum of Mulliken charges =   0.00000

 Dipole moment (field-independent basis, Debye):
    X=              6.9664    Y=             -2.3281    Z=             -2.7044  Tot=              7.8272
 Quadrupole moment (field-independent basis, Debye-Ang):
   XX=            -97.5846   YY=            -92.7788   ZZ=            -89.7263
   XY=             10.3635   XZ=              6.0498   YZ=             -0.9825

  Exact polarizability: 155.736 -11.690  95.786  -6.289  24.040 123.290
 Approx polarizability: 212.755 -16.759 138.813  -9.451  32.723 196.026

                      1                      2                      3
                      A                      A                      A
 Frequencies --     14.9938                45.6790                53.3123
 Red. masses --      5.0796                 5.4401                 9.3129
 Frc consts  --      0.0007                 0.0067                 0.0156
 IR Inten    --      0.5777                 2.5845                 2.2856

                      4                      5                      6
                      A                      A                      A
 Frequencies --     70.2627                76.5623                99.5904
 Red. masses --      3.5223                 4.7886                 4.3439
 Frc consts  --      0.0102                 0.0165                 0.0254
 IR Inten    --      0.4191                 0.5396                 6.6803

                      7                      8                      9
                      A                      A                      A
 Frequencies --    114.3239               129.1628               187.5170
 Red. masses --      6.0578                 6.0641                 2.7295
 Frc consts  --      0.0466                 0.0596                 0.0565
 IR Inten    --      4.4765                 4.1962                 5.0560

                     10                     11                     12
                      A                      A                      A
 Frequencies --    198.2357               241.4143               283.3844
 Red. masses --      4.6147                 3.8989                 3.4565
 Frc consts  --      0.1068                 0.1339                 0.1635
 IR Inten    --      3.2848                 6.2965                 3.6975

                     13                     14                     15
                      A                      A                      A
 Frequencies --    306.0488               313.3216               335.0007
 Red. masses --      3.7121                 1.3365                 4.5142
 Frc consts  --      0.2049                 0.0773                 0.2985
 IR Inten    --      0.6611                16.5068                 0.7690

                     16                     17                     18
                      A                      A                      A
 Frequencies --    358.1022               417.6985               467.6335
 Red. masses --      3.9221                 3.4551                 2.5836
 Frc consts  --      0.2963                 0.3552                 0.3329
 IR Inten    --      5.1989                 7.4137                26.8591

                     19                     20                     21
                      A                      A                      A
 Frequencies --    518.0342               594.3985               613.5152
 Red. masses --      3.2130                 1.6339                 3.5615
 Frc consts  --      0.5080                 0.3401                 0.7898
 IR Inten    --     40.3355                77.7790                 3.5891

                     22                     23                     24
                      A                      A                      A
 Frequencies --    636.8417               649.2077               676.5505
 Red. masses --      3.2768                 3.6503                 3.9035
 Frc consts  --      0.7830                 0.9064                 1.0527
 IR Inten    --     35.3915                 4.4161                39.4332

                     25                     26                     27
                      A                      A                      A
 Frequencies --    695.6895               719.2507               773.7446
 Red. masses --      3.5042                 3.1527                 3.9717
 Frc consts  --      0.9992                 0.9609                 1.4010
 IR Inten    --     21.7090                23.2678                 4.4739

                     28                     29                     30
                      A                      A                      A
 Frequencies --    790.9256               807.4046               820.1928
 Red. masses --      1.0883                 1.4360                 1.2975
 Frc consts  --      0.4011                 0.5515                 0.5143
 IR Inten    --     24.6873                26.2298                48.9683

                     31                     32                     33
                      A                      A                      A
 Frequencies --    838.8725               861.6381               872.2500
 Red. masses --      1.3099                 2.7453                 1.2334
 Frc consts  --      0.5431                 1.2009                 0.5529
 IR Inten    --     30.6468                15.9982                79.0240

                     34                     35                     36
                      A                      A                      A
 Frequencies --    905.2761               920.8817               946.1902
 Red. masses --      2.3823                 1.8658                 5.9323
 Frc consts  --      1.1503                 0.9322                 3.1292
 IR Inten    --     15.5019                22.2403                24.0355

                     37                     38                     39
                      A                      A                      A
 Frequencies --    968.9770               989.6520              1016.1885
 Red. masses --      2.8333                 3.1320                 1.8332
 Frc consts  --      1.5673                 1.8073                 1.1154
 IR Inten    --     14.6220                 4.1270                 3.3879

                     40                     41                     42
                      A                      A                      A
 Frequencies --   1028.8854              1034.5362              1092.9914
 Red. masses --      3.5183                 2.4702                 2.5580
 Frc consts  --      2.1944                 1.5577                 1.8005
 IR Inten    --      0.5042                41.9819                 4.5686

                     43                     44                     45
                      A                      A                      A
 Frequencies --   1140.8984              1146.3363              1159.0395
 Red. masses --      2.2804                 1.9666                 1.7037
 Frc consts  --      1.7489                 1.5227                 1.3485
 IR Inten    --     33.8359                48.5882                27.8463

                     46                     47                     48
                      A                      A                      A
 Frequencies --   1160.7243              1185.0748              1214.6794
 Red. masses --      1.6094                 2.3881                 1.2845
 Frc consts  --      1.2775                 1.9760                 1.1167
 IR Inten    --     14.8786               160.0005                 8.2562

                     49                     50                     51
                      A                      A                      A
 Frequencies --   1269.5870              1273.8528              1283.7748
 Red. masses --      1.3654                 1.9344                 1.4440
 Frc consts  --      1.2967                 1.8494                 1.4022
 IR Inten    --     14.8757                 6.7459                11.7660

                     52                     53                     54
                      A                      A                      A
 Frequencies --   1291.7662              1313.9793              1318.3895
 Red. masses --      1.4126                 1.5001                 1.3639
 Frc consts  --      1.3888                 1.5260                 1.3967
 IR Inten    --     17.6985                 2.2071                 2.1403

                     55                     56                     57
                      A                      A                      A
 Frequencies --   1334.1058              1365.0953              1378.3598
 Red. masses --      1.4736                 1.4280                 1.4643
 Frc consts  --      1.5453                 1.5679                 1.6391
 IR Inten    --      6.6410                22.7999                 5.2813

                     58                     59                     60
                      A                      A                      A
 Frequencies --   1398.6708              1422.0954              1433.0156
 Red. masses --      4.3375                 2.1035                 1.6267
 Frc consts  --      4.9994                 2.5064                 1.9682
 IR Inten    --     20.4672                56.9444                41.6377

                     61                     62                     63
                      A                      A                      A
 Frequencies --   1461.8356              1476.8870              1487.6502
 Red. masses --      2.3085                 1.0826                 1.1736
 Frc consts  --      2.9065                 1.3913                 1.5303
 IR Inten    --     82.4255                 9.8854                18.9789

                     64                     65                     66
                      A                      A                      A
 Frequencies --   1517.3099              1523.7291              1590.1790
 Red. masses --      3.4702                 1.0921                 2.1119
 Frc consts  --      4.7071                 1.4939                 3.1465
 IR Inten    --     22.8564                 7.2594               362.2859

                     67                     68                     69
                      A                      A                      A
 Frequencies --   1627.6205              1664.3602              1740.7630
 Red. masses --      4.2625                 1.0912                 8.6758
 Frc consts  --      6.6531                 1.7809                15.4896
 IR Inten    --     24.0965                34.3245               300.6044

                     70                     71                     72
                      A                      A                      A
 Frequencies --   1841.1192              2995.7634              3038.0237
 Red. masses --      9.9677                 1.0714                 1.0708
 Frc consts  --     19.9072                 5.6655                 5.8228
 IR Inten    --    248.6538                86.4884                 8.1775

                     73                     74                     75
                      A                      A                      A
 Frequencies --   3050.6173              3080.5757              3083.0146
 Red. masses --      1.0660                 1.0923                 1.0842
 Frc consts  --      5.8450                 6.1077                 6.0715
 IR Inten    --     22.7842                27.8635                11.9666

                     76                     77                     78
                      A                      A                      A
 Frequencies --   3112.8693              3127.1265              3244.7744
 Red. masses --      1.0982                 1.0933                 1.0959
 Frc consts  --      6.2697                 6.2992                 6.7981
 IR Inten    --     10.9468                 8.2687                11.9718

                     79                     80                     81
                      A                      A                      A
 Frequencies --   3257.1224              3343.6462              3459.5580
 Red. masses --      1.0973                 1.0830                 1.0864
 Frc consts  --      6.8588                 7.1336                 7.6613
 IR Inten    --      3.3706               464.4724               495.5649

                     82                     83                     84
                      A                      A                      A
 Frequencies --   3506.2100              3595.4843              3758.1136
 Red. masses --      1.0502                 1.0932                 1.0642
 Frc consts  --      7.6067                 8.3263                 8.8559
 IR Inten    --      0.4419                 2.5267                68.2996

 - Thermochemistry -
 -------------------
 Temperature   298.150 Kelvin.  Pressure   1.00000 Atm.
 Atom     1 has atomic number  8 and mass  15.99491

 Molecular mass:   226.10659 amu.
 Principal axes and moments of inertia in atomic units:
                           1         2         3
     Eigenvalues --  2352.719925336.211117163.64180
           X            0.94203   0.33064   0.05701
           Y           -0.26869   0.64167   0.71838
           Z           -0.20094   0.69205  -0.69331
 This molecule is an asymmetric top.
 Rotational symmetry number  1.
 Warning -- assumption of classical behavior for rotation
           may cause significant error
 Rotational temperatures (Kelvin)      0.03681     0.01623     0.01209
 Rotational constants (GHZ):           0.76709     0.33821     0.25193
 Zero-point vibrational energy     646929.3 (Joules/Mol)
                                  154.61982 (Kcal/Mol)
 Warning -- explicit consideration of  21 degrees of freedom as
           vibrations may cause significant error
 Vibrational temperatures:     21.57    65.72    76.70   101.09   110.16
          (Kelvin)            143.29   164.49   185.84   269.79   285.22
                              347.34   407.73   440.34   450.80   481.99
                              515.23   600.97   672.82   745.33   855.21
                              882.71   916.27   934.06   973.40  1000.94
                             1034.84  1113.24  1137.96  1161.67  1180.07
                             1206.95  1239.70  1254.97  1302.49  1324.94
                             1361.35  1394.14  1423.89  1462.07  1480.33
                             1488.47  1572.57  1641.50  1649.32  1667.60
                             1670.02  1705.06  1747.65  1826.65  1832.79
                             1847.06  1858.56  1890.52  1896.87  1919.48
                             1964.07  1983.15  2012.37  2046.08  2061.79
                             2103.25  2124.91  2140.39  2183.07  2192.30
                             2287.91  2341.78  2394.64  2504.57  2648.96
                             4310.23  4371.03  4389.15  4432.26  4435.76
                             4478.72  4499.23  4668.50  4686.27  4810.76
                             4977.53  5044.65  5173.09  5407.08

 Zero-point correction=                           0.246402 (Hartree/Particle)
 Thermal correction to Energy=                    0.261960
 Thermal correction to Enthalpy=                  0.262904
 Thermal correction to Gibbs Free Energy=         0.201053
 Sum of electronic and zero-point Energies=           -795.931740
 Sum of electronic and thermal Energies=              -795.916182
 Sum of electronic and thermal Enthalpies=            -795.915238
 Sum of electronic and thermal Free Energies=         -795.977090

                     E (Thermal)             CV                S
                      KCal/Mol        Cal/Mol-Kelvin    Cal/Mol-Kelvin
 Total                  164.382             57.068            130.178
 Electronic               0.000              0.000              0.000
 Translational            0.889              2.981             42.150
 Rotational               0.889              2.981             32.864
 Vibrational            162.605             51.106             55.164
 Vibration     1          0.593              1.986              7.206
 Vibration     2          0.595              1.979              4.996
 Vibration     3          0.596              1.976              4.691
 Vibration     4          0.598              1.968              4.146
 Vibration     5          0.599              1.965              3.977
 Vibration     6          0.604              1.949              3.462
 Vibration     7          0.607              1.938              3.194
 Vibration     8          0.612              1.924              2.958
 Vibration     9          0.632              1.857              2.252
 Vibration    10          0.637              1.842              2.149
 Vibration    11          0.658              1.777              1.792
 Vibration    12          0.682              1.704              1.513
 Vibration    13          0.696              1.662              1.384
 Vibration    14          0.701              1.648              1.345
 Vibration    15          0.716              1.606              1.236
 Vibration    16          0.733              1.559              1.130
 Vibration    17          0.781              1.432              0.900
 Vibration    18          0.825              1.322              0.744
 Vibration    19          0.873              1.210              0.615
 Vibration    20          0.952              1.044              0.459
 Vibration    21          0.973              1.003              0.427

 Optimization completed.
    -- Stationary point found.
 Normal termination of Gaussian 09 at Sat Jul 24 01:50:37 2021.
