 Gaussian 09, Revision D.01,
 Gaussian 09:  ES64L-G09RevD.01 24-Apr-2013

 ----------------------------------------------------------------------
 # B3LYP/6-31G(d,p) EmpiricalDispersion=GD3BJ opt=calcfc freq=noraman n
 osymm integral(ultrafinegrid)
 ----------------------------------------------------------------------

 ------------------------------------------------------------
 Candidate Structure: Conf:683 OPT and FREQ calc in gas phase
 ------------------------------------------------------------
 Symbolic Z-matrix:
 Charge =  0 Multiplicity = 1

 SCF Done:  E(RB3LYP) =  -796.176308842     A.U. after   14 cycles
 SCF Done:  E(RB3LYP) =  -796.178566594     A.U. after   12 cycles
 SCF Done:  E(RB3LYP) =  -796.179039953     A.U. after   12 cycles
 SCF Done:  E(RB3LYP) =  -796.179173895     A.U. after   12 cycles
 SCF Done:  E(RB3LYP) =  -796.179118296     A.U. after   11 cycles
 SCF Done:  E(RB3LYP) =  -796.179211416     A.U. after   11 cycles
 SCF Done:  E(RB3LYP) =  -796.179217573     A.U. after   11 cycles
 SCF Done:  E(RB3LYP) =  -796.179218389     A.U. after    9 cycles
 SCF Done:  E(RB3LYP) =  -796.179218398     A.U. after    7 cycles
 Optimization completed.
    -- Stationary point found.
 Normal termination of Gaussian 09 at Sat Jul 24 01:09:39 2021.

 ----------------------------------------------------------------------
 #N Geom=AllCheck Guess=TCheck SCRF=Check GenChk RB3LYP/6-31G(d,p) Freq
 ----------------------------------------------------------------------

 Structure from the checkpoint file:  "conf-683.chk"
 ------------------------------------------------------------
 Candidate Structure: Conf:683 OPT and FREQ calc in gas phase
 ------------------------------------------------------------
 Charge =  0 Multiplicity = 1

                          Input orientation:
 ---------------------------------------------------------------------
 Center     Atomic      Atomic             Coordinates (Angstroms)
 Number     Number       Type             X           Y           Z
 ---------------------------------------------------------------------
      1          8           0       -0.607084    0.040316   -2.154304
      2          6           0        0.348944    0.315489   -1.416601
      3          7           0        0.215942    0.607423   -0.102968
      4          6           0       -1.076369    0.810085    0.506124
      5          6           0       -1.066959    2.138803    1.247858
      6          8           0       -2.305301    2.476701    1.668543
      7          8           0       -0.085220    2.812035    1.468741
      8          6           0       -1.507360   -0.322622    1.473789
      9          6           0       -1.453382   -1.696161    0.882501
     10          6           0       -1.310074   -2.928126    1.480918
     11          7           0       -1.387788   -3.942670    0.551319
     12          6           0       -1.569792   -3.330349   -0.601794
     13          7           0       -1.637595   -1.973626   -0.459723
     14          6           0        1.777581    0.309126   -1.948746
     15          6           0        2.710767    1.372904   -1.355578
     16          7           0        2.954456    1.122677    0.073648
     17          1           0        1.072198    0.867281    0.401103
     18          1           0       -1.810947    0.878219   -0.302442
     19          1           0       -2.213239    3.313882    2.154258
     20          1           0       -0.862509   -0.301444    2.359762
     21          1           0       -2.519605   -0.079958    1.818754
     22          1           0       -1.164628   -3.135787    2.532587
     23          1           0       -1.655036   -3.810408   -1.566697
     24          1           0       -1.587629   -1.286921   -1.214191
     25          1           0        2.196490   -0.691686   -1.775772
     26          1           0        1.701454    0.432641   -3.031311
     27          1           0        2.235361    2.355897   -1.439073
     28          1           0        3.632556    1.409271   -1.955070
     29          1           0        3.564069    0.317762    0.196406
     30          1           0        3.410796    1.919237    0.507743
 ---------------------------------------------------------------------

 SCF Done:  E(RB3LYP) =  -796.179218398     A.U. after    1 cycles

 Alpha  occ. eigenvalues --  -19.21360 -19.15672 -19.12195 -14.36104 -14.35745
 Alpha  occ. eigenvalues --  -14.34648 -14.29020 -10.33583 -10.29449 -10.25005
 Alpha  occ. eigenvalues --  -10.23538 -10.21574 -10.20749 -10.20509 -10.20262
 Alpha  occ. eigenvalues --  -10.17593  -1.12306  -1.03996  -1.03204  -0.98755
 Alpha  occ. eigenvalues --   -0.93360  -0.90743  -0.84564  -0.80309  -0.76689
 Alpha  occ. eigenvalues --   -0.73237  -0.66820  -0.65312  -0.61910  -0.59057
 Alpha  occ. eigenvalues --   -0.58029  -0.56596  -0.53995  -0.52103  -0.51074
 Alpha  occ. eigenvalues --   -0.50181  -0.48690  -0.47679  -0.46733  -0.46048
 Alpha  occ. eigenvalues --   -0.44891  -0.43959  -0.42256  -0.41388  -0.40352
 Alpha  occ. eigenvalues --   -0.40088  -0.39530  -0.38710  -0.38427  -0.37923
 Alpha  occ. eigenvalues --   -0.37223  -0.35182  -0.33517  -0.29420  -0.27218
 Alpha  occ. eigenvalues --   -0.26581  -0.25984  -0.25644  -0.24374  -0.20314
 Alpha virt. eigenvalues --   -0.00625   0.01385   0.04681   0.06089   0.06525
 Alpha virt. eigenvalues --    0.08385   0.10966   0.11132   0.11555   0.13162
 Alpha virt. eigenvalues --    0.14339   0.14687   0.15047   0.16370   0.16745

 Mulliken charges:
               1
     1  O   -0.558536
     2  C    0.579635
     3  N   -0.493610
     4  C   -0.032458
     5  C    0.579130
     6  O   -0.478424
     7  O   -0.466931
     8  C   -0.230568
     9  C    0.288636
    10  C   -0.025682
    11  N   -0.450287
    12  C    0.247756
    13  N   -0.543946
    14  C   -0.255132
    15  C   -0.080304
    16  N   -0.621741
    17  H    0.314848
    18  H    0.156584
    19  H    0.327909
    20  H    0.115443
    21  H    0.140695
    22  H    0.075110
    23  H    0.104217
    24  H    0.292417
    25  H    0.133151
    26  H    0.136082
    27  H    0.129014
    28  H    0.100694
    29  H    0.253989
    30  H    0.262306
 Sum of Mulliken charges =   0.00000

 Dipole moment (field-independent basis, Debye):
    X=              3.5532    Y=              5.1087    Z=              0.4446  Tot=              6.2388
 Quadrupole moment (field-independent basis, Debye-Ang):
   XX=            -79.8130   YY=           -108.3634   ZZ=            -90.1751
   XY=             -7.0055   XZ=             -5.4200   YZ=              6.8763

  Exact polarizability: 109.891   8.168 135.208  -6.969  10.670 123.793
 Approx polarizability: 159.237   6.199 191.182   8.843  12.877 197.121

                      1                      2                      3
                      A                      A                      A
 Frequencies --     18.4884                44.6831                53.9293
 Red. masses --      4.9687                 8.5136                 4.2223
 Frc consts  --      0.0010                 0.0100                 0.0072
 IR Inten    --      4.5572                 2.2059                 1.8128

                      4                      5                      6
                      A                      A                      A
 Frequencies --     65.0191                84.8877               106.2646
 Red. masses --      3.8949                 4.3015                 5.1030
 Frc consts  --      0.0097                 0.0183                 0.0340
 IR Inten    --      0.6564                 1.7846                 1.1625

                      7                      8                      9
                      A                      A                      A
 Frequencies --    121.5772               152.9746               184.5557
 Red. masses --      3.9142                 6.0251                 6.8090
 Frc consts  --      0.0341                 0.0831                 0.1366
 IR Inten    --      7.3157                11.3896                 1.5101

                     10                     11                     12
                      A                      A                      A
 Frequencies --    206.2292               232.5051               268.6232
 Red. masses --      2.2133                 5.0140                 3.8376
 Frc consts  --      0.0555                 0.1597                 0.1632
 IR Inten    --      2.5612                11.9145                 0.7339

                     13                     14                     15
                      A                      A                      A
 Frequencies --    309.2803               313.1685               349.1080
 Red. masses --      1.7982                 2.8696                 4.0896
 Frc consts  --      0.1013                 0.1658                 0.2937
 IR Inten    --      6.4113                10.0538                 0.4830

                     16                     17                     18
                      A                      A                      A
 Frequencies --    360.3711               434.9605               485.7171
 Red. masses --      3.4764                 3.2943                 2.8900
 Frc consts  --      0.2660                 0.3672                 0.4017
 IR Inten    --      6.4680                15.5252                12.0967

                     19                     20                     21
                      A                      A                      A
 Frequencies --    515.7288               591.4519               605.5311
 Red. masses --      3.0352                 3.1253                 1.5435
 Frc consts  --      0.4756                 0.6441                 0.3334
 IR Inten    --     41.8416                 9.0519                71.3341

                     22                     23                     24
                      A                      A                      A
 Frequencies --    634.6171               645.4789               676.3715
 Red. masses --      3.7537                 4.4547                 3.8773
 Frc consts  --      0.8907                 1.0935                 1.0451
 IR Inten    --      9.1479                43.1340                26.2468

                     25                     26                     27
                      A                      A                      A
 Frequencies --    691.5119               702.7868               775.8834
 Red. masses --      3.2970                 2.9918                 2.2943
 Frc consts  --      0.9289                 0.8706                 0.8137
 IR Inten    --     38.7754                24.6706                33.1247

                     28                     29                     30
                      A                      A                      A
 Frequencies --    787.1950               800.7816               822.2330
 Red. masses --      1.5219                 1.3667                 1.2917
 Frc consts  --      0.5557                 0.5164                 0.5145
 IR Inten    --     87.7956                 9.3673                67.9769

                     31                     32                     33
                      A                      A                      A
 Frequencies --    834.1390               857.7556               887.6898
 Red. masses --      1.3049                 1.4242                 2.4609
 Frc consts  --      0.5349                 0.6174                 1.1425
 IR Inten    --     32.7826                50.2461                 8.5390

                     34                     35                     36
                      A                      A                      A
 Frequencies --    905.3511               921.7374               946.6421
 Red. masses --      2.1759                 1.9476                 5.5053
 Frc consts  --      1.0508                 0.9749                 2.9067
 IR Inten    --     27.9456                38.6406                21.3938

                     37                     38                     39
                      A                      A                      A
 Frequencies --    965.2793               998.2403              1019.9268
 Red. masses --      2.4493                 2.1703                 2.6277
 Frc consts  --      1.3446                 1.2742                 1.6105
 IR Inten    --      3.4973                 3.7711                 8.3391

                     40                     41                     42
                      A                      A                      A
 Frequencies --   1032.0443              1057.1744              1089.4776
 Red. masses --      2.3157                 2.9396                 2.5728
 Frc consts  --      1.4532                 1.9356                 1.7993
 IR Inten    --     37.1328                 8.6543                 4.4344

                     43                     44                     45
                      A                      A                      A
 Frequencies --   1144.2127              1151.9364              1162.3943
 Red. masses --      2.3817                 2.0740                 1.5925
 Frc consts  --      1.8372                 1.6215                 1.2678
 IR Inten    --     78.5896                12.6988                79.4514

                     46                     47                     48
                      A                      A                      A
 Frequencies --   1167.9723              1190.3131              1237.7608
 Red. masses --      1.7389                 2.0421                 1.4933
 Frc consts  --      1.3976                 1.7047                 1.3479
 IR Inten    --     25.2547                77.2872                12.1755

                     49                     50                     51
                      A                      A                      A
 Frequencies --   1271.5562              1272.0851              1284.1781
 Red. masses --      1.6077                 1.3866                 1.6185
 Frc consts  --      1.5315                 1.3220                 1.5726
 IR Inten    --     10.0406                14.2137                10.3436

                     52                     53                     54
                      A                      A                      A
 Frequencies --   1295.7513              1320.8467              1322.9121
 Red. masses --      1.5143                 1.3599                 1.7467
 Frc consts  --      1.4980                 1.3978                 1.8011
 IR Inten    --      5.6334                 1.1806                 9.6953

                     55                     56                     57
                      A                      A                      A
 Frequencies --   1353.8049              1374.1366              1381.4799
 Red. masses --      1.7407                 1.4240                 1.4926
 Frc consts  --      1.8797                 1.5843                 1.6784
 IR Inten    --      4.8417                 9.7476                 7.1120

                     58                     59                     60
                      A                      A                      A
 Frequencies --   1402.9814              1413.0371              1431.7140
 Red. masses --      2.7595                 2.6449                 1.4510
 Frc consts  --      3.2003                 3.1115                 1.7524
 IR Inten    --      9.8456               103.9657                23.2198

                     61                     62                     63
                      A                      A                      A
 Frequencies --   1475.2217              1478.2165              1496.3207
 Red. masses --      1.0824                 2.0948                 1.1859
 Frc consts  --      1.3879                 2.6969                 1.5645
 IR Inten    --      7.8902                42.2350                13.3316

                     64                     65                     66
                      A                      A                      A
 Frequencies --   1513.7803              1521.3712              1606.9079
 Red. masses --      3.2977                 1.0862                 1.9023
 Frc consts  --      4.4523                 1.4812                 2.8941
 IR Inten    --     15.2725                 4.0889               301.1691

                     67                     68                     69
                      A                      A                      A
 Frequencies --   1625.6372              1661.6595              1732.3505
 Red. masses --      3.5455                 1.0932                 7.7485
 Frc consts  --      5.5205                 1.7784                13.7005
 IR Inten    --     16.8740                37.2556               280.2205

                     70                     71                     72
                      A                      A                      A
 Frequencies --   1844.9458              3001.3188              3041.0913
 Red. masses --     10.1604                 1.0712                 1.0705
 Frc consts  --     20.3765                 5.6850                 5.8328
 IR Inten    --    240.0022                84.3210                 6.0464

                     73                     74                     75
                      A                      A                      A
 Frequencies --   3042.6549              3076.0047              3087.8880
 Red. masses --      1.0600                 1.0972                 1.0931
 Frc consts  --      5.7818                 6.1164                 6.1409
 IR Inten    --     22.5504                 5.3157                20.9673

                     76                     77                     78
                      A                      A                      A
 Frequencies --   3093.2226              3127.9776              3242.5005
 Red. masses --      1.0891                 1.0937                 1.0959
 Frc consts  --      6.1396                 6.3047                 6.7884
 IR Inten    --     14.6732                 7.8165                11.5796

                     79                     80                     81
                      A                      A                      A
 Frequencies --   3258.0205              3336.8064              3440.2956
 Red. masses --      1.0971                 1.0834                 1.0870
 Frc consts  --      6.8615                 7.1071                 7.5800
 IR Inten    --      2.7251               464.4017               395.8125

                     82                     83                     84
                      A                      A                      A
 Frequencies --   3505.7454              3597.9244              3752.1640
 Red. masses --      1.0502                 1.0933                 1.0642
 Frc consts  --      7.6044                 8.3387                 8.8277
 IR Inten    --      0.4773                 3.2802                63.8182

 - Thermochemistry -
 -------------------
 Temperature   298.150 Kelvin.  Pressure   1.00000 Atm.
 Atom     1 has atomic number  8 and mass  15.99491

 Molecular mass:   226.10659 amu.
 Principal axes and moments of inertia in atomic units:
                           1         2         3
     Eigenvalues --  2960.424784450.009446122.58474
           X            0.49066  -0.63696   0.59458
           Y            0.86763   0.42016  -0.26588
           Z           -0.08047   0.64633   0.75880
 This molecule is an asymmetric top.
 Rotational symmetry number  1.
 Warning -- assumption of classical behavior for rotation
           may cause significant error
 Rotational temperatures (Kelvin)      0.02926     0.01946     0.01415
 Rotational constants (GHZ):           0.60962     0.40556     0.29477
 Zero-point vibrational energy     647756.7 (Joules/Mol)
                                  154.81758 (Kcal/Mol)
 Warning -- explicit consideration of  21 degrees of freedom as
           vibrations may cause significant error
 Vibrational temperatures:     26.60    64.29    77.59    93.55   122.13
          (Kelvin)            152.89   174.92   220.10   265.53   296.72
                              334.52   386.49   444.98   450.58   502.29
                              518.49   625.81   698.84   742.02   850.97
                              871.22   913.07   928.70   973.15   994.93
                             1011.15  1116.32  1132.60  1152.14  1183.01
                             1200.14  1234.12  1277.19  1302.60  1326.17
                             1362.01  1388.82  1436.24  1467.45  1484.88
                             1521.04  1567.51  1646.26  1657.38  1672.42
                             1680.45  1712.59  1780.86  1829.48  1830.24
                             1847.64  1864.29  1900.40  1903.37  1947.82
                             1977.07  1987.64  2018.57  2033.04  2059.91
                             2122.51  2126.82  2152.87  2177.99  2188.91
                             2311.98  2338.93  2390.75  2492.46  2654.46
                             4318.22  4375.45  4377.70  4425.68  4442.78
                             4450.45  4500.46  4665.23  4687.56  4800.91
                             4949.81  5043.98  5176.60  5398.52

 Zero-point correction=                           0.246718 (Hartree/Particle)
 Thermal correction to Energy=                    0.262176
 Thermal correction to Enthalpy=                  0.263120
 Thermal correction to Gibbs Free Energy=         0.201826
 Sum of electronic and zero-point Energies=           -795.932501
 Sum of electronic and thermal Energies=              -795.917042
 Sum of electronic and thermal Enthalpies=            -795.916098
 Sum of electronic and thermal Free Energies=         -795.977393

                     E (Thermal)             CV                S
                      KCal/Mol        Cal/Mol-Kelvin    Cal/Mol-Kelvin
 Total                  164.518             56.936            129.006
 Electronic               0.000              0.000              0.000
 Translational            0.889              2.981             42.150
 Rotational               0.889              2.981             32.756
 Vibrational            162.741             50.974             54.100
 Vibration     1          0.593              1.986              6.790
 Vibration     2          0.595              1.980              5.040
 Vibration     3          0.596              1.976              4.668
 Vibration     4          0.597              1.971              4.299
 Vibration     5          0.601              1.960              3.775
 Vibration     6          0.605              1.944              3.336
 Vibration     7          0.609              1.931              3.075
 Vibration     8          0.619              1.899              2.635
 Vibration     9          0.631              1.861              2.282
 Vibration    10          0.641              1.831              2.077
 Vibration    11          0.653              1.791              1.860
 Vibration    12          0.673              1.731              1.605
 Vibration    13          0.699              1.656              1.366
 Vibration    14          0.701              1.649              1.346
 Vibration    15          0.726              1.577              1.170
 Vibration    16          0.735              1.554              1.121
 Vibration    17          0.796              1.394              0.843
 Vibration    18          0.842              1.282              0.695
 Vibration    19          0.871              1.215              0.620
 Vibration    20          0.949              1.050              0.465
 Vibration    21          0.964              1.020              0.440

 Optimization completed.
    -- Stationary point found.
 Normal termination of Gaussian 09 at Sat Jul 24 01:30:26 2021.
