 Gaussian 09, Revision D.01,
 Gaussian 09:  ES64L-G09RevD.01 24-Apr-2013

 ----------------------------------------------------------------------
 # B3LYP/6-31G(d,p) EmpiricalDispersion=GD3BJ opt=calcfc freq=noraman n
 osymm integral(ultrafinegrid)
 ----------------------------------------------------------------------

 ------------------------------------------------------------
 Candidate Structure: Conf:900 OPT and FREQ calc in gas phase
 ------------------------------------------------------------
 Symbolic Z-matrix:
 Charge =  0 Multiplicity = 1

 SCF Done:  E(RB3LYP) =  -796.171806329     A.U. after   14 cycles
 SCF Done:  E(RB3LYP) =  -796.173452889     A.U. after   14 cycles
 SCF Done:  E(RB3LYP) =  -796.173559041     A.U. after   14 cycles
 SCF Done:  E(RB3LYP) =  -796.173360182     A.U. after   12 cycles
 SCF Done:  E(RB3LYP) =  -796.173606095     A.U. after    9 cycles
 SCF Done:  E(RB3LYP) =  -796.172883850     A.U. after   14 cycles
 SCF Done:  E(RB3LYP) =  -796.173642575     A.U. after   10 cycles
 SCF Done:  E(RB3LYP) =  -796.173707359     A.U. after   11 cycles
 SCF Done:  E(RB3LYP) =  -796.173712895     A.U. after    9 cycles
 SCF Done:  E(RB3LYP) =  -796.173716642     A.U. after    9 cycles
 SCF Done:  E(RB3LYP) =  -796.173717503     A.U. after    9 cycles
 SCF Done:  E(RB3LYP) =  -796.173717582     A.U. after    7 cycles
 SCF Done:  E(RB3LYP) =  -796.173717591     A.U. after    7 cycles
 Optimization completed.
    -- Stationary point found.
 Normal termination of Gaussian 09 at Sat Jul 24 01:14:05 2021.

 ----------------------------------------------------------------------
 #N Geom=AllCheck Guess=TCheck SCRF=Check GenChk RB3LYP/6-31G(d,p) Freq
 ----------------------------------------------------------------------

 Structure from the checkpoint file:  "conf-900.chk"
 ------------------------------------------------------------
 Candidate Structure: Conf:900 OPT and FREQ calc in gas phase
 ------------------------------------------------------------
 Charge =  0 Multiplicity = 1

                          Input orientation:
 ---------------------------------------------------------------------
 Center     Atomic      Atomic             Coordinates (Angstroms)
 Number     Number       Type             X           Y           Z
 ---------------------------------------------------------------------
      1          8           0       -0.806004    0.538928   -1.105341
      2          6           0       -1.211702   -0.559411   -0.704140
      3          7           0       -0.425044   -1.413663   -0.011489
      4          6           0        0.970244   -1.143984    0.269520
      5          6           0        1.602304   -2.460221    0.678776
      6          8           0        2.934641   -2.349346    0.808842
      7          8           0        0.988441   -3.486262    0.887281
      8          6           0        1.186373   -0.048551    1.379747
      9          6           0        1.954271    1.133380    0.899864
     10          6           0        3.133042    1.718446    1.302857
     11          7           0        3.429087    2.814369    0.521325
     12          6           0        2.441510    2.888668   -0.350563
     13          7           0        1.521392    1.899390   -0.165087
     14          6           0       -2.629338   -1.044283   -0.972250
     15          6           0       -3.551417    0.090883   -1.413079
     16          7           0       -3.672695    1.081468   -0.340750
     17          1           0       -0.767189   -2.322942    0.274106
     18          1           0        1.465134   -0.801603   -0.644742
     19          1           0        3.264638   -3.217095    1.097541
     20          1           0        0.189393    0.240081    1.729696
     21          1           0        1.712569   -0.476146    2.236624
     22          1           0        3.779927    1.408398    2.112264
     23          1           0        2.343408    3.631357   -1.130088
     24          1           0        0.680868    1.682111   -0.697294
     25          1           0       -3.026903   -1.512303   -0.065248
     26          1           0       -2.580548   -1.818451   -1.749299
     27          1           0       -4.542471   -0.331143   -1.610187
     28          1           0       -3.174396    0.499995   -2.363300
     29          1           0       -2.804344    1.610561   -0.303760
     30          1           0       -4.405055    1.747662   -0.571699
 ---------------------------------------------------------------------

 SCF Done:  E(RB3LYP) =  -796.173717591     A.U. after    1 cycles

 Alpha  occ. eigenvalues --  -19.22407 -19.17003 -19.13992 -14.37960 -14.36522
 Alpha  occ. eigenvalues --  -14.31069 -14.29432 -10.34899 -10.30885 -10.26159
 Alpha  occ. eigenvalues --  -10.22194 -10.21537 -10.21344 -10.20504 -10.20479
 Alpha  occ. eigenvalues --  -10.18196  -1.13572  -1.05615  -1.04542  -0.99304
 Alpha  occ. eigenvalues --   -0.94763  -0.88161  -0.85119  -0.80957  -0.76483
 Alpha  occ. eigenvalues --   -0.73721  -0.67856  -0.65614  -0.61117  -0.60318
 Alpha  occ. eigenvalues --   -0.59294  -0.57140  -0.53631  -0.52791  -0.51225
 Alpha  occ. eigenvalues --   -0.50466  -0.49059  -0.48240  -0.47670  -0.46989
 Alpha  occ. eigenvalues --   -0.44736  -0.43474  -0.42766  -0.42156  -0.41180
 Alpha  occ. eigenvalues --   -0.39448  -0.39097  -0.38888  -0.38630  -0.37899
 Alpha  occ. eigenvalues --   -0.36736  -0.36211  -0.34623  -0.30797  -0.28063
 Alpha  occ. eigenvalues --   -0.27764  -0.26068  -0.24850  -0.23757  -0.20961
 Alpha virt. eigenvalues --   -0.01929   0.00518   0.03966   0.05478   0.07828
 Alpha virt. eigenvalues --    0.08041   0.09261   0.11368   0.11498   0.12644
 Alpha virt. eigenvalues --    0.13190   0.14523   0.15061   0.15775   0.16806

 Mulliken charges:
               1
     1  O   -0.557826
     2  C    0.616340
     3  N   -0.536079
     4  C    0.025458
     5  C    0.560429
     6  O   -0.469286
     7  O   -0.472088
     8  C   -0.249366
     9  C    0.268537
    10  C   -0.012776
    11  N   -0.451206
    12  C    0.255584
    13  N   -0.530979
    14  C   -0.266510
    15  C   -0.047627
    16  N   -0.611654
    17  H    0.285692
    18  H    0.165479
    19  H    0.333601
    20  H    0.138800
    21  H    0.130452
    22  H    0.078961
    23  H    0.105395
    24  H    0.295756
    25  H    0.130427
    26  H    0.127442
    27  H    0.098549
    28  H    0.097347
    29  H    0.252994
    30  H    0.238155
 Sum of Mulliken charges =   0.00000

 Dipole moment (field-independent basis, Debye):
    X=             -2.6568    Y=             -3.7537    Z=             -1.0319  Tot=              4.7131
 Quadrupole moment (field-independent basis, Debye-Ang):
   XX=            -98.3206   YY=            -96.5096   ZZ=            -89.9981
   XY=            -18.1416   XZ=              5.5455   YZ=             -4.9934

  Exact polarizability: 140.674  13.041 135.752  20.448 -14.946  96.318
 Approx polarizability: 192.532  26.826 199.837  22.162 -29.563 151.897

 ******    1 imaginary frequencies (negative Signs) ******

                      1                      2                      3
                      A                      A                      A
 Frequencies --     -4.3396                31.9787                53.5372
 Red. masses --      3.6366                 6.3385                 4.5599
 Frc consts  --      0.0000                 0.0038                 0.0077
 IR Inten    --      1.0710                 1.3337                 1.0543

                      4                      5                      6
                      A                      A                      A
 Frequencies --     59.2264                78.3902                83.6220
 Red. masses --      8.7930                 5.3503                 5.8345
 Frc consts  --      0.0182                 0.0194                 0.0240
 IR Inten    --      1.2474                 0.4654                 5.5409

                      7                      8                      9
                      A                      A                      A
 Frequencies --    114.1203               135.7839               149.8796
 Red. masses --      4.1869                 5.1488                 4.1355
 Frc consts  --      0.0321                 0.0559                 0.0547
 IR Inten    --      2.0242                 3.5605                 4.1865

                     10                     11                     12
                      A                      A                      A
 Frequencies --    194.0697               250.5344               292.2930
 Red. masses --      4.5555                 2.6864                 5.5734
 Frc consts  --      0.1011                 0.0993                 0.2805
 IR Inten    --      2.6946                29.8736                 3.8963

                     13                     14                     15
                      A                      A                      A
 Frequencies --    294.0921               319.7691               325.7385
 Red. masses --      2.4878                 1.5654                 2.3956
 Frc consts  --      0.1268                 0.0943                 0.1498
 IR Inten    --     11.4059                38.1377                16.0524

                     16                     17                     18
                      A                      A                      A
 Frequencies --    352.2957               406.2022               435.0899
 Red. masses --      4.8282                 3.6350                 2.6240
 Frc consts  --      0.3531                 0.3534                 0.2927
 IR Inten    --      4.4296                 9.5708                29.9953

                     19                     20                     21
                      A                      A                      A
 Frequencies --    531.3882               565.6959               599.3627
 Red. masses --      1.5897                 3.1353                 1.6760
 Frc consts  --      0.2645                 0.5912                 0.3547
 IR Inten    --     66.0735                35.7554                62.8154

                     22                     23                     24
                      A                      A                      A
 Frequencies --    628.6126               634.9229               647.8992
 Red. masses --      2.3119                 2.7587                 2.8365
 Frc consts  --      0.5382                 0.6552                 0.7015
 IR Inten    --     28.7746                16.9525                 0.0885

                     25                     26                     27
                      A                      A                      A
 Frequencies --    675.9802               680.8971               719.1928
 Red. masses --      3.6487                 3.1412                 3.1444
 Frc consts  --      0.9823                 0.8580                 0.9583
 IR Inten    --     40.0694                 8.5328                33.2751

                     28                     29                     30
                      A                      A                      A
 Frequencies --    773.5878               775.0097               807.3856
 Red. masses --      3.2936                 1.1672                 1.4178
 Frc consts  --      1.1613                 0.4131                 0.5445
 IR Inten    --      5.4966                38.5699                19.4445

                     31                     32                     33
                      A                      A                      A
 Frequencies --    839.0196               861.0576               877.6451
 Red. masses --      1.3396                 2.5924                 1.8642
 Frc consts  --      0.5556                 1.1324                 0.8460
 IR Inten    --     23.8968                 9.7330                74.2605

                     34                     35                     36
                      A                      A                      A
 Frequencies --    895.9714               913.3272               945.4931
 Red. masses --      1.8682                 1.8232                 5.9299
 Frc consts  --      0.8836                 0.8961                 3.1233
 IR Inten    --     14.9206                45.0831                20.1794

                     37                     38                     39
                      A                      A                      A
 Frequencies --    960.2577               986.5088              1023.8155
 Red. masses --      2.6374                 4.0706                 2.8033
 Frc consts  --      1.4329                 2.3340                 1.7312
 IR Inten    --      8.2158                 6.9931                24.1664

                     40                     41                     42
                      A                      A                      A
 Frequencies --   1030.0819              1067.8424              1112.6194
 Red. masses --      3.6050                 2.3979                 2.6325
 Frc consts  --      2.2537                 1.6110                 1.9200
 IR Inten    --      1.2952                18.5441                28.1661

                     43                     44                     45
                      A                      A                      A
 Frequencies --   1134.1955              1141.8615              1156.3112
 Red. masses --      1.7400                 1.7474                 1.9457
 Frc consts  --      1.3188                 1.3424                 1.5328
 IR Inten    --     23.2641                49.4030                 1.8922

                     46                     47                     48
                      A                      A                      A
 Frequencies --   1178.6430              1195.0887              1211.7229
 Red. masses --      1.6252                 2.0696                 1.3340
 Frc consts  --      1.3302                 1.7416                 1.1540
 IR Inten    --     95.8661                99.6881                 7.7699

                     49                     50                     51
                      A                      A                      A
 Frequencies --   1239.0078              1260.0739              1272.7072
 Red. masses --      1.2426                 1.5008                 1.9802
 Frc consts  --      1.1239                 1.4040                 1.8898
 IR Inten    --      6.9726                17.1501                 3.4582

                     52                     53                     54
                      A                      A                      A
 Frequencies --   1285.2479              1294.4602              1332.7977
 Red. masses --      1.4761                 1.3984                 1.3834
 Frc consts  --      1.4366                 1.3806                 1.4479
 IR Inten    --      8.7728                19.8321                 0.4788

                     55                     56                     57
                      A                      A                      A
 Frequencies --   1358.6973              1366.7205              1388.8040
 Red. masses --      1.2480                 1.4244                 1.5452
 Frc consts  --      1.3574                 1.5676                 1.7560
 IR Inten    --      4.5493                29.4175                33.2379

                     58                     59                     60
                      A                      A                      A
 Frequencies --   1398.2711              1433.1691              1436.8217
 Red. masses --      4.2661                 2.2358                 1.5463
 Frc consts  --      4.9143                 2.7057                 1.8808
 IR Inten    --     19.4687                71.8984                44.1482

                     61                     62                     63
                      A                      A                      A
 Frequencies --   1457.1336              1461.7535              1487.9293
 Red. masses --      2.4753                 1.1269                 1.1588
 Frc consts  --      3.0966                 1.4187                 1.5116
 IR Inten    --     69.5923                17.6612                16.2670

                     64                     65                     66
                      A                      A                      A
 Frequencies --   1513.8339              1517.0261              1557.4013
 Red. masses --      1.0898                 3.4607                 2.5899
 Frc consts  --      1.4715                 4.6925                 3.7011
 IR Inten    --      2.0037                24.1435               331.2004

                     67                     68                     69
                      A                      A                      A
 Frequencies --   1627.6019              1663.9290              1738.8187
 Red. masses --      4.4205                 1.1422                 6.4506
 Frc consts  --      6.8996                 1.8633                11.4911
 IR Inten    --     16.5976                80.7978               166.4597

                     70                     71                     72
                      A                      A                      A
 Frequencies --   1833.5267              2993.6748              3042.3046
 Red. masses --      9.8726                 1.0704                 1.0630
 Frc consts  --     19.5549                 5.6521                 5.7968
 IR Inten    --    268.8547                56.9586                12.4207

                     73                     74                     75
                      A                      A                      A
 Frequencies --   3058.3763              3080.8335              3082.0354
 Red. masses --      1.0651                 1.0925                 1.0840
 Frc consts  --      5.8699                 6.1096                 6.0669
 IR Inten    --     17.6892                38.6886                 9.0117

                     76                     77                     78
                      A                      A                      A
 Frequencies --   3096.7353              3117.3960              3246.8735
 Red. masses --      1.1000                 1.0996                 1.0959
 Frc consts  --      6.2151                 6.2962                 6.8070
 IR Inten    --     16.6772                 9.8023                10.9093

                     79                     80                     81
                      A                      A                      A
 Frequencies --   3257.8554              3498.2831              3508.1362
 Red. masses --      1.0975                 1.0499                 1.0847
 Frc consts  --      6.8631                 7.5700                 7.8655
 IR Inten    --      2.5367                10.1527               433.5440

                     82                     83                     84
                      A                      A                      A
 Frequencies --   3582.4437              3599.4430              3756.1550
 Red. masses --      1.0923                 1.0779                 1.0643
 Frc consts  --      8.2594                 8.2282                 8.8470
 IR Inten    --      1.3453                88.9904                78.5940

 - Thermochemistry -
 -------------------
 Temperature   298.150 Kelvin.  Pressure   1.00000 Atm.
 Atom     1 has atomic number  8 and mass  15.99491

 Molecular mass:   226.10659 amu.
 Principal axes and moments of inertia in atomic units:
                           1         2         3
     Eigenvalues --  3052.025614808.686247395.32463
           X            0.94428  -0.14474  -0.29560
           Y            0.19004   0.97305   0.13062
           Z            0.26873  -0.17951   0.94634
 This molecule is an asymmetric top.
 Rotational symmetry number  1.
 Warning -- assumption of classical behavior for rotation
           may cause significant error
 Rotational temperatures (Kelvin)      0.02838     0.01801     0.01171
 Rotational constants (GHZ):           0.59133     0.37531     0.24404
    1 imaginary frequencies ignored.
 Zero-point vibrational energy     645949.3 (Joules/Mol)
                                  154.38560 (Kcal/Mol)
 Warning -- explicit consideration of  20 degrees of freedom as
           vibrations may cause significant error
 Vibrational temperatures:     46.01    77.03    85.21   112.79   120.31
          (Kelvin)            164.19   195.36   215.64   279.22   360.46
                              420.54   423.13   460.08   468.66   506.87
                              584.43   626.00   764.55   813.91   862.35
                              904.43   913.51   932.18   972.58   979.66
                             1034.76  1113.02  1115.06  1161.65  1207.16
                             1238.87  1262.73  1289.10  1314.07  1360.35
                             1381.59  1419.36  1473.04  1482.06  1536.39
                             1600.81  1631.85  1642.88  1663.67  1695.80
                             1719.46  1743.40  1782.65  1812.96  1831.14
                             1849.18  1862.44  1917.60  1954.86  1966.40
                             1998.18  2011.80  2062.01  2067.26  2096.49
                             2103.13  2140.80  2178.07  2182.66  2240.75
                             2341.75  2394.02  2501.77  2638.03  4307.22
                             4377.19  4400.32  4432.63  4434.36  4455.51
                             4485.23  4671.52  4687.32  5033.24  5047.42
                             5154.33  5178.79  5404.26

 Zero-point correction=                           0.246029 (Hartree/Particle)
 Thermal correction to Energy=                    0.260951
 Thermal correction to Enthalpy=                  0.261896
 Thermal correction to Gibbs Free Energy=         0.202373
 Sum of electronic and zero-point Energies=           -795.927688
 Sum of electronic and thermal Energies=              -795.912766
 Sum of electronic and thermal Enthalpies=            -795.911822
 Sum of electronic and thermal Free Energies=         -795.971344

                     E (Thermal)             CV                S
                      KCal/Mol        Cal/Mol-Kelvin    Cal/Mol-Kelvin
 Total                  163.749             55.730            125.275
 Electronic               0.000              0.000              0.000
 Translational            0.889              2.981             42.150
 Rotational               0.889              2.981             33.051
 Vibrational            161.972             49.768             50.075
 Vibration     1          0.594              1.983              5.703
 Vibration     2          0.596              1.976              4.682
 Vibration     3          0.597              1.974              4.483
 Vibration     4          0.600              1.964              3.931
 Vibration     5          0.601              1.960              3.804
 Vibration     6          0.607              1.938              3.198
 Vibration     7          0.614              1.918              2.862
 Vibration     8          0.618              1.903              2.674
 Vibration     9          0.635              1.848              2.189
 Vibration    10          0.663              1.762              1.727
 Vibration    11          0.688              1.688              1.461
 Vibration    12          0.689              1.685              1.450
 Vibration    13          0.706              1.636              1.311
 Vibration    14          0.710              1.624              1.281
 Vibration    15          0.729              1.571              1.156
 Vibration    16          0.771              1.457              0.940
 Vibration    17          0.796              1.394              0.842
 Vibration    18          0.886              1.181              0.584
 Vibration    19          0.922              1.105              0.513
 Vibration    20          0.957              1.033              0.451

 Normal termination of Gaussian 09 at Sat Jul 24 01:33:36 2021.
