 Gaussian 09, Revision D.01,
 Gaussian 09:  ES64L-G09RevD.01 24-Apr-2013

 ----------------------------------------------------------------------
 # B3LYP/6-31G(d,p) EmpiricalDispersion=GD3BJ opt=calcfc freq=noraman n
 osymm integral(ultrafinegrid)
 ----------------------------------------------------------------------

 ------------------------------------------------------------
 Candidate Structure: Conf:422 OPT and FREQ calc in gas phase
 ------------------------------------------------------------
 Symbolic Z-matrix:
 Charge =  0 Multiplicity = 1

 SCF Done:  E(RB3LYP) =  -796.159488955     A.U. after   14 cycles
 SCF Done:  E(RB3LYP) =  -796.161085683     A.U. after   12 cycles
 SCF Done:  E(RB3LYP) =  -796.161210534     A.U. after   12 cycles
 SCF Done:  E(RB3LYP) =  -796.161151369     A.U. after   12 cycles
 SCF Done:  E(RB3LYP) =  -796.161211174     A.U. after    8 cycles
 SCF Done:  E(RB3LYP) =  -796.161213682     A.U. after    9 cycles
 SCF Done:  E(RB3LYP) =  -796.161213795     A.U. after    8 cycles
 SCF Done:  E(RB3LYP) =  -796.161213816     A.U. after    7 cycles
 Optimization completed.
    -- Stationary point found.
 Normal termination of Gaussian 09 at Sat Jul 24 01:04:39 2021.

 ----------------------------------------------------------------------
 #N Geom=AllCheck Guess=TCheck SCRF=Check GenChk RB3LYP/6-31G(d,p) Freq
 ----------------------------------------------------------------------

 Structure from the checkpoint file:  "conf-422.chk"
 ------------------------------------------------------------
 Candidate Structure: Conf:422 OPT and FREQ calc in gas phase
 ------------------------------------------------------------
 Charge =  0 Multiplicity = 1

                          Input orientation:
 ---------------------------------------------------------------------
 Center     Atomic      Atomic             Coordinates (Angstroms)
 Number     Number       Type             X           Y           Z
 ---------------------------------------------------------------------
      1          8           0        0.764690    0.655010    1.534857
      2          6           0        1.108213    0.079989    0.506937
      3          7           0        0.290356   -0.803180   -0.149074
      4          6           0       -0.963066   -1.237341    0.421133
      5          6           0       -0.915603   -2.744329    0.633124
      6          8           0       -1.924467   -3.173433    1.418934
      7          8           0       -0.100862   -3.487378    0.130988
      8          6           0       -2.185696   -0.891699   -0.459846
      9          6           0       -2.374386    0.578404   -0.654817
     10          6           0       -1.904884    1.696423   -0.004072
     11          7           0       -2.423111    2.846778   -0.568247
     12          6           0       -3.198755    2.439405   -1.546966
     13          7           0       -3.205578    1.073726   -1.647096
     14          6           0        2.443701    0.339481   -0.169244
     15          6           0        3.502129    0.824032    0.819252
     16          7           0        4.721495    1.197677    0.097994
     17          1           0        0.699164   -1.415792   -0.841008
     18          1           0       -1.062561   -0.742941    1.391361
     19          1           0       -1.840192   -4.140477    1.477405
     20          1           0       -3.071895   -1.341185    0.005684
     21          1           0       -2.058443   -1.387663   -1.432737
     22          1           0       -1.207005    1.733469    0.819645
     23          1           0       -3.772225    3.070163   -2.211992
     24          1           0       -3.723362    0.524175   -2.315420
     25          1           0        2.785010   -0.560805   -0.697104
     26          1           0        2.295993    1.111832   -0.933842
     27          1           0        3.648040    0.055163    1.596790
     28          1           0        3.109834    1.706887    1.329940
     29          1           0        5.184564    0.361827   -0.253395
     30          1           0        5.378924    1.631692    0.740817
 ---------------------------------------------------------------------

 SCF Done:  E(RB3LYP) =  -796.161213816     A.U. after    1 cycles

 Alpha  occ. eigenvalues --  -19.21741 -19.16077 -19.11684 -14.38532 -14.36370
 Alpha  occ. eigenvalues --  -14.31051 -14.30087 -10.33888 -10.28976 -10.25154
 Alpha  occ. eigenvalues --  -10.23098 -10.21780 -10.21501 -10.20465 -10.19144
 Alpha  occ. eigenvalues --  -10.18216  -1.12690  -1.03927  -1.03389  -1.00344
 Alpha  occ. eigenvalues --   -0.93291  -0.87757  -0.86053  -0.80902  -0.75738
 Alpha  occ. eigenvalues --   -0.73428  -0.67835  -0.64376  -0.60718  -0.60395
 Alpha  occ. eigenvalues --   -0.58848  -0.57417  -0.54043  -0.51721  -0.50701
 Alpha  occ. eigenvalues --   -0.49613  -0.47980  -0.47895  -0.46888  -0.45090
 Alpha  occ. eigenvalues --   -0.44354  -0.43493  -0.42660  -0.41589  -0.40989
 Alpha  occ. eigenvalues --   -0.40240  -0.39491  -0.39105  -0.38058  -0.37468
 Alpha  occ. eigenvalues --   -0.35114  -0.34110  -0.33875  -0.29766  -0.27030
 Alpha  occ. eigenvalues --   -0.26443  -0.25487  -0.25276  -0.23336  -0.21514
 Alpha virt. eigenvalues --   -0.01004   0.02023   0.03380   0.05971   0.07297
 Alpha virt. eigenvalues --    0.07809   0.08202   0.08725   0.11448   0.13376
 Alpha virt. eigenvalues --    0.14260   0.14435   0.14933   0.16048   0.16912

 Mulliken charges:
               1
     1  O   -0.523947
     2  C    0.608103
     3  N   -0.511248
     4  C   -0.020739
     5  C    0.576676
     6  O   -0.476038
     7  O   -0.468503
     8  C   -0.239752
     9  C    0.290390
    10  C   -0.025302
    11  N   -0.450308
    12  C    0.260706
    13  N   -0.543374
    14  C   -0.259130
    15  C   -0.053603
    16  N   -0.607284
    17  H    0.267324
    18  H    0.174197
    19  H    0.328830
    20  H    0.138420
    21  H    0.103234
    22  H    0.125422
    23  H    0.108708
    24  H    0.257314
    25  H    0.093121
    26  H    0.155517
    27  H    0.083527
    28  H    0.135501
    29  H    0.232319
    30  H    0.239922
 Sum of Mulliken charges =   0.00000

 Dipole moment (field-independent basis, Debye):
    X=             -1.1933    Y=             -5.2078    Z=             -2.4397  Tot=              5.8734
 Quadrupole moment (field-independent basis, Debye-Ang):
   XX=            -73.0481   YY=           -100.9594   ZZ=            -88.2643
   XY=              7.6729   XZ=             11.7971   YZ=             -4.1223

  Exact polarizability: 131.166   2.000 136.128  12.019  -2.579 101.128
 Approx polarizability: 169.099   1.321 201.674  12.006  17.738 171.076

                      1                      2                      3
                      A                      A                      A
 Frequencies --     12.2510                28.6845                47.8568
 Red. masses --      3.2782                 2.8191                 9.2916
 Frc consts  --      0.0003                 0.0014                 0.0125
 IR Inten    --      1.3899                 2.4267                 2.5079

                      4                      5                      6
                      A                      A                      A
 Frequencies --     49.5268                61.9550                83.7356
 Red. masses --      4.0688                 3.7475                 7.0829
 Frc consts  --      0.0059                 0.0085                 0.0293
 IR Inten    --      2.7172                 4.9777                 8.2663

                      7                      8                      9
                      A                      A                      A
 Frequencies --     92.3556               104.5298               137.3908
 Red. masses --      4.8659                 3.8444                 4.1559
 Frc consts  --      0.0245                 0.0247                 0.0462
 IR Inten    --      0.7867                 2.7262                 3.9696

                     10                     11                     12
                      A                      A                      A
 Frequencies --    179.5851               222.2975               246.8108
 Red. masses --      6.4794                 3.6840                 3.1279
 Frc consts  --      0.1231                 0.1073                 0.1123
 IR Inten    --      2.2902                 9.9329                 4.0860

                     13                     14                     15
                      A                      A                      A
 Frequencies --    264.9338               283.7412               313.0470
 Red. masses --      1.3962                 3.1521                 4.2041
 Frc consts  --      0.0577                 0.1495                 0.2427
 IR Inten    --     52.0249                 2.2551                 7.9444

                     16                     17                     18
                      A                      A                      A
 Frequencies --    351.8981               399.3634               447.9115
 Red. masses --      4.6119                 3.8966                 3.3199
 Frc consts  --      0.3365                 0.3662                 0.3924
 IR Inten    --      3.3734                14.2479                18.5929

                     19                     20                     21
                      A                      A                      A
 Frequencies --    488.5309               497.6449               532.3733
 Red. masses --      1.4357                 1.5394                 3.2877
 Frc consts  --      0.2019                 0.2246                 0.5490
 IR Inten    --     69.2104                82.3631                15.0576

                     22                     23                     24
                      A                      A                      A
 Frequencies --    604.1200               616.2838               647.1389
 Red. masses --      1.4787                 2.2630                 3.0737
 Frc consts  --      0.3180                 0.5064                 0.7584
 IR Inten    --     81.6410                10.0963                45.3449

                     25                     26                     27
                      A                      A                      A
 Frequencies --    652.1936               680.9699               698.8216
 Red. masses --      3.6048                 3.5362                 2.9085
 Frc consts  --      0.9034                 0.9661                 0.8369
 IR Inten    --     26.9230                 5.9166                32.8981

                     28                     29                     30
                      A                      A                      A
 Frequencies --    733.4076               784.2359               791.4811
 Red. masses --      4.3578                 4.0262                 1.3703
 Frc consts  --      1.3810                 1.4589                 0.5057
 IR Inten    --     10.3302                22.5734                12.3358

                     31                     32                     33
                      A                      A                      A
 Frequencies --    803.7562               866.2619               883.9921
 Red. masses --      1.3361                 1.3360                 1.4346
 Frc consts  --      0.5085                 0.5907                 0.6605
 IR Inten    --     14.1681               128.4370                13.6891

                     34                     35                     36
                      A                      A                      A
 Frequencies --    910.5604               924.1455               941.5462
 Red. masses --      1.7107                 4.2226                 5.8036
 Frc consts  --      0.8357                 2.1247                 3.0313
 IR Inten    --     16.8445                 8.7920                 9.9822

                     37                     38                     39
                      A                      A                      A
 Frequencies --    984.4042              1004.0452              1031.6686
 Red. masses --      2.5492                 2.5502                 3.6202
 Frc consts  --      1.4555                 1.5147                 2.2702
 IR Inten    --      6.5805                12.2892                11.0320

                     40                     41                     42
                      A                      A                      A
 Frequencies --   1065.7470              1069.6053              1105.7998
 Red. masses --      2.9985                 2.7771                 1.9922
 Frc consts  --      2.0066                 1.8720                 1.4353
 IR Inten    --     16.6528                13.4647                25.3129

                     43                     44                     45
                      A                      A                      A
 Frequencies --   1115.3283              1131.0088              1154.3905
 Red. masses --      1.5700                 2.3324                 2.4467
 Frc consts  --      1.1507                 1.7578                 1.9210
 IR Inten    --     13.9829                59.3628                21.9784

                     46                     47                     48
                      A                      A                      A
 Frequencies --   1166.0617              1186.6752              1211.2096
 Red. masses --      1.6376                 1.9953                 1.8530
 Frc consts  --      1.3119                 1.6554                 1.6017
 IR Inten    --     90.4221                90.9843                43.9290

                     49                     50                     51
                      A                      A                      A
 Frequencies --   1232.5669              1257.8912              1271.6237
 Red. masses --      1.5911                 1.4449                 1.4527
 Frc consts  --      1.4242                 1.3470                 1.3840
 IR Inten    --     21.2712                27.1110                17.8880

                     52                     53                     54
                      A                      A                      A
 Frequencies --   1287.4990              1304.2360              1341.9313
 Red. masses --      1.3523                 1.4673                 1.1165
 Frc consts  --      1.3207                 1.4705                 1.1846
 IR Inten    --     20.8378                 3.4636                 5.1056

                     55                     56                     57
                      A                      A                      A
 Frequencies --   1346.2228              1361.9389              1380.2050
 Red. masses --      1.4815                 1.7737                 1.6164
 Frc consts  --      1.5819                 1.9384                 1.8142
 IR Inten    --      1.3609                 4.0704                 9.6104

                     58                     59                     60
                      A                      A                      A
 Frequencies --   1409.7800              1419.8328              1440.2490
 Red. masses --      2.5859                 2.2562                 2.5334
 Frc consts  --      3.0280                 2.6798                 3.0962
 IR Inten    --    112.1598                39.8135                18.7049

                     61                     62                     63
                      A                      A                      A
 Frequencies --   1441.2803              1479.6079              1497.2055
 Red. masses --      1.7152                 1.0913                 1.2693
 Frc consts  --      2.0992                 1.4076                 1.6765
 IR Inten    --     46.0504                 6.5100                19.1434

                     64                     65                     66
                      A                      A                      A
 Frequencies --   1517.4534              1528.0827              1548.1673
 Red. masses --      2.9990                 1.0844                 1.9543
 Frc consts  --      4.0688                 1.4919                 2.7598
 IR Inten    --      7.9645                 0.8494               254.7757

                     67                     68                     69
                      A                      A                      A
 Frequencies --   1622.9553              1670.7189              1770.2987
 Red. masses --      4.3411                 1.0906                 9.3017
 Frc consts  --      6.7370                 1.7935                17.1753
 IR Inten    --     14.9945                20.7789               174.3894

                     70                     71                     72
                      A                      A                      A
 Frequencies --   1841.6387              2968.6773              3014.8966
 Red. masses --     10.1062                 1.0742                 1.0634
 Frc consts  --     20.1951                 5.5778                 5.6948
 IR Inten    --    238.6499                70.3657                34.3000

                     73                     74                     75
                      A                      A                      A
 Frequencies --   3034.5324              3057.6533              3081.2898
 Red. masses --      1.0633                 1.0977                 1.0966
 Frc consts  --      5.7689                 6.0467                 6.1346
 IR Inten    --     19.3547                14.4930                 8.0693

                     76                     77                     78
                      A                      A                      A
 Frequencies --   3108.6940              3115.1000              3257.1567
 Red. masses --      1.0839                 1.0907                 1.0960
 Frc consts  --      6.1716                 6.2361                 6.8507
 IR Inten    --     11.2768                17.3046                 3.0759

                     79                     80                     81
                      A                      A                      A
 Frequencies --   3268.1713              3487.1609              3572.6088
 Red. masses --      1.0991                 1.0503                 1.0917
 Frc consts  --      6.9167                 7.5252                 8.2098
 IR Inten    --      4.1818                 2.1935                 0.1944

                     82                     83                     84
                      A                      A                      A
 Frequencies --   3628.3504              3663.5791              3749.0059
 Red. masses --      1.0768                 1.0809                 1.0642
 Frc consts  --      8.3521                 8.5480                 8.8127
 IR Inten    --     35.6304                38.4617                63.1234

 - Thermochemistry -
 -------------------
 Temperature   298.150 Kelvin.  Pressure   1.00000 Atm.
 Atom     1 has atomic number  8 and mass  15.99491

 Molecular mass:   226.10659 amu.
 Principal axes and moments of inertia in atomic units:
                           1         2         3
     Eigenvalues --  3393.782085058.528887703.70735
           X            0.98024   0.08405  -0.17909
           Y           -0.03770   0.96803   0.24797
           Z            0.19421  -0.23632   0.95207
 This molecule is an asymmetric top.
 Rotational symmetry number  1.
 Warning -- assumption of classical behavior for rotation
           may cause significant error
 Rotational temperatures (Kelvin)      0.02552     0.01712     0.01124
 Rotational constants (GHZ):           0.53178     0.35677     0.23427
 Zero-point vibrational energy     643528.4 (Joules/Mol)
                                  153.80697 (Kcal/Mol)
 Warning -- explicit consideration of  23 degrees of freedom as
           vibrations may cause significant error
 Vibrational temperatures:     17.63    41.27    68.86    71.26    89.14
          (Kelvin)            120.48   132.88   150.39   197.67   258.38
                              319.84   355.11   381.18   408.24   450.40
                              506.30   574.59   644.44   702.89   716.00
                              765.97   869.19   886.69   931.09   938.36
                              979.76  1005.45  1055.21  1128.34  1138.76
                             1156.42  1246.36  1271.87  1310.09  1329.64
                             1354.67  1416.34  1444.60  1484.34  1533.37
                             1538.92  1591.00  1604.71  1627.27  1660.91
                             1677.70  1707.36  1742.66  1773.39  1809.82
                             1829.58  1852.42  1876.50  1930.74  1936.91
                             1959.52  1985.80  2028.36  2042.82  2072.19
                             2073.68  2128.82  2154.14  2183.27  2198.57
                             2227.46  2335.07  2403.79  2547.06  2649.70
                             4271.26  4337.76  4366.01  4399.28  4433.28
                             4472.71  4481.93  4686.32  4702.16  5017.24
                             5140.18  5220.38  5271.07  5393.98

 Zero-point correction=                           0.245107 (Hartree/Particle)
 Thermal correction to Energy=                    0.261528
 Thermal correction to Enthalpy=                  0.262473
 Thermal correction to Gibbs Free Energy=         0.197361
 Sum of electronic and zero-point Energies=           -795.916107
 Sum of electronic and thermal Energies=              -795.899685
 Sum of electronic and thermal Enthalpies=            -795.898741
 Sum of electronic and thermal Free Energies=         -795.963853

                     E (Thermal)             CV                S
                      KCal/Mol        Cal/Mol-Kelvin    Cal/Mol-Kelvin
 Total                  164.112             58.677            137.039
 Electronic               0.000              0.000              0.000
 Translational            0.889              2.981             42.150
 Rotational               0.889              2.981             33.247
 Vibrational            162.334             52.715             61.642
 Vibration     1          0.593              1.987              7.608
 Vibration     2          0.593              1.984              5.918
 Vibration     3          0.595              1.978              4.904
 Vibration     4          0.595              1.978              4.836
 Vibration     5          0.597              1.972              4.394
 Vibration     6          0.601              1.960              3.801
 Vibration     7          0.602              1.955              3.610
 Vibration     8          0.605              1.946              3.368
 Vibration     9          0.614              1.916              2.840
 Vibration    10          0.629              1.867              2.333
 Vibration    11          0.648              1.807              1.940
 Vibration    12          0.661              1.768              1.753
 Vibration    13          0.671              1.737              1.629
 Vibration    14          0.682              1.704              1.511
 Vibration    15          0.701              1.649              1.346
 Vibration    16          0.728              1.571              1.158
 Vibration    17          0.765              1.471              0.965
 Vibration    18          0.807              1.366              0.802
 Vibration    19          0.844              1.275              0.687
 Vibration    20          0.853              1.255              0.664
 Vibration    21          0.887              1.178              0.582
 Vibration    22          0.963              1.023              0.443
 Vibration    23          0.976              0.997              0.422

 Optimization completed.
    -- Stationary point found.
 Normal termination of Gaussian 09 at Sat Jul 24 01:23:37 2021.
