 Gaussian 09, Revision D.01,
 Gaussian 09:  ES64L-G09RevD.01 24-Apr-2013

 ----------------------------------------------------------------------
 # B3LYP/6-31G(d,p) EmpiricalDispersion=GD3BJ opt=calcfc freq=noraman n
 osymm integral(ultrafinegrid)
 ----------------------------------------------------------------------

 ------------------------------------------------------------
 Candidate Structure: Conf:118 OPT and FREQ calc in gas phase
 ------------------------------------------------------------
 Symbolic Z-matrix:
 Charge =  0 Multiplicity = 1

 SCF Done:  E(RB3LYP) =  -796.175616759     A.U. after   14 cycles
 SCF Done:  E(RB3LYP) =  -796.178330524     A.U. after   14 cycles
 SCF Done:  E(RB3LYP) =  -796.178884921     A.U. after   14 cycles
 SCF Done:  E(RB3LYP) =  -796.179288936     A.U. after   11 cycles
 SCF Done:  E(RB3LYP) =  -796.179420374     A.U. after   12 cycles
 SCF Done:  E(RB3LYP) =  -796.179437233     A.U. after   10 cycles
 SCF Done:  E(RB3LYP) =  -796.179454100     A.U. after   10 cycles
 SCF Done:  E(RB3LYP) =  -796.179455159     A.U. after    9 cycles
 SCF Done:  E(RB3LYP) =  -796.179455271     A.U. after    7 cycles
 Optimization completed.
    -- Stationary point found.
 Normal termination of Gaussian 09 at Sat Jul 24 01:08:00 2021.

 ----------------------------------------------------------------------
 #N Geom=AllCheck Guess=TCheck SCRF=Check GenChk RB3LYP/6-31G(d,p) Freq
 ----------------------------------------------------------------------

 Structure from the checkpoint file:  "conf-118.chk"
 ------------------------------------------------------------
 Candidate Structure: Conf:118 OPT and FREQ calc in gas phase
 ------------------------------------------------------------
 Charge =  0 Multiplicity = 1

                          Input orientation:
 ---------------------------------------------------------------------
 Center     Atomic      Atomic             Coordinates (Angstroms)
 Number     Number       Type             X           Y           Z
 ---------------------------------------------------------------------
      1          8           0       -0.996771   -1.902567    1.764513
      2          6           0       -1.008718   -1.278526    0.688280
      3          7           0        0.109546   -0.709881    0.190190
      4          6           0        1.430176   -0.886722    0.790939
      5          6           0        1.576348   -0.065760    2.094612
      6          8           0        0.722860   -0.386187    3.057475
      7          8           0        2.425600    0.792919    2.245833
      8          6           0        2.513937   -0.542523   -0.247814
      9          6           0        2.283480    0.762736   -0.937206
     10          6           0        1.851794    1.072801   -2.210957
     11          7           0        1.730632    2.436731   -2.371054
     12          6           0        2.077900    2.948993   -1.206340
     13          7           0        2.421834    1.982979   -0.307249
     14          6           0       -2.286464   -1.096502   -0.096844
     15          6           0       -3.372865   -0.402787    0.760317
     16          7           0       -4.672035   -0.252712    0.121364
     17          1           0        0.069926   -0.125451   -0.637594
     18          1           0        1.519974   -1.941659    1.079184
     19          1           0        0.083381   -1.082588    2.734965
     20          1           0        2.525834   -1.332710   -1.003687
     21          1           0        3.481992   -0.555349    0.260480
     22          1           0        1.653894    0.387222   -3.024516
     23          1           0        2.099714    4.001632   -0.961512
     24          1           0        2.655163    2.067356    0.676540
     25          1           0       -2.638963   -2.095357   -0.379565
     26          1           0       -2.109756   -0.533679   -1.020549
     27          1           0       -3.494179   -0.975445    1.683873
     28          1           0       -3.016113    0.591735    1.052075
     29          1           0       -4.589058    0.283265   -0.739103
     30          1           0       -5.048963   -1.161959   -0.135161
 ---------------------------------------------------------------------

 SCF Done:  E(RB3LYP) =  -796.179455271     A.U. after    1 cycles

 Alpha  occ. eigenvalues --  -19.18753 -19.15080 -19.14801 -14.39597 -14.38689
 Alpha  occ. eigenvalues --  -14.32707 -14.31461 -10.33082 -10.32044 -10.26602
 Alpha  occ. eigenvalues --  -10.24192 -10.22715 -10.22655 -10.22420 -10.21560
 Alpha  occ. eigenvalues --  -10.20453  -1.10689  -1.06648  -1.02363  -1.01344
 Alpha  occ. eigenvalues --   -0.95894  -0.89635  -0.87068  -0.81941  -0.77598
 Alpha  occ. eigenvalues --   -0.74270  -0.68127  -0.65159  -0.61929  -0.61846
 Alpha  occ. eigenvalues --   -0.60411  -0.59293  -0.55953  -0.54872  -0.52279
 Alpha  occ. eigenvalues --   -0.51047  -0.50381  -0.47294  -0.46114  -0.45867
 Alpha  occ. eigenvalues --   -0.44931  -0.44287  -0.43537  -0.43080  -0.42063
 Alpha  occ. eigenvalues --   -0.41074  -0.41049  -0.40528  -0.39487  -0.38710
 Alpha  occ. eigenvalues --   -0.37402  -0.36067  -0.32097  -0.31151  -0.29109
 Alpha  occ. eigenvalues --   -0.28265  -0.27305  -0.26771  -0.24698  -0.23284
 Alpha virt. eigenvalues --   -0.01684  -0.00298   0.01975   0.05034   0.06551
 Alpha virt. eigenvalues --    0.08051   0.09006   0.11505   0.11884   0.12379
 Alpha virt. eigenvalues --    0.13126   0.14057   0.14802   0.15228   0.16186

 Mulliken charges:
               1
     1  O   -0.567354
     2  C    0.601521
     3  N   -0.518553
     4  C   -0.043908
     5  C    0.627415
     6  O   -0.492510
     7  O   -0.487435
     8  C   -0.257146
     9  C    0.242002
    10  C   -0.027644
    11  N   -0.442469
    12  C    0.260120
    13  N   -0.514481
    14  C   -0.263686
    15  C   -0.059808
    16  N   -0.588345
    17  H    0.278479
    18  H    0.150747
    19  H    0.364882
    20  H    0.123246
    21  H    0.144916
    22  H    0.087173
    23  H    0.117536
    24  H    0.296710
    25  H    0.134966
    26  H    0.099030
    27  H    0.140237
    28  H    0.116536
    29  H    0.238482
    30  H    0.239343
 Sum of Mulliken charges =   0.00000

 Dipole moment (field-independent basis, Debye):
    X=             -0.6849    Y=             -2.5220    Z=             -2.3500  Tot=              3.5145
 Quadrupole moment (field-independent basis, Debye-Ang):
   XX=            -95.3468   YY=            -92.4263   ZZ=           -112.3431
   XY=             -0.8943   XZ=              6.9449   YZ=              8.8314

  Exact polarizability: 127.149  15.297 122.968   4.516 -12.501 120.607
 Approx polarizability: 168.450  20.401 191.741  11.989 -17.376 193.033

                      1                      2                      3
                      A                      A                      A
 Frequencies --     14.8789                44.6666                57.6124
 Red. masses --      4.2744                 7.1157                 2.8611
 Frc consts  --      0.0006                 0.0084                 0.0056
 IR Inten    --      0.2836                 1.2749                 4.2342

                      4                      5                      6
                      A                      A                      A
 Frequencies --     75.9961                86.2830                95.5742
 Red. masses --      4.0090                 3.2770                 4.5193
 Frc consts  --      0.0136                 0.0144                 0.0243
 IR Inten    --      6.9097                 0.4542                 4.6156

                      7                      8                      9
                      A                      A                      A
 Frequencies --    138.6319               158.6623               194.1828
 Red. masses --      8.8529                 5.3820                 4.2962
 Frc consts  --      0.1002                 0.0798                 0.0954
 IR Inten    --      8.5102                 9.5915                 9.4016

                     10                     11                     12
                      A                      A                      A
 Frequencies --    215.1037               237.2538               277.6271
 Red. masses --      4.8448                 7.0354                 6.8224
 Frc consts  --      0.1321                 0.2333                 0.3098
 IR Inten    --      5.3744                14.4908                 0.8206

                     13                     14                     15
                      A                      A                      A
 Frequencies --    305.1350               318.1720               346.6442
 Red. masses --      5.6307                 1.1125                 4.5153
 Frc consts  --      0.3089                 0.0664                 0.3197
 IR Inten    --      2.6372                47.3153                 4.4054

                     16                     17                     18
                      A                      A                      A
 Frequencies --    362.7998               385.1255               443.8433
 Red. masses --      2.4556                 4.1136                 3.4610
 Frc consts  --      0.1904                 0.3595                 0.4017
 IR Inten    --      6.6545                 5.1218                24.7619

                     19                     20                     21
                      A                      A                      A
 Frequencies --    568.8363               577.4864               607.6775
 Red. masses --      1.8375                 3.0011                 3.3520
 Frc consts  --      0.3503                 0.5897                 0.7293
 IR Inten    --     31.4515                28.3949                10.4352

                     22                     23                     24
                      A                      A                      A
 Frequencies --    636.6269               662.7214               673.6148
 Red. masses --      3.4677                 2.4690                 3.7712
 Frc consts  --      0.8281                 0.6389                 1.0082
 IR Inten    --     13.2630                13.4754                27.1802

                     25                     26                     27
                      A                      A                      A
 Frequencies --    731.0693               743.3794               763.3871
 Red. masses --      2.9354                 1.3383                 5.2025
 Frc consts  --      0.9244                 0.4357                 1.7863
 IR Inten    --      4.8305                74.6506                 6.5922

                     28                     29                     30
                      A                      A                      A
 Frequencies --    771.9280               786.4824               821.4506
 Red. masses --      1.3777                 3.7532                 1.3885
 Frc consts  --      0.4837                 1.3678                 0.5520
 IR Inten    --      7.0162                 2.4361                19.0552

                     31                     32                     33
                      A                      A                      A
 Frequencies --    839.5979               844.8716               858.3360
 Red. masses --      1.4186                 1.4838                 2.7741
 Frc consts  --      0.5892                 0.6240                 1.2042
 IR Inten    --    118.5270               184.7933                11.3874

                     34                     35                     36
                      A                      A                      A
 Frequencies --    934.6575               944.4899               950.8224
 Red. masses --      1.2693                 5.1084                 2.1834
 Frc consts  --      0.6533                 2.6849                 1.1630
 IR Inten    --     69.1880                 8.9647                22.0259

                     37                     38                     39
                      A                      A                      A
 Frequencies --    981.6519               994.9108              1015.2178
 Red. masses --      1.3792                 4.0122                 3.5678
 Frc consts  --      0.7831                 2.3399                 2.1665
 IR Inten    --      1.9507                 6.1434                16.5638

                     40                     41                     42
                      A                      A                      A
 Frequencies --   1019.9020              1061.6155              1099.3291
 Red. masses --      4.7697                 2.3141                 2.1533
 Frc consts  --      2.9232                 1.5366                 1.5332
 IR Inten    --     70.2608                 9.4618                 4.1210

                     43                     44                     45
                      A                      A                      A
 Frequencies --   1119.9401              1126.3252              1145.5538
 Red. masses --      3.3392                 1.5411                 1.3876
 Frc consts  --      2.4676                 1.1519                 1.0729
 IR Inten    --     10.1287                54.9677                 2.1921

                     46                     47                     48
                      A                      A                      A
 Frequencies --   1154.4608              1226.3739              1251.8357
 Red. masses --      2.1172                 1.5162                 1.7287
 Frc consts  --      1.6626                 1.3436                 1.5961
 IR Inten    --      5.8546                 9.6294                10.7719

                     49                     50                     51
                      A                      A                      A
 Frequencies --   1264.2564              1274.1538              1291.3088
 Red. masses --      1.8750                 2.2508                 1.3160
 Frc consts  --      1.7657                 2.1529                 1.2929
 IR Inten    --     35.4379                 3.6046                 6.8935

                     52                     53                     54
                      A                      A                      A
 Frequencies --   1297.4455              1314.8138              1359.3380
 Red. masses --      1.3415                 1.4981                 1.6828
 Frc consts  --      1.3305                 1.5259                 1.8321
 IR Inten    --      1.8441                24.1407                 2.0567

                     55                     56                     57
                      A                      A                      A
 Frequencies --   1374.6869              1388.6393              1393.1289
 Red. masses --      1.5575                 1.5694                 1.2309
 Frc consts  --      1.7342                 1.7830                 1.4075
 IR Inten    --     13.2109                 2.9169                12.8799

                     58                     59                     60
                      A                      A                      A
 Frequencies --   1400.8399              1405.3102              1440.2161
 Red. masses --      1.2623                 3.2059                 2.9645
 Frc consts  --      1.4594                 3.7303                 3.6229
 IR Inten    --     19.0418                35.9800                57.6894

                     61                     62                     63
                      A                      A                      A
 Frequencies --   1481.3903              1483.4022              1488.0623
 Red. masses --      1.1616                 1.3421                 1.1440
 Frc consts  --      1.5019                 1.7400                 1.4926
 IR Inten    --    104.1762               154.8388                 2.7627

                     64                     65                     66
                      A                      A                      A
 Frequencies --   1512.5720              1516.3817              1554.5168
 Red. masses --      1.0914                 3.5685                 2.6027
 Frc consts  --      1.4712                 4.8345                 3.7056
 IR Inten    --      4.6863                18.2281               460.9005

                     67                     68                     69
                      A                      A                      A
 Frequencies --   1614.7595              1673.1590              1700.8146
 Red. masses --      4.4935                 1.1001                 7.5982
 Frc consts  --      6.9032                 1.8146                12.9502
 IR Inten    --     15.0959                33.6258               188.1926

                     70                     71                     72
                      A                      A                      A
 Frequencies --   1830.1892              3044.9346              3049.9108
 Red. masses --      8.1866                 1.0592                 1.0830
 Frc consts  --     16.1565                 5.7863                 5.9357
 IR Inten    --    323.8858                 4.8622                 5.5190

                     73                     74                     75
                      A                      A                      A
 Frequencies --   3057.7536              3076.7144              3091.2996
 Red. masses --      1.0655                 1.0612                 1.1019
 Frc consts  --      5.8693                 5.9184                 6.2038
 IR Inten    --     30.0923                18.5754                 4.9296

                     76                     77                     78
                      A                      A                      A
 Frequencies --   3119.9194              3123.3789              3186.3633
 Red. masses --      1.1040                 1.1050                 1.0758
 Frc consts  --      6.3315                 6.3512                 6.4355
 IR Inten    --     19.8702                 3.8330               727.9350

                     79                     80                     81
                      A                      A                      A
 Frequencies --   3240.6495              3262.7329              3492.4178
 Red. masses --      1.0961                 1.0976                 1.0488
 Frc consts  --      6.7820                 6.8843                 7.5369
 IR Inten    --      7.5776                 1.5887                 0.2768

                     82                     83                     84
                      A                      A                      A
 Frequencies --   3563.6338              3579.3788              3579.6874
 Red. masses --      1.0791                 1.0933                 1.0830
 Frc consts  --      8.0742                 8.2528                 8.1763
 IR Inten    --    130.8678                 0.0726               221.3159

 - Thermochemistry -
 -------------------
 Temperature   298.150 Kelvin.  Pressure   1.00000 Atm.
 Atom     1 has atomic number  8 and mass  15.99491

 Molecular mass:   226.10659 amu.
 Principal axes and moments of inertia in atomic units:
                           1         2         3
     Eigenvalues --  2664.824875325.852966832.31598
           X            0.87590   0.41583  -0.24473
           Y            0.41246  -0.38211   0.82696
           Z           -0.25036   0.82528   0.50620
 This molecule is an asymmetric top.
 Rotational symmetry number  1.
 Warning -- assumption of classical behavior for rotation
           may cause significant error
 Rotational temperatures (Kelvin)      0.03250     0.01626     0.01268
 Rotational constants (GHZ):           0.67725     0.33886     0.26415
 Zero-point vibrational energy     647185.1 (Joules/Mol)
                                  154.68096 (Kcal/Mol)
 Warning -- explicit consideration of  21 degrees of freedom as
           vibrations may cause significant error
 Vibrational temperatures:     21.41    64.27    82.89   109.34   124.14
          (Kelvin)            137.51   199.46   228.28   279.39   309.49
                              341.35   399.44   439.02   457.78   498.74
                              521.99   554.11   638.59   818.43   830.87
                              874.31   915.96   953.51   969.18  1051.84
                             1069.56  1098.34  1110.63  1131.57  1181.88
                             1207.99  1215.58  1234.95  1344.76  1358.91
                             1368.02  1412.38  1431.45  1460.67  1467.41
                             1527.43  1581.69  1611.34  1620.53  1648.19
                             1661.01  1764.48  1801.11  1818.98  1833.22
                             1857.90  1866.73  1891.72  1955.78  1977.87
                             1997.94  2004.40  2015.49  2021.93  2072.15
                             2131.39  2134.28  2140.99  2176.25  2181.73
                             2236.60  2323.28  2407.30  2447.09  2633.23
                             4380.98  4388.14  4399.42  4426.70  4447.69
                             4488.86  4493.84  4584.46  4662.57  4694.34
                             5024.80  5127.27  5149.92  5150.37

 Zero-point correction=                           0.246500 (Hartree/Particle)
 Thermal correction to Energy=                    0.261892
 Thermal correction to Enthalpy=                  0.262836
 Thermal correction to Gibbs Free Energy=         0.201594
 Sum of electronic and zero-point Energies=           -795.932955
 Sum of electronic and thermal Energies=              -795.917563
 Sum of electronic and thermal Enthalpies=            -795.916619
 Sum of electronic and thermal Free Energies=         -795.977861

                     E (Thermal)             CV                S
                      KCal/Mol        Cal/Mol-Kelvin    Cal/Mol-Kelvin
 Total                  164.340             56.845            128.895
 Electronic               0.000              0.000              0.000
 Translational            0.889              2.981             42.150
 Rotational               0.889              2.981             32.939
 Vibrational            162.562             50.883             53.806
 Vibration     1          0.593              1.986              7.222
 Vibration     2          0.595              1.980              5.041
 Vibration     3          0.596              1.974              4.537
 Vibration     4          0.599              1.965              3.992
 Vibration     5          0.601              1.959              3.743
 Vibration     6          0.603              1.952              3.543
 Vibration     7          0.614              1.915              2.823
 Vibration     8          0.621              1.893              2.566
 Vibration     9          0.635              1.848              2.188
 Vibration    10          0.645              1.818              2.000
 Vibration    11          0.656              1.784              1.823
 Vibration    12          0.679              1.715              1.548
 Vibration    13          0.696              1.664              1.389
 Vibration    14          0.705              1.639              1.319
 Vibration    15          0.725              1.582              1.181
 Vibration    16          0.737              1.549              1.110
 Vibration    17          0.754              1.502              1.019
 Vibration    18          0.803              1.374              0.815
 Vibration    19          0.925              1.099              0.506
 Vibration    20          0.934              1.080              0.490
 Vibration    21          0.966              1.016              0.437

 Optimization completed.
    -- Stationary point found.
 Normal termination of Gaussian 09 at Sat Jul 24 01:28:14 2021.
