 Gaussian 09, Revision D.01,
 Gaussian 09:  ES64L-G09RevD.01 24-Apr-2013

 ----------------------------------------------------------------------
 # B3LYP/6-31G(d,p) EmpiricalDispersion=GD3BJ opt=calcfc freq=noraman n
 osymm integral(ultrafinegrid)
 ----------------------------------------------------------------------

 ------------------------------------------------------------
 Candidate Structure: Conf:150 OPT and FREQ calc in gas phase
 ------------------------------------------------------------
 Symbolic Z-matrix:
 Charge =  0 Multiplicity = 1

 SCF Done:  E(RB3LYP) =  -796.166077131     A.U. after   14 cycles
 SCF Done:  E(RB3LYP) =  -796.166993449     A.U. after   14 cycles
 SCF Done:  E(RB3LYP) =  -796.123028932     A.U. after   14 cycles
 SCF Done:  E(RB3LYP) =  -796.167004463     A.U. after    7 cycles
 SCF Done:  E(RB3LYP) =  -796.167784402     A.U. after   13 cycles
 SCF Done:  E(RB3LYP) =  -796.167076985     A.U. after   14 cycles
 SCF Done:  E(RB3LYP) =  -796.167796908     A.U. after   10 cycles
 SCF Done:  E(RB3LYP) =  -796.167856705     A.U. after   10 cycles
 SCF Done:  E(RB3LYP) =  -796.167874993     A.U. after   10 cycles
 SCF Done:  E(RB3LYP) =  -796.167890250     A.U. after   11 cycles
 SCF Done:  E(RB3LYP) =  -796.167893504     A.U. after   10 cycles
 SCF Done:  E(RB3LYP) =  -796.167893926     A.U. after    8 cycles
 SCF Done:  E(RB3LYP) =  -796.167894119     A.U. after    8 cycles
 SCF Done:  E(RB3LYP) =  -796.167894267     A.U. after    8 cycles
 SCF Done:  E(RB3LYP) =  -796.167894275     A.U. after    6 cycles
 Optimization completed.
    -- Stationary point found.
 Normal termination of Gaussian 09 at Sat Jul 24 01:17:14 2021.

 ----------------------------------------------------------------------
 #N Geom=AllCheck Guess=TCheck SCRF=Check GenChk RB3LYP/6-31G(d,p) Freq
 ----------------------------------------------------------------------

 Structure from the checkpoint file:  "conf-150.chk"
 ------------------------------------------------------------
 Candidate Structure: Conf:150 OPT and FREQ calc in gas phase
 ------------------------------------------------------------
 Charge =  0 Multiplicity = 1

                          Input orientation:
 ---------------------------------------------------------------------
 Center     Atomic      Atomic             Coordinates (Angstroms)
 Number     Number       Type             X           Y           Z
 ---------------------------------------------------------------------
      1          8           0       -1.110212   -1.877389   -0.782958
      2          6           0       -1.271675   -0.740334   -0.350511
      3          7           0       -0.372837   -0.159806    0.501338
      4          6           0        0.723804   -0.931052    1.056396
      5          6           0        1.167201   -0.235162    2.330774
      6          8           0        2.180954   -0.884297    2.929121
      7          8           0        0.678215    0.787255    2.762240
      8          6           0        1.906632   -1.081067    0.064945
      9          6           0        2.583327    0.212397   -0.235641
     10          6           0        3.814801    0.716798    0.115091
     11          7           0        3.981943    1.999833   -0.361627
     12          6           0        2.861885    2.281529   -0.992598
     13          7           0        1.982633    1.234912   -0.950108
     14          6           0       -2.440613    0.140840   -0.765326
     15          6           0       -3.696062   -0.681265   -1.053994
     16          7           0       -4.731935    0.177729   -1.631439
     17          1           0       -0.604468    0.688089    1.004218
     18          1           0        0.367769   -1.938224    1.305989
     19          1           0        2.429989   -0.356821    3.706854
     20          1           0        1.499361   -1.553964   -0.833961
     21          1           0        2.636977   -1.768315    0.497602
     22          1           0        4.589364    0.216779    0.679963
     23          1           0        2.632362    3.210479   -1.495550
     24          1           0        1.043093    1.209428   -1.314808
     25          1           0       -2.165388    0.676548   -1.682590
     26          1           0       -2.638076    0.905266   -0.003139
     27          1           0       -3.431574   -1.453622   -1.780526
     28          1           0       -3.999414   -1.209581   -0.133927
     29          1           0       -5.100482    0.803756   -0.918247
     30          1           0       -5.517263   -0.391130   -1.937047
 ---------------------------------------------------------------------

 SCF Done:  E(RB3LYP) =  -796.167894275     A.U. after    1 cycles

 Alpha  occ. eigenvalues --  -19.21924 -19.16412 -19.12421 -14.38673 -14.37142
 Alpha  occ. eigenvalues --  -14.31883 -14.30627 -10.34289 -10.29739 -10.25550
 Alpha  occ. eigenvalues --  -10.23496 -10.21636 -10.21429 -10.20937 -10.20183
 Alpha  occ. eigenvalues --  -10.19182  -1.13021  -1.04570  -1.03893  -1.00736
 Alpha  occ. eigenvalues --   -0.93799  -0.88627  -0.86425  -0.81046  -0.76481
 Alpha  occ. eigenvalues --   -0.73795  -0.68222  -0.64886  -0.61143  -0.60608
 Alpha  occ. eigenvalues --   -0.59537  -0.58395  -0.53335  -0.53128  -0.50866
 Alpha  occ. eigenvalues --   -0.49912  -0.49406  -0.48200  -0.46815  -0.45599
 Alpha  occ. eigenvalues --   -0.44931  -0.43668  -0.43124  -0.41949  -0.41625
 Alpha  occ. eigenvalues --   -0.40173  -0.40058  -0.39495  -0.38668  -0.38226
 Alpha  occ. eigenvalues --   -0.35855  -0.35001  -0.34089  -0.30148  -0.27668
 Alpha  occ. eigenvalues --   -0.27212  -0.26149  -0.25949  -0.24212  -0.21991
 Alpha virt. eigenvalues --   -0.01174   0.01234   0.02877   0.05811   0.06261
 Alpha virt. eigenvalues --    0.07202   0.07573   0.09476   0.12198   0.13430
 Alpha virt. eigenvalues --    0.13758   0.14394   0.15033   0.15614   0.15827

 Mulliken charges:
               1
     1  O   -0.522420
     2  C    0.583937
     3  N   -0.553299
     4  C    0.011984
     5  C    0.596844
     6  O   -0.479490
     7  O   -0.474518
     8  C   -0.244712
     9  C    0.268957
    10  C   -0.012672
    11  N   -0.443515
    12  C    0.261543
    13  N   -0.523245
    14  C   -0.255947
    15  C   -0.053821
    16  N   -0.607438
    17  H    0.281306
    18  H    0.155662
    19  H    0.334007
    20  H    0.148955
    21  H    0.134127
    22  H    0.086184
    23  H    0.111178
    24  H    0.262161
    25  H    0.141613
    26  H    0.095650
    27  H    0.136159
    28  H    0.084442
    29  H    0.234538
    30  H    0.241831
 Sum of Mulliken charges =   0.00000

 Dipole moment (field-independent basis, Debye):
    X=             -3.2576    Y=             -0.4083    Z=              1.7495  Tot=              3.7202
 Quadrupole moment (field-independent basis, Debye-Ang):
   XX=            -95.7701   YY=            -99.7238   ZZ=            -89.3531
   XY=            -10.6474   XZ=              3.1933   YZ=             -6.0181

  Exact polarizability: 144.319   6.093 119.629  21.765  -5.790 103.401
 Approx polarizability: 190.450   1.359 201.760  28.703   0.108 150.812

                      1                      2                      3
                      A                      A                      A
 Frequencies --     14.4226                25.7432                48.7492
 Red. masses --      3.5937                 3.9150                 4.3965
 Frc consts  --      0.0004                 0.0015                 0.0062
 IR Inten    --      0.7618                 2.7317                 8.7139

                      4                      5                      6
                      A                      A                      A
 Frequencies --     51.4710                64.6982                72.5204
 Red. masses --      3.5007                 7.7033                 4.9582
 Frc consts  --      0.0055                 0.0190                 0.0154
 IR Inten    --      3.0984                 0.3055                 2.4078

                      7                      8                      9
                      A                      A                      A
 Frequencies --     76.6620               125.9499               128.2454
 Red. masses --      5.0572                 4.3106                 4.4640
 Frc consts  --      0.0175                 0.0403                 0.0433
 IR Inten    --      0.9856                 5.3580                 3.5264

                     10                     11                     12
                      A                      A                      A
 Frequencies --    190.8939               219.4681               254.9428
 Red. masses --      5.2248                 3.5191                 2.5626
 Frc consts  --      0.1122                 0.0999                 0.0981
 IR Inten    --      1.5738                16.7939                14.8467

                     13                     14                     15
                      A                      A                      A
 Frequencies --    271.8063               309.0322               330.8990
 Red. masses --      1.7316                 5.1014                 6.0300
 Frc consts  --      0.0754                 0.2870                 0.3890
 IR Inten    --     47.1148                 1.3264                 3.1384

                     16                     17                     18
                      A                      A                      A
 Frequencies --    370.2166               399.4372               472.3219
 Red. masses --      2.3659                 3.5668                 3.0602
 Frc consts  --      0.1911                 0.3353                 0.4022
 IR Inten    --      3.4659                 5.7321                18.2071

                     19                     20                     21
                      A                      A                      A
 Frequencies --    493.2765               545.0125               576.2546
 Red. masses --      1.3545                 3.2364                 1.7039
 Frc consts  --      0.1942                 0.5664                 0.3334
 IR Inten    --    129.1032                20.9860                15.5203

                     22                     23                     24
                      A                      A                      A
 Frequencies --    594.5145               622.9692               644.6574
 Red. masses --      3.1580                 2.0745                 1.9963
 Frc consts  --      0.6576                 0.4744                 0.4888
 IR Inten    --     39.4451                78.4169                 2.5582

                     25                     26                     27
                      A                      A                      A
 Frequencies --    661.9441               684.2240               702.7385
 Red. masses --      2.2882                 2.6720                 3.0482
 Frc consts  --      0.5907                 0.7370                 0.8869
 IR Inten    --     14.0705                 1.4835                62.3905

                     28                     29                     30
                      A                      A                      A
 Frequencies --    738.3123               782.9160               799.4277
 Red. masses --      4.1723                 2.4324                 1.3835
 Frc consts  --      1.3400                 0.8784                 0.5209
 IR Inten    --     13.1678                30.2850                12.3407

                     31                     32                     33
                      A                      A                      A
 Frequencies --    809.7217               842.4703               865.2348
 Red. masses --      1.5478                 1.4321                 1.4286
 Frc consts  --      0.5979                 0.5989                 0.6301
 IR Inten    --     10.0390                14.7998               118.7678

                     34                     35                     36
                      A                      A                      A
 Frequencies --    881.8070               927.6563               941.3648
 Red. masses --      2.4758                 3.3816                 5.2320
 Frc consts  --      1.1343                 1.7145                 2.7317
 IR Inten    --     10.9781                 9.1685                15.3684

                     37                     38                     39
                      A                      A                      A
 Frequencies --    973.1514               991.8502              1025.8406
 Red. masses --      2.9848                 2.0519                 2.6640
 Frc consts  --      1.6654                 1.1893                 1.6518
 IR Inten    --      8.0891                 5.1091                29.0914

                     40                     41                     42
                      A                      A                      A
 Frequencies --   1032.7709              1069.0062              1102.6535
 Red. masses --      3.0681                 2.6367                 1.9751
 Frc consts  --      1.9281                 1.7753                 1.4149
 IR Inten    --      1.2695                21.3952                20.4096

                     43                     44                     45
                      A                      A                      A
 Frequencies --   1115.3484              1122.8312              1152.7268
 Red. masses --      1.5364                 2.2386                 2.0456
 Frc consts  --      1.1261                 1.6629                 1.6015
 IR Inten    --     15.9868                41.4956                 9.8235

                     46                     47                     48
                      A                      A                      A
 Frequencies --   1165.1996              1190.4776              1211.6623
 Red. masses --      1.5161                 2.0692                 1.4480
 Frc consts  --      1.2127                 1.7278                 1.2525
 IR Inten    --     22.0880               193.3442                 1.2998

                     49                     50                     51
                      A                      A                      A
 Frequencies --   1238.3746              1256.8121              1268.7594
 Red. masses --      1.7090                 1.5924                 1.8441
 Frc consts  --      1.5442                 1.4820                 1.7491
 IR Inten    --     22.7918                 8.2849                 5.1419

                     52                     53                     54
                      A                      A                      A
 Frequencies --   1274.0371              1294.0431              1320.6155
 Red. masses --      1.6608                 1.3276                 1.4337
 Frc consts  --      1.5883                 1.3098                 1.4732
 IR Inten    --     21.8330                 8.4099                 3.4757

                     55                     56                     57
                      A                      A                      A
 Frequencies --   1343.1523              1368.8712              1381.9801
 Red. masses --      1.1197                 1.4878                 1.6239
 Frc consts  --      1.1901                 1.6425                 1.8273
 IR Inten    --      7.6804                 4.2731                11.2240

                     58                     59                     60
                      A                      A                      A
 Frequencies --   1400.3093              1427.3085              1437.9902
 Red. masses --      2.6980                 2.5140                 1.9576
 Frc consts  --      3.1170                 3.0175                 2.3850
 IR Inten    --     23.2527               129.2495                32.9752

                     61                     62                     63
                      A                      A                      A
 Frequencies --   1441.0559              1482.0331              1495.8901
 Red. masses --      2.3872                 1.0955                 1.1560
 Frc consts  --      2.9208                 1.4177                 1.5241
 IR Inten    --     60.6151                 6.9614                13.1007

                     64                     65                     66
                      A                      A                      A
 Frequencies --   1514.5239              1529.7110              1532.2808
 Red. masses --      3.5872                 1.0882                 2.2822
 Frc consts  --      4.8479                 1.5003                 3.1571
 IR Inten    --     77.5096                 3.9531               262.3061

                     67                     68                     69
                      A                      A                      A
 Frequencies --   1625.7870              1671.5556              1768.2067
 Red. masses --      4.7370                 1.0906                 9.9209
 Frc consts  --      7.3769                 1.7954                18.2755
 IR Inten    --      8.1838                21.4639               206.9655

                     70                     71                     72
                      A                      A                      A
 Frequencies --   1837.7752              2965.5020              3036.4904
 Red. masses --     10.0028                 1.0741                 1.0602
 Frc consts  --     19.9048                 5.5653                 5.7596
 IR Inten    --    194.3137                69.0611                17.9135

                     73                     74                     75
                      A                      A                      A
 Frequencies --   3056.5948              3076.7645              3077.3852
 Red. masses --      1.0822                 1.1003                 1.0639
 Frc consts  --      5.9568                 6.1367                 5.9363
 IR Inten    --     10.9907                12.8843                 9.6743

                     76                     77                     78
                      A                      A                      A
 Frequencies --   3114.4878              3133.3945              3251.1580
 Red. masses --      1.0906                 1.1020                 1.0958
 Frc consts  --      6.2329                 6.3749                 6.8243
 IR Inten    --     17.7252                 6.2181                 8.0418

                     79                     80                     81
                      A                      A                      A
 Frequencies --   3260.2789              3488.8994              3574.0034
 Red. masses --      1.0979                 1.0503                 1.0918
 Frc consts  --      6.8761                 7.5327                 8.2169
 IR Inten    --      1.2085                 1.6184                 0.1014

                     82                     83                     84
                      A                      A                      A
 Frequencies --   3597.8359              3671.8610              3757.0453
 Red. masses --      1.0776                 1.0811                 1.0643
 Frc consts  --      8.2186                 8.5875                 8.8510
 IR Inten    --     71.4302                51.1559                75.1838

 - Thermochemistry -
 -------------------
 Temperature   298.150 Kelvin.  Pressure   1.00000 Atm.
 Atom     1 has atomic number  8 and mass  15.99491

 Molecular mass:   226.10659 amu.
 Principal axes and moments of inertia in atomic units:
                           1         2         3
     Eigenvalues --  2231.026256304.405977322.27157
           X            0.95259  -0.12012  -0.27954
           Y            0.18360  -0.50570   0.84295
           Z            0.24262   0.85430   0.45967
 This molecule is an asymmetric top.
 Rotational symmetry number  1.
 Warning -- assumption of classical behavior for rotation
           may cause significant error
 Rotational temperatures (Kelvin)      0.03882     0.01374     0.01183
 Rotational constants (GHZ):           0.80893     0.28627     0.24647
 Zero-point vibrational energy     643999.3 (Joules/Mol)
                                  153.91952 (Kcal/Mol)
 Warning -- explicit consideration of  22 degrees of freedom as
           vibrations may cause significant error
 Vibrational temperatures:     20.75    37.04    70.14    74.06    93.09
          (Kelvin)            104.34   110.30   181.21   184.52   274.65
                              315.77   366.81   391.07   444.63   476.09
                              532.66   574.70   679.57   709.71   784.15
                              829.10   855.37   896.31   927.52   952.39
                              984.44  1011.08  1062.27  1126.44  1150.20
                             1165.01  1212.13  1244.88  1268.72  1334.69
                             1354.41  1400.15  1427.05  1475.95  1485.93
                             1538.06  1586.47  1604.74  1615.50  1658.51
                             1676.46  1712.83  1743.31  1781.74  1808.27
                             1825.46  1833.05  1861.84  1900.07  1932.49
                             1969.50  1988.36  2014.73  2053.58  2068.94
                             2073.36  2132.31  2152.25  2179.06  2200.91
                             2204.61  2339.14  2404.99  2544.05  2644.15
                             4266.69  4368.83  4397.75  4426.77  4427.67
                             4481.05  4508.25  4677.69  4690.81  5019.74
                             5142.19  5176.48  5282.98  5405.54

 Zero-point correction=                           0.245286 (Hartree/Particle)
 Thermal correction to Energy=                    0.261552
 Thermal correction to Enthalpy=                  0.262496
 Thermal correction to Gibbs Free Energy=         0.197804
 Sum of electronic and zero-point Energies=           -795.922608
 Sum of electronic and thermal Energies=              -795.906342
 Sum of electronic and thermal Enthalpies=            -795.905398
 Sum of electronic and thermal Free Energies=         -795.970090

                     E (Thermal)             CV                S
                      KCal/Mol        Cal/Mol-Kelvin    Cal/Mol-Kelvin
 Total                  164.127             58.403            136.157
 Electronic               0.000              0.000              0.000
 Translational            0.889              2.981             42.150
 Rotational               0.889              2.981             32.999
 Vibrational            162.349             52.441             61.009
 Vibration     1          0.593              1.986              7.284
 Vibration     2          0.593              1.985              6.133
 Vibration     3          0.595              1.978              4.868
 Vibration     4          0.596              1.977              4.760
 Vibration     5          0.597              1.971              4.309
 Vibration     6          0.599              1.967              4.084
 Vibration     7          0.599              1.965              3.975
 Vibration     8          0.611              1.927              3.007
 Vibration     9          0.611              1.925              2.972
 Vibration    10          0.634              1.852              2.219
 Vibration    11          0.647              1.811              1.963
 Vibration    12          0.665              1.754              1.696
 Vibration    13          0.675              1.725              1.585
 Vibration    14          0.698              1.657              1.368
 Vibration    15          0.713              1.614              1.256
 Vibration    16          0.742              1.533              1.079
 Vibration    17          0.765              1.471              0.965
 Vibration    18          0.829              1.311              0.731
 Vibration    19          0.849              1.265              0.675
 Vibration    20          0.900              1.151              0.555
 Vibration    21          0.933              1.083              0.492
 Vibration    22          0.952              1.043              0.459

 Optimization completed.
    -- Stationary point found.
 Normal termination of Gaussian 09 at Sat Jul 24 01:36:42 2021.
