 Gaussian 09, Revision D.01,
 Gaussian 09:  ES64L-G09RevD.01 24-Apr-2013

 ----------------------------------------------------------------------
 # B3LYP/6-31G(d,p) EmpiricalDispersion=GD3BJ opt=calcfc freq=noraman n
 osymm integral(ultrafinegrid)
 ----------------------------------------------------------------------

 ------------------------------------------------------------
 Candidate Structure: Conf:801 OPT and FREQ calc in gas phase
 ------------------------------------------------------------
 Symbolic Z-matrix:
 Charge =  0 Multiplicity = 1

 SCF Done:  E(RB3LYP) =  -796.157076048     A.U. after   14 cycles
 SCF Done:  E(RB3LYP) =  -796.160329929     A.U. after   15 cycles
 SCF Done:  E(RB3LYP) =  -796.124276997     A.U. after   15 cycles
 SCF Done:  E(RB3LYP) =  -796.160333047     A.U. after    8 cycles
 SCF Done:  E(RB3LYP) =  -796.160845210     A.U. after   14 cycles
 SCF Done:  E(RB3LYP) =  -796.133562150     A.U. after   14 cycles
 SCF Done:  E(RB3LYP) =  -796.160847138     A.U. after    8 cycles
 SCF Done:  E(RB3LYP) =  -796.161411908     A.U. after   12 cycles
 SCF Done:  E(RB3LYP) =  -796.161505456     A.U. after   12 cycles
 SCF Done:  E(RB3LYP) =  -796.161617864     A.U. after   11 cycles
 SCF Done:  E(RB3LYP) =  -796.161694341     A.U. after   11 cycles
 SCF Done:  E(RB3LYP) =  -796.161740300     A.U. after   11 cycles
 SCF Done:  E(RB3LYP) =  -796.161770186     A.U. after   11 cycles
 SCF Done:  E(RB3LYP) =  -796.161785919     A.U. after   10 cycles
 SCF Done:  E(RB3LYP) =  -796.161795847     A.U. after   10 cycles
 SCF Done:  E(RB3LYP) =  -796.161798884     A.U. after   10 cycles
 SCF Done:  E(RB3LYP) =  -796.161799082     A.U. after    8 cycles
 SCF Done:  E(RB3LYP) =  -796.161799126     A.U. after    7 cycles
 Optimization completed.
    -- Stationary point found.
 Normal termination of Gaussian 09 at Sat Jul 24 01:20:16 2021.

 ----------------------------------------------------------------------
 #N Geom=AllCheck Guess=TCheck SCRF=Check GenChk RB3LYP/6-31G(d,p) Freq
 ----------------------------------------------------------------------

 Structure from the checkpoint file:  "conf-801.chk"
 ------------------------------------------------------------
 Candidate Structure: Conf:801 OPT and FREQ calc in gas phase
 ------------------------------------------------------------
 Charge =  0 Multiplicity = 1

                          Input orientation:
 ---------------------------------------------------------------------
 Center     Atomic      Atomic             Coordinates (Angstroms)
 Number     Number       Type             X           Y           Z
 ---------------------------------------------------------------------
      1          8           0        1.490051    0.886864   -1.057923
      2          6           0        1.760372    0.252141   -0.040331
      3          7           0        0.800091   -0.087356    0.866155
      4          6           0       -0.550968    0.402417    0.737491
      5          6           0       -1.229487    0.257975    2.102531
      6          8           0       -2.440494    0.822801    2.227434
      7          8           0       -0.718855   -0.340972    3.022472
      8          6           0       -1.321249   -0.354325   -0.384774
      9          6           0       -2.709511    0.158016   -0.595036
     10          6           0       -3.198748    1.398439   -0.957136
     11          7           0       -4.579654    1.409575   -0.943413
     12          6           0       -4.932841    0.197009   -0.577738
     13          7           0       -3.841950   -0.597254   -0.350723
     14          6           0        3.172478   -0.194305    0.300976
     15          6           0        3.981221   -0.523798   -0.953054
     16          7           0        5.379930   -0.769035   -0.595633
     17          1           0        1.023214   -0.528569    1.749589
     18          1           0       -0.526032    1.462986    0.455755
     19          1           0       -2.721256    1.215099    1.378453
     20          1           0       -1.335195   -1.421218   -0.138396
     21          1           0       -0.720601   -0.230656   -1.289161
     22          1           0       -2.629810    2.269985   -1.250734
     23          1           0       -5.945274   -0.161801   -0.458675
     24          1           0       -3.851204   -1.555659   -0.035426
     25          1           0        3.149105   -1.048841    0.988790
     26          1           0        3.674674    0.624204    0.830978
     27          1           0        3.933461    0.340635   -1.620091
     28          1           0        3.492706   -1.357229   -1.487297
     29          1           0        5.459768   -1.650822   -0.093203
     30          1           0        5.935829   -0.876405   -1.440163
 ---------------------------------------------------------------------

 SCF Done:  E(RB3LYP) =  -796.161799126     A.U. after    1 cycles

 Alpha  occ. eigenvalues --  -19.20493 -19.15165 -19.11876 -14.41005 -14.36682
 Alpha  occ. eigenvalues --  -14.32801 -14.31517 -10.33451 -10.29256 -10.25887
 Alpha  occ. eigenvalues --  -10.25543 -10.24195 -10.22313 -10.21449 -10.21025
 Alpha  occ. eigenvalues --  -10.19558  -1.11477  -1.04020  -1.03339  -1.02925
 Alpha  occ. eigenvalues --   -0.93478  -0.88651  -0.88241  -0.81693  -0.76799
 Alpha  occ. eigenvalues --   -0.73914  -0.68630  -0.63604  -0.63071  -0.61743
 Alpha  occ. eigenvalues --   -0.60716  -0.58894  -0.56312  -0.54243  -0.50239
 Alpha  occ. eigenvalues --   -0.49850  -0.48301  -0.48027  -0.46551  -0.45839
 Alpha  occ. eigenvalues --   -0.45105  -0.44023  -0.43061  -0.42256  -0.42187
 Alpha  occ. eigenvalues --   -0.41813  -0.41083  -0.39188  -0.38714  -0.38393
 Alpha  occ. eigenvalues --   -0.35242  -0.34566  -0.32976  -0.29840  -0.29051
 Alpha  occ. eigenvalues --   -0.28025  -0.26881  -0.25638  -0.24099  -0.23806
 Alpha virt. eigenvalues --   -0.01033   0.01111   0.02048   0.04041   0.05862
 Alpha virt. eigenvalues --    0.07820   0.08910   0.09222   0.10887   0.11460
 Alpha virt. eigenvalues --    0.13140   0.13772   0.14327   0.15298   0.16104

 Mulliken charges:
               1
     1  O   -0.535060
     2  C    0.597630
     3  N   -0.545730
     4  C   -0.021290
     5  C    0.595804
     6  O   -0.480851
     7  O   -0.460986
     8  C   -0.222459
     9  C    0.221057
    10  C   -0.041318
    11  N   -0.427972
    12  C    0.262034
    13  N   -0.512684
    14  C   -0.255703
    15  C   -0.054083
    16  N   -0.606016
    17  H    0.281179
    18  H    0.148205
    19  H    0.335494
    20  H    0.107738
    21  H    0.174026
    22  H    0.110900
    23  H    0.124605
    24  H    0.271784
    25  H    0.094605
    26  H    0.150133
    27  H    0.135587
    28  H    0.079748
    29  H    0.233388
    30  H    0.240238
 Sum of Mulliken charges =   0.00000

 Dipole moment (field-independent basis, Debye):
    X=              0.0278    Y=             -4.4251    Z=             -0.8940  Tot=              4.5146
 Quadrupole moment (field-independent basis, Debye-Ang):
   XX=            -90.2663   YY=            -89.1605   ZZ=           -108.1178
   XY=              5.4406   XZ=             -1.4794   YZ=              5.0798

  Exact polarizability: 169.015 -10.394 101.497   0.918 -13.123 102.923
 Approx polarizability: 207.774 -13.065 176.047   4.397 -34.383 163.171

                      1                      2                      3
                      A                      A                      A
 Frequencies --     16.9617                26.9646                45.9603
 Red. masses --      3.6154                 5.0052                 5.0889
 Frc consts  --      0.0006                 0.0021                 0.0063
 IR Inten    --      0.2469                 1.7659                 2.0889

                      4                      5                      6
                      A                      A                      A
 Frequencies --     53.4275                77.0782                81.7714
 Red. masses --      2.2731                 5.9900                 5.0926
 Frc consts  --      0.0038                 0.0210                 0.0201
 IR Inten    --      5.4355                 9.8345                 5.2901

                      7                      8                      9
                      A                      A                      A
 Frequencies --     93.8979               101.5684               156.8993
 Red. masses --      4.6760                 7.4460                 4.0379
 Frc consts  --      0.0243                 0.0453                 0.0586
 IR Inten    --      1.0154                 2.5614                 7.5911

                     10                     11                     12
                      A                      A                      A
 Frequencies --    187.5631               215.4380               262.7243
 Red. masses --      4.6709                 4.7890                 1.2485
 Frc consts  --      0.0968                 0.1310                 0.0508
 IR Inten    --      9.3165                13.4735                50.0756

                     13                     14                     15
                      A                      A                      A
 Frequencies --    283.4322               326.2189               333.4486
 Red. masses --      4.8635                 6.0768                 2.5074
 Frc consts  --      0.2302                 0.3810                 0.1643
 IR Inten    --      4.6750                 2.7942                 3.5294

                     16                     17                     18
                      A                      A                      A
 Frequencies --    348.2914               392.0894               402.7440
 Red. masses --      5.7610                 4.3189                 3.9740
 Frc consts  --      0.4118                 0.3912                 0.3798
 IR Inten    --      8.6687                15.6666                 3.5676

                     19                     20                     21
                      A                      A                      A
 Frequencies --    526.8547               541.0502               557.8592
 Red. masses --      1.6425                 1.3996                 2.4046
 Frc consts  --      0.2686                 0.2414                 0.4409
 IR Inten    --     70.4727                72.6684                28.7410

                     22                     23                     24
                      A                      A                      A
 Frequencies --    619.2874               643.8240               651.4955
 Red. masses --      2.9775                 2.2774                 1.5305
 Frc consts  --      0.6728                 0.5562                 0.3827
 IR Inten    --     48.5719                 8.2493                43.3791

                     25                     26                     27
                      A                      A                      A
 Frequencies --    672.3941               682.1931               730.5973
 Red. masses --      2.9749                 3.2160                 3.0099
 Frc consts  --      0.7925                 0.8818                 0.9466
 IR Inten    --     13.5864                13.4720                13.6698

                     28                     29                     30
                      A                      A                      A
 Frequencies --    748.6278               768.6775               804.5574
 Red. masses --      3.5371                 3.7655                 1.4491
 Frc consts  --      1.1680                 1.3109                 0.5527
 IR Inten    --     13.2299                 8.3764                10.1959

                     31                     32                     33
                      A                      A                      A
 Frequencies --    812.3316               829.9392               852.5893
 Red. masses --      1.4087                 2.3275                 1.4218
 Frc consts  --      0.5477                 0.9446                 0.6090
 IR Inten    --     19.9522                 4.1473                25.4749

                     34                     35                     36
                      A                      A                      A
 Frequencies --    864.9767               940.7608               956.5764
 Red. masses --      1.3171                 5.9085                 3.0764
 Frc consts  --      0.5806                 3.0810                 1.6585
 IR Inten    --    130.3245                12.6571                24.0865

                     37                     38                     39
                      A                      A                      A
 Frequencies --    989.6856              1013.7301              1032.3501
 Red. masses --      2.1157                 3.2102                 3.4342
 Frc consts  --      1.2209                 1.9437                 2.1564
 IR Inten    --      4.1801                 4.2361                 9.4035

                     40                     41                     42
                      A                      A                      A
 Frequencies --   1042.0418              1070.5571              1105.0069
 Red. masses --      3.5001                 2.6624                 2.0295
 Frc consts  --      2.2392                 1.7978                 1.4600
 IR Inten    --      7.9332                21.2582                18.6893

                     43                     44                     45
                      A                      A                      A
 Frequencies --   1116.5377              1136.3461              1150.9159
 Red. masses --      1.5762                 1.9596                 2.2054
 Frc consts  --      1.1577                 1.4909                 1.7212
 IR Inten    --     13.8691                13.3729                10.3240

                     46                     47                     48
                      A                      A                      A
 Frequencies --   1165.0983              1179.8299              1219.2729
 Red. masses --      1.3505                 1.9708                 1.6062
 Frc consts  --      1.0801                 1.6163                 1.4068
 IR Inten    --      5.6070                10.8823                36.3539

                     49                     50                     51
                      A                      A                      A
 Frequencies --   1233.0838              1261.5374              1268.7414
 Red. masses --      1.8692                 1.7953                 1.5012
 Frc consts  --      1.6745                 1.6834                 1.4238
 IR Inten    --      3.5991                14.8774                12.7550

                     52                     53                     54
                      A                      A                      A
 Frequencies --   1285.8422              1313.5426              1328.8114
 Red. masses --      1.4565                 1.4488                 1.4160
 Frc consts  --      1.4189                 1.4728                 1.4732
 IR Inten    --      1.2814                 8.7928                51.9613

                     55                     56                     57
                      A                      A                      A
 Frequencies --   1342.0067              1367.4704              1369.3577
 Red. masses --      1.1178                 1.3786                 1.5343
 Frc consts  --      1.1862                 1.5189                 1.6951
 IR Inten    --     19.2345                 7.1389               177.4580

                     58                     59                     60
                      A                      A                      A
 Frequencies --   1407.3460              1416.9727              1438.9608
 Red. masses --      2.6586                 2.1065                 1.5789
 Frc consts  --      3.1025                 2.4919                 1.9262
 IR Inten    --     26.7224               145.5347                48.6716

                     61                     62                     63
                      A                      A                      A
 Frequencies --   1442.8031              1482.0787              1499.3500
 Red. masses --      3.3412                 1.0938                 1.2144
 Frc consts  --      4.0980                 1.4156                 1.6085
 IR Inten    --     24.7882                 5.4564                10.2536

                     64                     65                     66
                      A                      A                      A
 Frequencies --   1506.3884              1530.2196              1534.8013
 Red. masses --      3.2857                 1.0845                 2.4775
 Frc consts  --      4.3929                 1.4962                 3.4385
 IR Inten    --     21.6039                 0.9541               355.1534

                     67                     68                     69
                      A                      A                      A
 Frequencies --   1609.7538              1670.8169              1759.4627
 Red. masses --      4.2116                 1.0909                 9.9181
 Frc consts  --      6.4301                 1.7943                18.0899
 IR Inten    --     11.8005                20.8334               193.3464

                     70                     71                     72
                      A                      A                      A
 Frequencies --   1854.6393              2959.6092              3040.0650
 Red. masses --      9.5755                 1.0742                 1.0611
 Frc consts  --     19.4058                 5.5436                 5.7780
 IR Inten    --    260.7758                74.8278                17.0512

                     73                     74                     75
                      A                      A                      A
 Frequencies --   3045.1435              3066.9637              3083.0746
 Red. masses --      1.0819                 1.0638                 1.0990
 Frc consts  --      5.9108                 5.8958                 6.1545
 IR Inten    --      8.7529                17.4736                 8.8279

                     76                     77                     78
                      A                      A                      A
 Frequencies --   3113.7511              3124.6521              3251.9418
 Red. masses --      1.0908                 1.1027                 1.0961
 Frc consts  --      6.2311                 6.3431                 6.8297
 IR Inten    --     18.9005                 2.6967                 3.5279

                     79                     80                     81
                      A                      A                      A
 Frequencies --   3266.5981              3488.1896              3573.4815
 Red. masses --      1.0981                 1.0502                 1.0919
 Frc consts  --      6.9037                 7.5289                 8.2149
 IR Inten    --      0.7840                 1.9881                 0.1819

                     82                     83                     84
                      A                      A                      A
 Frequencies --   3602.3145              3628.6137              3661.2578
 Red. masses --      1.0777                 1.0669                 1.0814
 Frc consts  --      8.2400                 8.2767                 8.5409
 IR Inten    --     70.2986               289.6550                52.8924

 - Thermochemistry -
 -------------------
 Temperature   298.150 Kelvin.  Pressure   1.00000 Atm.
 Atom     1 has atomic number  8 and mass  15.99491

 Molecular mass:   226.10659 amu.
 Principal axes and moments of inertia in atomic units:
                           1         2         3
     Eigenvalues --  1642.755127833.932448862.98867
           X            0.99311   0.02457   0.11458
           Y           -0.11165  -0.09854   0.98885
           Z           -0.03559   0.99483   0.09512
 This molecule is an asymmetric top.
 Rotational symmetry number  1.
 Warning -- assumption of classical behavior for rotation
           may cause significant error
 Rotational temperatures (Kelvin)      0.05272     0.01106     0.00977
 Rotational constants (GHZ):           1.09861     0.23037     0.20363
 Zero-point vibrational energy     643962.3 (Joules/Mol)
                                  153.91068 (Kcal/Mol)
 Warning -- explicit consideration of  22 degrees of freedom as
           vibrations may cause significant error
 Vibrational temperatures:     24.40    38.80    66.13    76.87   110.90
          (Kelvin)            117.65   135.10   146.13   225.74   269.86
                              309.97   378.00   407.80   469.36   479.76
                              501.11   564.13   579.46   758.03   778.45
                              802.63   891.02   926.32   937.36   967.42
                              981.52  1051.17  1077.11  1105.95  1157.58
                             1168.76  1194.10  1226.68  1244.51  1353.54
                             1376.30  1423.94  1458.53  1485.32  1499.26
                             1540.29  1589.86  1606.45  1634.95  1655.91
                             1676.31  1697.51  1754.26  1774.13  1815.07
                             1825.43  1850.04  1889.89  1911.86  1930.85
                             1967.48  1970.20  2024.85  2038.71  2070.34
                             2075.87  2132.38  2157.23  2167.35  2201.64
                             2208.23  2316.07  2403.93  2531.47  2668.41
                             4258.21  4373.97  4381.28  4412.67  4435.85
                             4479.99  4495.67  4678.81  4699.90  5018.72
                             5141.44  5182.92  5220.76  5267.73

 Zero-point correction=                           0.245272 (Hartree/Particle)
 Thermal correction to Energy=                    0.261445
 Thermal correction to Enthalpy=                  0.262390
 Thermal correction to Gibbs Free Energy=         0.198271
 Sum of electronic and zero-point Energies=           -795.916527
 Sum of electronic and thermal Energies=              -795.900354
 Sum of electronic and thermal Enthalpies=            -795.899410
 Sum of electronic and thermal Free Energies=         -795.963528

                     E (Thermal)             CV                S
                      KCal/Mol        Cal/Mol-Kelvin    Cal/Mol-Kelvin
 Total                  164.059             58.258            134.948
 Electronic               0.000              0.000              0.000
 Translational            0.889              2.981             42.150
 Rotational               0.889              2.981             33.100
 Vibrational            162.282             52.297             59.698
 Vibration     1          0.593              1.986              6.961
 Vibration     2          0.593              1.984              6.041
 Vibration     3          0.595              1.979              4.984
 Vibration     4          0.596              1.976              4.686
 Vibration     5          0.599              1.964              3.964
 Vibration     6          0.600              1.962              3.848
 Vibration     7          0.603              1.954              3.577
 Vibration     8          0.604              1.948              3.424
 Vibration     9          0.621              1.895              2.587
 Vibration    10          0.632              1.857              2.252
 Vibration    11          0.645              1.817              1.997
 Vibration    12          0.670              1.741              1.644
 Vibration    13          0.682              1.704              1.513
 Vibration    14          0.710              1.623              1.279
 Vibration    15          0.715              1.609              1.243
 Vibration    16          0.726              1.579              1.174
 Vibration    17          0.760              1.487              0.992
 Vibration    18          0.768              1.464              0.953
 Vibration    19          0.882              1.191              0.594
 Vibration    20          0.896              1.159              0.563
 Vibration    21          0.913              1.123              0.528
 Vibration    22          0.979              0.991              0.418

 Optimization completed.
    -- Stationary point found.
 Normal termination of Gaussian 09 at Sat Jul 24 01:38:30 2021.
