 Gaussian 09, Revision D.01,
 Gaussian 09:  ES64L-G09RevD.01 24-Apr-2013

 ----------------------------------------------------------------------
 # B3LYP/6-31G(d,p) EmpiricalDispersion=GD3BJ opt=calcfc freq=noraman n
 osymm integral(ultrafinegrid)
 ----------------------------------------------------------------------

 ------------------------------------------------------------
 Candidate Structure: Conf:591 OPT and FREQ calc in gas phase
 ------------------------------------------------------------
 Symbolic Z-matrix:
 Charge =  0 Multiplicity = 1

 SCF Done:  E(RB3LYP) =  -796.161409415     A.U. after   14 cycles
 SCF Done:  E(RB3LYP) =  -796.163765457     A.U. after   13 cycles
 SCF Done:  E(RB3LYP) =  -796.163443488     A.U. after   15 cycles
 SCF Done:  E(RB3LYP) =  -796.164070526     A.U. after   11 cycles
 SCF Done:  E(RB3LYP) =  -796.164286373     A.U. after   12 cycles
 SCF Done:  E(RB3LYP) =  -796.164522440     A.U. after   12 cycles
 SCF Done:  E(RB3LYP) =  -796.166654548     A.U. after   15 cycles
 SCF Done:  E(RB3LYP) =  -796.165592709     A.U. after   14 cycles
 SCF Done:  E(RB3LYP) =  -796.166687248     A.U. after    9 cycles
 SCF Done:  E(RB3LYP) =  -796.166715584     A.U. after   12 cycles
 SCF Done:  E(RB3LYP) =  -796.169752314     A.U. after   11 cycles
 SCF Done:  E(RB3LYP) =  -796.170031101     A.U. after   12 cycles
 SCF Done:  E(RB3LYP) =  -796.170445356     A.U. after   11 cycles
 SCF Done:  E(RB3LYP) =  -796.170582348     A.U. after   11 cycles
 SCF Done:  E(RB3LYP) =  -796.170593115     A.U. after   10 cycles
 SCF Done:  E(RB3LYP) =  -796.170594340     A.U. after    8 cycles
 SCF Done:  E(RB3LYP) =  -796.170594713     A.U. after    8 cycles
 SCF Done:  E(RB3LYP) =  -796.170594846     A.U. after    7 cycles
 SCF Done:  E(RB3LYP) =  -796.170594917     A.U. after    7 cycles
 Optimization completed.
    -- Stationary point found.
 Normal termination of Gaussian 09 at Sat Jul 24 01:46:05 2021.

 ----------------------------------------------------------------------
 #N Geom=AllCheck Guess=TCheck SCRF=Check GenChk RB3LYP/6-31G(d,p) Freq
 ----------------------------------------------------------------------

 Structure from the checkpoint file:  "conf-591.chk"
 ------------------------------------------------------------
 Candidate Structure: Conf:591 OPT and FREQ calc in gas phase
 ------------------------------------------------------------
 Charge =  0 Multiplicity = 1

                          Input orientation:
 ---------------------------------------------------------------------
 Center     Atomic      Atomic             Coordinates (Angstroms)
 Number     Number       Type             X           Y           Z
 ---------------------------------------------------------------------
      1          8           0       -0.839032    0.226692   -0.986553
      2          6           0       -1.271052    0.063552    0.160086
      3          7           0       -0.471635   -0.274300    1.199008
      4          6           0        0.948424   -0.515642    1.043896
      5          6           0        1.407347   -1.267874    2.277976
      6          8           0        2.680227   -1.680989    2.160469
      7          8           0        0.725835   -1.459767    3.263743
      8          6           0        1.791913    0.798168    0.841729
      9          6           0        2.528806    0.835463   -0.451658
     10          6           0        3.861468    0.963235   -0.771564
     11          7           0        4.042008    0.942752   -2.137570
     12          6           0        2.829996    0.798317   -2.639480
     13          7           0        1.878229    0.731454   -1.665555
     14          6           0       -2.742831    0.235999    0.483236
     15          6           0       -3.630227   -0.513580   -0.516915
     16          7           0       -5.039572   -0.289804   -0.187190
     17          1           0       -0.857296   -0.467763    2.114570
     18          1           0        1.111930   -1.159707    0.174063
     19          1           0        2.911005   -2.127966    2.992445
     20          1           0        2.515654    0.911712    1.652482
     21          1           0        1.088833    1.634313    0.923404
     22          1           0        4.695606    1.069070   -0.091229
     23          1           0        2.586623    0.737025   -3.691076
     24          1           0        0.872539    0.586639   -1.744635
     25          1           0       -2.979682   -0.086936    1.501306
     26          1           0       -2.963188    1.310044    0.424506
     27          1           0       -3.430524   -1.588272   -0.433389
     28          1           0       -3.334054   -0.212717   -1.532336
     29          1           0       -5.626026   -0.871936   -0.779818
     30          1           0       -5.291300    0.672955   -0.403306
 ---------------------------------------------------------------------

 SCF Done:  E(RB3LYP) =  -796.170594917     A.U. after    1 cycles

 Alpha  occ. eigenvalues --  -19.22344 -19.16937 -19.13494 -14.37964 -14.36342
 Alpha  occ. eigenvalues --  -14.32162 -14.29307 -10.34832 -10.30656 -10.26055
 Alpha  occ. eigenvalues --  -10.22052 -10.21976 -10.21328 -10.20468 -10.20390
 Alpha  occ. eigenvalues --  -10.18091  -1.13508  -1.05308  -1.04445  -0.99160
 Alpha  occ. eigenvalues --   -0.94610  -0.88971  -0.84978  -0.80879  -0.76634
 Alpha  occ. eigenvalues --   -0.73669  -0.67767  -0.65399  -0.61484  -0.60264
 Alpha  occ. eigenvalues --   -0.59124  -0.57017  -0.53672  -0.53455  -0.51171
 Alpha  occ. eigenvalues --   -0.49770  -0.49420  -0.48348  -0.47569  -0.45964
 Alpha  occ. eigenvalues --   -0.45091  -0.44084  -0.42707  -0.42077  -0.40960
 Alpha  occ. eigenvalues --   -0.40006  -0.39023  -0.38844  -0.38640  -0.38108
 Alpha  occ. eigenvalues --   -0.37485  -0.35125  -0.34549  -0.30742  -0.28036
 Alpha  occ. eigenvalues --   -0.27581  -0.25928  -0.24772  -0.24212  -0.20847
 Alpha virt. eigenvalues --   -0.01858   0.00720   0.04110   0.05497   0.07413
 Alpha virt. eigenvalues --    0.07934   0.08467   0.11234   0.11691   0.12311
 Alpha virt. eigenvalues --    0.13164   0.14470   0.14824   0.15890   0.16770

 Mulliken charges:
               1
     1  O   -0.553703
     2  C    0.603720
     3  N   -0.538973
     4  C    0.026030
     5  C    0.559588
     6  O   -0.469417
     7  O   -0.471655
     8  C   -0.247880
     9  C    0.268323
    10  C   -0.013249
    11  N   -0.451785
    12  C    0.255419
    13  N   -0.530876
    14  C   -0.251922
    15  C   -0.054864
    16  N   -0.607309
    17  H    0.285368
    18  H    0.166627
    19  H    0.333484
    20  H    0.130339
    21  H    0.133893
    22  H    0.078143
    23  H    0.105297
    24  H    0.299413
    25  H    0.115399
    26  H    0.130186
    27  H    0.108504
    28  H    0.112518
    29  H    0.241980
    30  H    0.237402
 Sum of Mulliken charges =   0.00000

 Dipole moment (field-independent basis, Debye):
    X=             -3.6783    Y=             -1.0609    Z=              2.4350  Tot=              4.5371
 Quadrupole moment (field-independent basis, Debye-Ang):
   XX=           -102.0868   YY=            -90.5095   ZZ=            -94.0752
   XY=             -9.2554   XZ=             23.1615   YZ=              2.1438

  Exact polarizability: 157.505   2.710  83.488  -4.726 -11.789 134.199
 Approx polarizability: 209.932   1.816 123.533 -11.747 -11.537 210.872

                      1                      2                      3
                      A                      A                      A
 Frequencies --     14.5866                32.6884                54.0082
 Red. masses --      3.1720                 6.2590                 4.2480
 Frc consts  --      0.0004                 0.0039                 0.0073
 IR Inten    --      1.5589                 1.3086                 1.8105

                      4                      5                      6
                      A                      A                      A
 Frequencies --     60.5081                74.7643                79.1546
 Red. masses --      7.8743                 2.7587                 4.5536
 Frc consts  --      0.0170                 0.0091                 0.0168
 IR Inten    --      0.8954                 1.6083                 1.0660

                      7                      8                      9
                      A                      A                      A
 Frequencies --     87.9206               132.0275               136.5946
 Red. masses --      6.3789                 6.0387                 3.9814
 Frc consts  --      0.0291                 0.0620                 0.0438
 IR Inten    --      7.5479                 3.0155                 9.0881

                     10                     11                     12
                      A                      A                      A
 Frequencies --    191.1393               232.4850               251.0842
 Red. masses --      5.1681                 3.2928                 1.5515
 Frc consts  --      0.1112                 0.1049                 0.0576
 IR Inten    --      1.5529                11.8421                46.2450

                     13                     14                     15
                      A                      A                      A
 Frequencies --    283.4633               293.1093               318.7461
 Red. masses --      2.8673                 2.9808                 3.8508
 Frc consts  --      0.1357                 0.1509                 0.2305
 IR Inten    --     13.3245                 9.6618                 4.7143

                     16                     17                     18
                      A                      A                      A
 Frequencies --    357.2121               395.9155               425.7558
 Red. masses --      6.7227                 4.2534                 3.5369
 Frc consts  --      0.5054                 0.3928                 0.3777
 IR Inten    --      0.4807                 6.3665                 3.5360

                     19                     20                     21
                      A                      A                      A
 Frequencies --    530.5323               563.6496               596.1787
 Red. masses --      2.2044                 1.6886                 1.5943
 Frc consts  --      0.3656                 0.3161                 0.3339
 IR Inten    --     73.9017                32.0118                73.1362

                     22                     23                     24
                      A                      A                      A
 Frequencies --    633.8058               646.7120               652.4306
 Red. masses --      3.6367                 3.5670                 2.1579
 Frc consts  --      0.8607                 0.8790                 0.5412
 IR Inten    --     29.5851                 8.5223                 3.1520

                     25                     26                     27
                      A                      A                      A
 Frequencies --    676.0266               718.5528               755.1918
 Red. masses --      3.7478                 3.1630                 5.1036
 Frc consts  --      1.0092                 0.9622                 1.7149
 IR Inten    --     43.5809                30.7119                15.1080

                     28                     29                     30
                      A                      A                      A
 Frequencies --    778.4976               780.2534               801.7619
 Red. masses --      1.3712                 2.1453                 1.2924
 Frc consts  --      0.4896                 0.7695                 0.4895
 IR Inten    --     39.1950                13.8309                 9.2209

                     31                     32                     33
                      A                      A                      A
 Frequencies --    808.3951               839.7623               869.6749
 Red. masses --      1.4162                 1.3080                 1.4112
 Frc consts  --      0.5453                 0.5435                 0.6289
 IR Inten    --     20.9777                28.4586               127.6197

                     34                     35                     36
                      A                      A                      A
 Frequencies --    871.5386               945.6947               948.8148
 Red. masses --      2.2455                 5.8964                 3.4144
 Frc consts  --      1.0049                 3.1070                 1.8110
 IR Inten    --     32.6993                21.6855                 6.3791

                     37                     38                     39
                      A                      A                      A
 Frequencies --    982.2466               992.6023              1029.3787
 Red. masses --      2.9433                 2.8557                 3.4079
 Frc consts  --      1.6731                 1.6577                 2.1276
 IR Inten    --      1.6029                 4.7709                 2.1924

                     40                     41                     42
                      A                      A                      A
 Frequencies --   1029.8206              1057.8954              1101.0063
 Red. masses --      3.2260                 2.2616                 2.4334
 Frc consts  --      2.0157                 1.4913                 1.7380
 IR Inten    --     26.8213                 4.0291                37.2143

                     43                     44                     45
                      A                      A                      A
 Frequencies --   1142.6468              1145.3529              1157.5726
 Red. masses --      1.9342                 2.4779                 1.8895
 Frc consts  --      1.4879                 1.9152                 1.4917
 IR Inten    --     65.0662                25.2360                 2.9123

                     46                     47                     48
                      A                      A                      A
 Frequencies --   1163.3924              1191.4105              1210.4185
 Red. masses --      1.3405                 2.3248                 1.2572
 Frc consts  --      1.0690                 1.9442                 1.0852
 IR Inten    --     19.7645               159.9563                 8.1539

                     49                     50                     51
                      A                      A                      A
 Frequencies --   1240.5432              1272.4879              1282.9786
 Red. masses --      1.5337                 1.8539                 1.5470
 Frc consts  --      1.3906                 1.7686                 1.5003
 IR Inten    --     12.9690                 7.3084                10.5212

                     52                     53                     54
                      A                      A                      A
 Frequencies --   1291.7505              1305.5056              1320.1761
 Red. masses --      1.3593                 1.3491                 1.2239
 Frc consts  --      1.3364                 1.3547                 1.2567
 IR Inten    --     14.0923                 6.0638                 0.5409

                     55                     56                     57
                      A                      A                      A
 Frequencies --   1336.7521              1366.4627              1372.5182
 Red. masses --      1.3502                 1.4256                 1.4488
 Frc consts  --      1.4216                 1.5684                 1.6081
 IR Inten    --      2.0500                28.0652                10.7774

                     58                     59                     60
                      A                      A                      A
 Frequencies --   1398.5900              1430.2045              1437.3409
 Red. masses --      4.3159                 2.4144                 1.5299
 Frc consts  --      4.9740                 2.9098                 1.8622
 IR Inten    --     22.1569                83.1233                63.0561

                     61                     62                     63
                      A                      A                      A
 Frequencies --   1458.5975              1486.8624              1489.1262
 Red. masses --      2.4464                 1.1404                 1.1305
 Frc consts  --      3.0665                 1.4854                 1.4770
 IR Inten    --     75.6197                16.8483                 8.3590

                     64                     65                     66
                      A                      A                      A
 Frequencies --   1517.1222              1533.7098              1554.3606
 Red. masses --      3.4805                 1.0867                 2.6166
 Frc consts  --      4.7198                 1.5061                 3.7247
 IR Inten    --     23.8858                 1.6261               331.2426

                     67                     68                     69
                      A                      A                      A
 Frequencies --   1627.5231              1669.0496              1741.1369
 Red. masses --      4.3666                 1.0899                 9.0333
 Frc consts  --      6.8147                 1.7888                16.1347
 IR Inten    --     16.6591                25.2285               215.7304

                     70                     71                     72
                      A                      A                      A
 Frequencies --   1833.5442              3010.4389              3041.3593
 Red. masses --      9.8642                 1.0660                 1.0667
 Frc consts  --     19.5386                 5.6918                 5.8133
 IR Inten    --    263.3835                35.7011                 8.4752

                     73                     74                     75
                      A                      A                      A
 Frequencies --   3055.9385              3069.5756              3081.6535
 Red. masses --      1.0655                 1.0936                 1.0840
 Frc consts  --      5.8629                 6.0709                 6.0652
 IR Inten    --     20.1083                25.1114                 9.6044

                     76                     77                     78
                      A                      A                      A
 Frequencies --   3107.0748              3116.5514              3246.1723
 Red. masses --      1.1005                 1.0990                 1.0960
 Frc consts  --      6.2596                 6.2891                 6.8043
 IR Inten    --     25.9966                10.3264                11.0821

                     79                     80                     81
                      A                      A                      A
 Frequencies --   3258.0844              3486.5871              3494.1424
 Red. masses --      1.0974                 1.0504                 1.0853
 Frc consts  --      6.8636                 7.5232                 7.8069
 IR Inten    --      2.6899                 1.7113               473.4253

                     82                     83                     84
                      A                      A                      A
 Frequencies --   3572.9008              3606.3467              3756.1419
 Red. masses --      1.0918                 1.0780                 1.0643
 Frc consts  --      8.2115                 8.2608                 8.8469
 IR Inten    --      0.0965                85.2440                78.1616

 - Thermochemistry -
 -------------------
 Temperature   298.150 Kelvin.  Pressure   1.00000 Atm.
 Atom     1 has atomic number  8 and mass  15.99491

 Molecular mass:   226.10659 amu.
 Principal axes and moments of inertia in atomic units:
                           1         2         3
     Eigenvalues --  2702.732335858.017188174.99208
           X            0.98724   0.15264  -0.04543
           Y            0.10505  -0.40973   0.90614
           Z           -0.11970   0.89934   0.42054
 This molecule is an asymmetric top.
 Rotational symmetry number  1.
 Warning -- assumption of classical behavior for rotation
           may cause significant error
 Rotational temperatures (Kelvin)      0.03205     0.01479     0.01059
 Rotational constants (GHZ):           0.66775     0.30808     0.22076
 Zero-point vibrational energy     645455.2 (Joules/Mol)
                                  154.26751 (Kcal/Mol)
 Warning -- explicit consideration of  21 degrees of freedom as
           vibrations may cause significant error
 Vibrational temperatures:     20.99    47.03    77.71    87.06   107.57
          (Kelvin)            113.89   126.50   189.96   196.53   275.01
                              334.49   361.25   407.84   421.72   458.60
                              513.95   569.63   612.57   763.32   810.97
                              857.77   911.90   930.47   938.70   972.65
                             1033.84  1086.55  1120.08  1122.61  1153.56
                             1163.10  1208.23  1251.27  1253.95  1360.64
                             1365.13  1413.23  1428.13  1481.04  1481.68
                             1522.07  1584.10  1644.01  1647.91  1665.49
                             1673.86  1714.17  1741.52  1784.86  1830.82
                             1845.92  1858.54  1878.33  1899.44  1923.29
                             1966.03  1974.75  2012.26  2057.74  2068.01
                             2098.59  2139.26  2142.52  2182.80  2206.66
                             2236.38  2341.64  2401.39  2505.10  2638.06
                             4331.34  4375.83  4396.81  4416.43  4433.81
                             4470.38  4484.02  4670.51  4687.65  5016.41
                             5027.29  5140.60  5188.72  5404.24

 Zero-point correction=                           0.245841 (Hartree/Particle)
 Thermal correction to Energy=                    0.261893
 Thermal correction to Enthalpy=                  0.262837
 Thermal correction to Gibbs Free Energy=         0.199082
 Sum of electronic and zero-point Energies=           -795.924754
 Sum of electronic and thermal Energies=              -795.908702
 Sum of electronic and thermal Enthalpies=            -795.907758
 Sum of electronic and thermal Free Energies=         -795.971513

                     E (Thermal)             CV                S
                      KCal/Mol        Cal/Mol-Kelvin    Cal/Mol-Kelvin
 Total                  164.340             57.857            134.183
 Electronic               0.000              0.000              0.000
 Translational            0.889              2.981             42.150
 Rotational               0.889              2.981             33.226
 Vibrational            162.563             51.895             58.808
 Vibration     1          0.593              1.986              7.261
 Vibration     2          0.594              1.983              5.659
 Vibration     3          0.596              1.976              4.665
 Vibration     4          0.597              1.973              4.441
 Vibration     5          0.599              1.966              4.024
 Vibration     6          0.600              1.963              3.912
 Vibration     7          0.601              1.958              3.706
 Vibration     8          0.612              1.921              2.916
 Vibration     9          0.614              1.917              2.851
 Vibration    10          0.634              1.852              2.217
 Vibration    11          0.653              1.791              1.860
 Vibration    12          0.663              1.761              1.723
 Vibration    13          0.682              1.704              1.513
 Vibration    14          0.688              1.687              1.456
 Vibration    15          0.705              1.638              1.317
 Vibration    16          0.732              1.560              1.134
 Vibration    17          0.763              1.479              0.978
 Vibration    18          0.788              1.414              0.873
 Vibration    19          0.885              1.182              0.586
 Vibration    20          0.919              1.110              0.517
 Vibration    21          0.954              1.040              0.456

 Optimization completed.
    -- Stationary point found.
 Normal termination of Gaussian 09 at Sat Jul 24 02:04:32 2021.
