 Gaussian 09, Revision D.01,
 Gaussian 09:  ES64L-G09RevD.01 24-Apr-2013

 ----------------------------------------------------------------------
 # B3LYP/6-31G(d,p) EmpiricalDispersion=GD3BJ opt=calcfc freq=noraman n
 osymm integral(ultrafinegrid)
 ----------------------------------------------------------------------

 ------------------------------------------------------------
 Candidate Structure: Conf:340 OPT and FREQ calc in gas phase
 ------------------------------------------------------------
 Symbolic Z-matrix:
 Charge =  0 Multiplicity = 1

 SCF Done:  E(RB3LYP) =  -796.165082716     A.U. after   14 cycles
 SCF Done:  E(RB3LYP) =  -796.167948873     A.U. after   14 cycles
 SCF Done:  E(RB3LYP) =  -796.167962854     A.U. after   14 cycles
 SCF Done:  E(RB3LYP) =  -796.167860816     A.U. after   12 cycles
 SCF Done:  E(RB3LYP) =  -796.168097022     A.U. after   10 cycles
 SCF Done:  E(RB3LYP) =  -796.168281960     A.U. after   12 cycles
 SCF Done:  E(RB3LYP) =  -796.168301151     A.U. after   11 cycles
 SCF Done:  E(RB3LYP) =  -796.168318969     A.U. after   10 cycles
 SCF Done:  E(RB3LYP) =  -796.168319495     A.U. after    8 cycles
 SCF Done:  E(RB3LYP) =  -796.168319568     A.U. after    7 cycles
 Optimization completed.
    -- Stationary point found.
 Normal termination of Gaussian 09 at Sat Jul 24 01:09:01 2021.

 ----------------------------------------------------------------------
 #N Geom=AllCheck Guess=TCheck SCRF=Check GenChk RB3LYP/6-31G(d,p) Freq
 ----------------------------------------------------------------------

 Structure from the checkpoint file:  "conf-340.chk"
 ------------------------------------------------------------
 Candidate Structure: Conf:340 OPT and FREQ calc in gas phase
 ------------------------------------------------------------
 Charge =  0 Multiplicity = 1

                          Input orientation:
 ---------------------------------------------------------------------
 Center     Atomic      Atomic             Coordinates (Angstroms)
 Number     Number       Type             X           Y           Z
 ---------------------------------------------------------------------
      1          8           0        0.590253   -0.999273   -0.705573
      2          6           0        1.372490   -0.187179   -0.196737
      3          7           0        0.932032    0.987546    0.322424
      4          6           0       -0.455800    1.342704    0.166015
      5          6           0       -0.636956    2.831274    0.415814
      6          8           0       -1.897597    3.276856    0.259849
      7          8           0        0.263207    3.567812    0.744114
      8          6           0       -1.410920    0.503047    1.082533
      9          6           0       -2.601281    0.056041    0.310143
     10          6           0       -3.938720    0.391583    0.302542
     11          7           0       -4.600927   -0.271316   -0.711914
     12          6           0       -3.676426   -0.990251   -1.315368
     13          7           0       -2.448306   -0.828451   -0.739825
     14          6           0        2.864607   -0.442824   -0.122413
     15          6           0        3.174932   -1.907216    0.193828
     16          7           0        4.615007   -2.143276    0.088354
     17          1           0        1.558867    1.714283    0.644520
     18          1           0       -0.742345    1.141258   -0.873174
     19          1           0       -2.494560    2.550025    0.000354
     20          1           0       -0.843877   -0.358572    1.442179
     21          1           0       -1.719158    1.078811    1.959292
     22          1           0       -4.462528    1.042312    0.990345
     23          1           0       -3.838196   -1.642700   -2.161913
     24          1           0       -1.546920   -1.213901   -1.009476
     25          1           0        3.303551   -0.201458   -1.097769
     26          1           0        3.331951    0.223694    0.612386
     27          1           0        2.661312   -2.526629   -0.545891
     28          1           0        2.738858   -2.163235    1.175349
     29          1           0        4.808154   -3.137550    0.175467
     30          1           0        5.099174   -1.693306    0.862409
 ---------------------------------------------------------------------

 SCF Done:  E(RB3LYP) =  -796.168319568     A.U. after    1 cycles

 Alpha  occ. eigenvalues --  -19.20949 -19.15553 -19.13836 -14.38892 -14.38130
 Alpha  occ. eigenvalues --  -14.32313 -14.31567 -10.33826 -10.30874 -10.26139
 Alpha  occ. eigenvalues --  -10.24411 -10.22896 -10.22298 -10.22069 -10.20660
 Alpha  occ. eigenvalues --  -10.20642  -1.11749  -1.05559  -1.03744  -1.01564
 Alpha  occ. eigenvalues --   -0.94734  -0.89123  -0.87306  -0.81603  -0.77345
 Alpha  occ. eigenvalues --   -0.74057  -0.68618  -0.64405  -0.62272  -0.61552
 Alpha  occ. eigenvalues --   -0.60440  -0.59340  -0.56185  -0.54873  -0.51047
 Alpha  occ. eigenvalues --   -0.50058  -0.49344  -0.47998  -0.47074  -0.45939
 Alpha  occ. eigenvalues --   -0.45505  -0.43858  -0.43437  -0.42449  -0.41900
 Alpha  occ. eigenvalues --   -0.41275  -0.40632  -0.40050  -0.39649  -0.38987
 Alpha  occ. eigenvalues --   -0.36237  -0.35695  -0.33266  -0.29661  -0.28378
 Alpha  occ. eigenvalues --   -0.28073  -0.27580  -0.26840  -0.24638  -0.23373
 Alpha virt. eigenvalues --   -0.01139   0.00480   0.01899   0.05180   0.07027
 Alpha virt. eigenvalues --    0.07823   0.08093   0.10561   0.10843   0.11421
 Alpha virt. eigenvalues --    0.13057   0.13322   0.14080   0.15112   0.15535

 Mulliken charges:
               1
     1  O   -0.558856
     2  C    0.608711
     3  N   -0.541332
     4  C   -0.013257
     5  C    0.598416
     6  O   -0.480768
     7  O   -0.456800
     8  C   -0.262891
     9  C    0.238965
    10  C   -0.033945
    11  N   -0.440718
    12  C    0.264028
    13  N   -0.515110
    14  C   -0.254159
    15  C   -0.055352
    16  N   -0.605013
    17  H    0.284325
    18  H    0.154423
    19  H    0.324895
    20  H    0.148803
    21  H    0.134369
    22  H    0.098447
    23  H    0.118689
    24  H    0.297204
    25  H    0.153572
    26  H    0.098319
    27  H    0.134230
    28  H    0.081893
    29  H    0.242655
    30  H    0.236257
 Sum of Mulliken charges =   0.00000

 Dipole moment (field-independent basis, Debye):
    X=              3.3874    Y=             -2.5806    Z=              1.3397  Tot=              4.4641
 Quadrupole moment (field-independent basis, Debye-Ang):
   XX=           -106.0914   YY=           -104.1446   ZZ=            -89.6278
   XY=             -3.3721   XZ=              4.8408   YZ=             -3.1920

  Exact polarizability: 159.567  -5.060 120.672  10.649  20.842  93.230
 Approx polarizability: 218.075   2.739 180.339  16.875  39.118 150.901

                      1                      2                      3
                      A                      A                      A
 Frequencies --     19.5033                41.6505                60.5974
 Red. masses --      3.4632                 5.6596                 2.5974
 Frc consts  --      0.0008                 0.0058                 0.0056
 IR Inten    --      0.7876                 2.1613                 4.8273

                      4                      5                      6
                      A                      A                      A
 Frequencies --     77.6402                85.9525                90.5346
 Red. masses --      4.3357                 6.4135                 5.1138
 Frc consts  --      0.0154                 0.0279                 0.0247
 IR Inten    --      2.6489                 2.1614                 2.0357

                      7                      8                      9
                      A                      A                      A
 Frequencies --    101.6124               119.3941               167.1545
 Red. masses --      6.3629                 5.6626                 4.3394
 Frc consts  --      0.0387                 0.0476                 0.0714
 IR Inten    --      6.6741                 6.1060                 7.1782

                     10                     11                     12
                      A                      A                      A
 Frequencies --    195.5182               209.5155               260.5071
 Red. masses --      5.3427                 3.8695                 1.3975
 Frc consts  --      0.1203                 0.1001                 0.0559
 IR Inten    --     10.8003                 9.6158                43.0069

                     13                     14                     15
                      A                      A                      A
 Frequencies --    280.7135               321.7911               342.6895
 Red. masses --      3.5470                 5.4125                 2.4107
 Frc consts  --      0.1647                 0.3302                 0.1668
 IR Inten    --     12.1479                 2.9134                 6.0850

                     16                     17                     18
                      A                      A                      A
 Frequencies --    361.1933               397.8947               412.9488
 Red. masses --      5.9929                 4.0216                 3.8511
 Frc consts  --      0.4606                 0.3751                 0.3869
 IR Inten    --      8.7697                 7.6359                 8.2295

                     19                     20                     21
                      A                      A                      A
 Frequencies --    525.1988               553.9902               612.5608
 Red. masses --      1.3995                 2.7644                 2.5188
 Frc consts  --      0.2274                 0.4999                 0.5569
 IR Inten    --     61.2818                15.0138                33.3582

                     22                     23                     24
                      A                      A                      A
 Frequencies --    639.3458               647.9632               661.4945
 Red. masses --      1.7635                 3.3684                 2.7440
 Frc consts  --      0.4247                 0.8332                 0.7074
 IR Inten    --    102.5629                 6.6038                 1.1532

                     25                     26                     27
                      A                      A                      A
 Frequencies --    681.2001               714.6838               750.5212
 Red. masses --      3.9663                 3.2165                 1.4288
 Frc consts  --      1.0844                 0.9680                 0.4742
 IR Inten    --      8.9432                 6.0013                52.9407

                     28                     29                     30
                      A                      A                      A
 Frequencies --    756.7462               774.5973               806.8613
 Red. masses --      2.1851                 3.9299                 1.3938
 Frc consts  --      0.7373                 1.3893                 0.5346
 IR Inten    --     18.1485                 3.8192                11.2319

                     31                     32                     33
                      A                      A                      A
 Frequencies --    823.5490               840.6867               860.8776
 Red. masses --      1.3953                 1.2980                 1.6158
 Frc consts  --      0.5576                 0.5405                 0.7055
 IR Inten    --     18.9801                22.4530                84.0973

                     34                     35                     36
                      A                      A                      A
 Frequencies --    866.9805               944.1650               954.2380
 Red. masses --      2.0134                 5.8582                 2.8480
 Frc consts  --      0.8917                 3.0769                 1.5279
 IR Inten    --     53.0010                15.4978                10.7149

                     37                     38                     39
                      A                      A                      A
 Frequencies --    989.4831               995.3119              1025.4780
 Red. masses --      2.0971                 5.6158                 3.4465
 Frc consts  --      1.2097                 3.2778                 2.1354
 IR Inten    --      2.8241                 2.7310                15.5601

                     40                     41                     42
                      A                      A                      A
 Frequencies --   1037.9429              1071.9927              1106.1027
 Red. masses --      3.0457                 2.6554                 2.0917
 Frc consts  --      1.9332                 1.7979                 1.5078
 IR Inten    --      3.0455                20.4334                18.9249

                     43                     44                     45
                      A                      A                      A
 Frequencies --   1126.8373              1144.4626              1150.3427
 Red. masses --      1.6389                 1.6368                 2.1216
 Frc consts  --      1.2261                 1.2631                 1.6541
 IR Inten    --     40.4550                 6.9195                 4.5459

                     46                     47                     48
                      A                      A                      A
 Frequencies --   1173.1511              1201.6035              1216.1270
 Red. masses --      1.4106                 1.8674                 1.8801
 Frc consts  --      1.1438                 1.5886                 1.6383
 IR Inten    --      2.5966                18.2664                21.0035

                     49                     50                     51
                      A                      A                      A
 Frequencies --   1232.0758              1266.8303              1267.7409
 Red. masses --      1.5940                 1.7485                 1.6841
 Frc consts  --      1.4256                 1.6533                 1.5947
 IR Inten    --     15.0368                25.1593                 3.1691

                     52                     53                     54
                      A                      A                      A
 Frequencies --   1284.7897              1312.7847              1336.3343
 Red. masses --      1.3608                 1.3518                 1.3784
 Frc consts  --      1.3235                 1.3726                 1.4503
 IR Inten    --      6.1924                36.2312                 4.4265

                     55                     56                     57
                      A                      A                      A
 Frequencies --   1343.5933              1362.7706              1378.3050
 Red. masses --      1.1456                 1.7358                 1.5054
 Frc consts  --      1.2185                 1.8993                 1.6849
 IR Inten    --     36.2527               203.5924                26.3588

                     58                     59                     60
                      A                      A                      A
 Frequencies --   1396.2543              1423.5862              1438.3298
 Red. masses --      2.9611                 1.8200                 1.5701
 Frc consts  --      3.4012                 2.1732                 1.9138
 IR Inten    --     10.5163                62.3830                53.2778

                     61                     62                     63
                      A                      A                      A
 Frequencies --   1447.7153              1482.9255              1494.4989
 Red. masses --      2.6286                 1.1002                 1.1212
 Frc consts  --      3.2459                 1.4254                 1.4754
 IR Inten    --     76.2704                 7.4095                12.8412

                     64                     65                     66
                      A                      A                      A
 Frequencies --   1518.4569              1530.8124              1537.0714
 Red. masses --      3.6821                 1.0847                 2.8196
 Frc consts  --      5.0020                 1.4976                 3.9249
 IR Inten    --     43.0122                 0.9101               287.0996

                     67                     68                     69
                      A                      A                      A
 Frequencies --   1623.7369              1671.6863              1729.6613
 Red. masses --      4.5653                 1.0919                 9.0691
 Frc consts  --      7.0916                 1.7977                15.9858
 IR Inten    --     12.5899                20.4771               181.1484

                     70                     71                     72
                      A                      A                      A
 Frequencies --   1866.9736              2957.5311              3045.5137
 Red. masses --      9.9227                 1.0740                 1.0606
 Frc consts  --     20.3778                 5.5352                 5.7961
 IR Inten    --    289.0016                74.6812                14.8383

                     73                     74                     75
                      A                      A                      A
 Frequencies --   3048.8872              3081.4372              3088.5880
 Red. masses --      1.0824                 1.0608                 1.0989
 Frc consts  --      5.9281                 5.9344                 6.1764
 IR Inten    --      9.7406                15.1854                 5.8139

                     76                     77                     78
                      A                      A                      A
 Frequencies --   3113.2143              3128.6221              3243.3109
 Red. masses --      1.0918                 1.1057                 1.0961
 Frc consts  --      6.2349                 6.3769                 6.7935
 IR Inten    --     20.6834                 7.2066                 4.8989

                     79                     80                     81
                      A                      A                      A
 Frequencies --   3262.9548              3491.2044              3552.1239
 Red. masses --      1.0977                 1.0503                 1.0838
 Frc consts  --      6.8856                 7.5422                 8.0573
 IR Inten    --      1.6109                 1.3014               221.7058

                     82                     83                     84
                      A                      A                      A
 Frequencies --   3576.5746              3608.2025              3654.7133
 Red. masses --      1.0920                 1.0783                 1.0673
 Frc consts  --      8.2300                 8.2715                 8.3993
 IR Inten    --      0.0240                76.4594               241.6787

 - Thermochemistry -
 -------------------
 Temperature   298.150 Kelvin.  Pressure   1.00000 Atm.
 Atom     1 has atomic number  8 and mass  15.99491

 Molecular mass:   226.10659 amu.
 Principal axes and moments of inertia in atomic units:
                           1         2         3
     Eigenvalues --  2438.255096057.122608113.92670
           X            0.95933   0.26280  -0.10303
           Y           -0.28023   0.93051  -0.23584
           Z            0.03390   0.25512   0.96632
 This molecule is an asymmetric top.
 Rotational symmetry number  1.
 Warning -- assumption of classical behavior for rotation
           may cause significant error
 Rotational temperatures (Kelvin)      0.03552     0.01430     0.01067
 Rotational constants (GHZ):           0.74018     0.29795     0.22243
 Zero-point vibrational energy     645990.1 (Joules/Mol)
                                  154.39535 (Kcal/Mol)
 Warning -- explicit consideration of  21 degrees of freedom as
           vibrations may cause significant error
 Vibrational temperatures:     28.06    59.93    87.19   111.71   123.67
          (Kelvin)            130.26   146.20   171.78   240.50   281.31
                              301.45   374.81   403.88   462.99   493.05
                              519.68   572.48   594.14   755.64   797.07
                              881.34   919.87   932.27   951.74   980.09
                             1028.27  1079.83  1088.79  1114.47  1160.89
                             1184.90  1209.56  1238.61  1247.39  1358.44
                             1372.93  1423.64  1432.03  1475.43  1493.37
                             1542.36  1591.43  1621.27  1646.62  1655.08
                             1687.90  1728.84  1749.73  1772.68  1822.68
                             1823.99  1848.52  1888.80  1922.68  1933.13
                             1960.72  1983.07  2008.90  2048.22  2069.43
                             2082.94  2133.60  2150.25  2184.72  2202.49
                             2211.50  2336.19  2405.18  2488.59  2686.16
                             4255.22  4381.81  4386.66  4433.50  4443.78
                             4479.22  4501.38  4666.40  4694.66  5023.06
                             5110.71  5145.89  5191.39  5258.31

 Zero-point correction=                           0.246045 (Hartree/Particle)
 Thermal correction to Energy=                    0.261875
 Thermal correction to Enthalpy=                  0.262819
 Thermal correction to Gibbs Free Energy=         0.200501
 Sum of electronic and zero-point Energies=           -795.922275
 Sum of electronic and thermal Energies=              -795.906445
 Sum of electronic and thermal Enthalpies=            -795.905501
 Sum of electronic and thermal Free Energies=         -795.967819

                     E (Thermal)             CV                S
                      KCal/Mol        Cal/Mol-Kelvin    Cal/Mol-Kelvin
 Total                  164.329             57.708            131.159
 Electronic               0.000              0.000              0.000
 Translational            0.889              2.981             42.150
 Rotational               0.889              2.981             33.149
 Vibrational            162.551             51.747             55.860
 Vibration     1          0.593              1.986              6.684
 Vibration     2          0.594              1.981              5.179
 Vibration     3          0.597              1.973              4.438
 Vibration     4          0.599              1.964              3.950
 Vibration     5          0.601              1.959              3.750
 Vibration     6          0.602              1.956              3.648
 Vibration     7          0.604              1.948              3.423
 Vibration     8          0.609              1.933              3.110
 Vibration     9          0.624              1.883              2.467
 Vibration    10          0.636              1.846              2.175
 Vibration    11          0.642              1.826              2.048
 Vibration    12          0.669              1.745              1.658
 Vibration    13          0.680              1.709              1.529
 Vibration    14          0.707              1.632              1.301
 Vibration    15          0.722              1.590              1.200
 Vibration    16          0.735              1.552              1.117
 Vibration    17          0.764              1.475              0.970
 Vibration    18          0.777              1.442              0.916
 Vibration    19          0.880              1.194              0.598
 Vibration    20          0.909              1.131              0.536
 Vibration    21          0.972              1.005              0.429

 Normal termination of Gaussian 09 at Sat Jul 24 01:28:21 2021.
