 Gaussian 09, Revision D.01,
 Gaussian 09:  ES64L-G09RevD.01 24-Apr-2013

 ----------------------------------------------------------------------
 # B3LYP/6-31G(d,p) EmpiricalDispersion=GD3BJ opt=calcfc freq=noraman n
 osymm integral(ultrafinegrid)
 ----------------------------------------------------------------------

 ------------------------------------------------------------
 Candidate Structure: Conf:455 OPT and FREQ calc in gas phase
 ------------------------------------------------------------
 Symbolic Z-matrix:
 Charge =  0 Multiplicity = 1

 SCF Done:  E(RB3LYP) =  -796.153980124     A.U. after   14 cycles
 SCF Done:  E(RB3LYP) =  -796.155803553     A.U. after   13 cycles
 SCF Done:  E(RB3LYP) =  -796.156344819     A.U. after   12 cycles
 SCF Done:  E(RB3LYP) =  -796.155907426     A.U. after   14 cycles
 SCF Done:  E(RB3LYP) =  -796.156417072     A.U. after   11 cycles
 SCF Done:  E(RB3LYP) =  -796.156474442     A.U. after   11 cycles
 SCF Done:  E(RB3LYP) =  -796.156551749     A.U. after   12 cycles
 SCF Done:  E(RB3LYP) =  -796.156605298     A.U. after   12 cycles
 SCF Done:  E(RB3LYP) =  -796.156675769     A.U. after   12 cycles
 SCF Done:  E(RB3LYP) =  -796.156768885     A.U. after   11 cycles
 SCF Done:  E(RB3LYP) =  -796.156815681     A.U. after   12 cycles
 SCF Done:  E(RB3LYP) =  -796.156810994     A.U. after   12 cycles
 SCF Done:  E(RB3LYP) =  -796.156841574     A.U. after   12 cycles
 SCF Done:  E(RB3LYP) =  -796.156848789     A.U. after   10 cycles
 SCF Done:  E(RB3LYP) =  -796.156849541     A.U. after    9 cycles
 SCF Done:  E(RB3LYP) =  -796.156849575     A.U. after    7 cycles
 Optimization completed.
    -- Stationary point found.
 Normal termination of Gaussian 09 at Sat Jul 24 01:21:43 2021.

 ----------------------------------------------------------------------
 #N Geom=AllCheck Guess=TCheck SCRF=Check GenChk RB3LYP/6-31G(d,p) Freq
 ----------------------------------------------------------------------

 Structure from the checkpoint file:  "conf-455.chk"
 ------------------------------------------------------------
 Candidate Structure: Conf:455 OPT and FREQ calc in gas phase
 ------------------------------------------------------------
 Charge =  0 Multiplicity = 1

                          Input orientation:
 ---------------------------------------------------------------------
 Center     Atomic      Atomic             Coordinates (Angstroms)
 Number     Number       Type             X           Y           Z
 ---------------------------------------------------------------------
      1          8           0        0.422970   -0.878674   -1.160201
      2          6           0        1.038181   -0.516669   -0.154424
      3          7           0        0.540467   -0.686248    1.102675
      4          6           0       -0.587225   -1.552111    1.386854
      5          6           0       -0.163019   -3.028268    1.212187
      6          8           0       -1.165530   -3.938859    1.231622
      7          8           0        0.983524   -3.377841    1.113817
      8          6           0       -1.881424   -1.194298    0.596751
      9          6           0       -2.145045    0.269887    0.492506
     10          6           0       -2.846220    1.159571    1.274998
     11          7           0       -2.767858    2.435525    0.761145
     12          6           0       -2.026662    2.323918   -0.324040
     13          7           0       -1.630029    1.035608   -0.534857
     14          6           0        2.341618    0.249730   -0.257710
     15          6           0        2.156135    1.515908   -1.125668
     16          7           0        3.354895    2.311181   -1.352379
     17          1           0        1.172140   -0.515004    1.869838
     18          1           0       -0.810380   -1.415590    2.451614
     19          1           0       -2.027948   -3.502351    1.273236
     20          1           0       -2.733818   -1.648163    1.118335
     21          1           0       -1.821515   -1.633182   -0.400520
     22          1           0       -3.410149    0.947814    2.173604
     23          1           0       -1.756625    3.129634   -0.992175
     24          1           0       -1.014180    0.669636   -1.251204
     25          1           0        2.732470    0.522823    0.729363
     26          1           0        3.073505   -0.412693   -0.733646
     27          1           0        1.752169    1.204248   -2.093390
     28          1           0        1.399793    2.158146   -0.658395
     29          1           0        3.751097    2.617355   -0.466875
     30          1           0        4.068568    1.748869   -1.810105
 ---------------------------------------------------------------------

 SCF Done:  E(RB3LYP) =  -796.156849575     A.U. after    1 cycles

 Alpha  occ. eigenvalues --  -19.21126 -19.14840 -19.13455 -14.38477 -14.38300
 Alpha  occ. eigenvalues --  -14.32466 -14.30780 -10.33274 -10.30784 -10.26946
 Alpha  occ. eigenvalues --  -10.23522 -10.22715 -10.22361 -10.22054 -10.20729
 Alpha  occ. eigenvalues --  -10.19566  -1.11540  -1.05496  -1.03345  -1.00777
 Alpha  occ. eigenvalues --   -0.94936  -0.89344  -0.86482  -0.81653  -0.76988
 Alpha  occ. eigenvalues --   -0.73852  -0.68328  -0.64620  -0.62786  -0.60906
 Alpha  occ. eigenvalues --   -0.60091  -0.58680  -0.56022  -0.53368  -0.53110
 Alpha  occ. eigenvalues --   -0.51383  -0.48709  -0.47109  -0.46047  -0.45281
 Alpha  occ. eigenvalues --   -0.44885  -0.43313  -0.43180  -0.42446  -0.41582
 Alpha  occ. eigenvalues --   -0.41228  -0.40437  -0.40366  -0.39494  -0.38836
 Alpha  occ. eigenvalues --   -0.37373  -0.35503  -0.32947  -0.29283  -0.28312
 Alpha  occ. eigenvalues --   -0.27549  -0.27375  -0.26101  -0.24328  -0.22315
 Alpha virt. eigenvalues --   -0.00607  -0.00173   0.02300   0.03875   0.05668
 Alpha virt. eigenvalues --    0.06845   0.07187   0.09906   0.11179   0.11887
 Alpha virt. eigenvalues --    0.12949   0.13651   0.14754   0.15307   0.15559

 Mulliken charges:
               1
     1  O   -0.555694
     2  C    0.610879
     3  N   -0.495211
     4  C   -0.035548
     5  C    0.624548
     6  O   -0.479705
     7  O   -0.443422
     8  C   -0.279156
     9  C    0.279901
    10  C   -0.017711
    11  N   -0.446257
    12  C    0.254859
    13  N   -0.524825
    14  C   -0.263199
    15  C   -0.067272
    16  N   -0.590246
    17  H    0.272726
    18  H    0.140699
    19  H    0.326338
    20  H    0.104069
    21  H    0.157552
    22  H    0.080211
    23  H    0.114273
    24  H    0.284846
    25  H    0.087269
    26  H    0.138695
    27  H    0.130850
    28  H    0.113741
    29  H    0.237041
    30  H    0.239749
 Sum of Mulliken charges =   0.00000

 Dipole moment (field-independent basis, Debye):
    X=              1.2109    Y=             -0.3971    Z=              1.9047  Tot=              2.2917
 Quadrupole moment (field-independent basis, Debye-Ang):
   XX=            -88.0254   YY=           -117.5592   ZZ=            -88.7574
   XY=             17.7275   XZ=              1.5113   YZ=             -3.3505

  Exact polarizability: 126.805   0.695 133.738 -18.674 -12.418 105.459
 Approx polarizability: 180.159  -3.147 189.876 -25.435  -3.449 180.840

                      1                      2                      3
                      A                      A                      A
 Frequencies --     21.0504                28.9670                49.1256
 Red. masses --      4.9814                 4.9662                 4.0334
 Frc consts  --      0.0013                 0.0025                 0.0057
 IR Inten    --      0.8052                 2.6571                10.7068

                      4                      5                      6
                      A                      A                      A
 Frequencies --     63.6477                76.6130                92.5070
 Red. masses --      4.3882                 5.6533                 4.7860
 Frc consts  --      0.0105                 0.0196                 0.0241
 IR Inten    --      3.4110                 7.8903                 1.0101

                      7                      8                      9
                      A                      A                      A
 Frequencies --     97.3398               136.2859               163.9220
 Red. masses --      2.3023                 5.0365                 5.4484
 Frc consts  --      0.0129                 0.0551                 0.0863
 IR Inten    --      1.3389                 7.7329                13.6192

                     10                     11                     12
                      A                      A                      A
 Frequencies --    200.9337               213.4649               288.8932
 Red. masses --      5.7850                 5.4204                 5.5893
 Frc consts  --      0.1376                 0.1455                 0.2748
 IR Inten    --      7.2101                 9.8474                 7.6921

                     13                     14                     15
                      A                      A                      A
 Frequencies --    315.4745               330.6725               345.0857
 Red. masses --      1.1317                 3.8777                 3.8199
 Frc consts  --      0.0664                 0.2498                 0.2680
 IR Inten    --     44.9626                 0.2929                22.1293

                     16                     17                     18
                      A                      A                      A
 Frequencies --    347.0606               403.6773               409.8716
 Red. masses --      2.7297                 3.3165                 2.6432
 Frc consts  --      0.1937                 0.3184                 0.2616
 IR Inten    --      2.1236                18.1231                29.1245

                     19                     20                     21
                      A                      A                      A
 Frequencies --    474.3187               498.3065               526.2172
 Red. masses --      1.3455                 1.4441                 4.2176
 Frc consts  --      0.1783                 0.2113                 0.6881
 IR Inten    --     50.5179                59.3380                 6.2095

                     22                     23                     24
                      A                      A                      A
 Frequencies --    601.8164               639.0583               666.9835
 Red. masses --      3.9994                 3.0638                 4.2679
 Frc consts  --      0.8535                 0.7372                 1.1186
 IR Inten    --     12.4331                48.1454                15.5298

                     25                     26                     27
                      A                      A                      A
 Frequencies --    679.3973               710.4069               740.9936
 Red. masses --      4.1508                 3.9835                 1.2034
 Frc consts  --      1.1288                 1.1845                 0.3893
 IR Inten    --     21.7192                 0.5737                80.3919

                     28                     29                     30
                      A                      A                      A
 Frequencies --    760.9108               775.4353               788.9186
 Red. masses --      5.0641                 1.2477                 3.0019
 Frc consts  --      1.7275                 0.4420                 1.1008
 IR Inten    --      5.1747                 1.8734                 0.8887

                     31                     32                     33
                      A                      A                      A
 Frequencies --    806.5073               836.9962               850.1878
 Red. masses --      1.3954                 1.5760                 1.5607
 Frc consts  --      0.5348                 0.6505                 0.6647
 IR Inten    --     21.8801                25.1823               214.2675

                     34                     35                     36
                      A                      A                      A
 Frequencies --    866.9230               927.9828               940.0889
 Red. masses --      2.8362                 2.6830                 4.6423
 Frc consts  --      1.2559                 1.3613                 2.4173
 IR Inten    --     20.8544                 4.6262                10.7296

                     37                     38                     39
                      A                      A                      A
 Frequencies --    950.7077               986.8601              1024.3752
 Red. masses --      4.4219                 1.3907                 4.3737
 Frc consts  --      2.3548                 0.7980                 2.7040
 IR Inten    --     10.6132                 1.2324                65.5054

                     40                     41                     42
                      A                      A                      A
 Frequencies --   1033.5895              1042.6613              1107.6155
 Red. masses --      3.4529                 3.0818                 1.8893
 Frc consts  --      2.1734                 1.9740                 1.3656
 IR Inten    --     18.1158                 9.1396                14.7475

                     43                     44                     45
                      A                      A                      A
 Frequencies --   1122.9012              1130.4392              1155.0546
 Red. masses --      2.4336                 1.5841                 2.0875
 Frc consts  --      1.8079                 1.1927                 1.6409
 IR Inten    --      6.3750                32.8176                 7.8794

                     46                     47                     48
                      A                      A                      A
 Frequencies --   1165.1847              1183.2796              1209.2440
 Red. masses --      2.1061                 2.0261                 1.4199
 Frc consts  --      1.6847                 1.6714                 1.2233
 IR Inten    --     11.1957                 0.6832                 8.9659

                     49                     50                     51
                      A                      A                      A
 Frequencies --   1258.5771              1271.9048              1282.9942
 Red. masses --      1.6683                 1.7375                 1.6856
 Frc consts  --      1.5570                 1.6561                 1.6347
 IR Inten    --    122.9847                21.0030                 8.8914

                     52                     53                     54
                      A                      A                      A
 Frequencies --   1299.2776              1303.1565              1316.0231
 Red. masses --      1.3160                 1.3617                 1.9995
 Frc consts  --      1.3089                 1.3625                 2.0403
 IR Inten    --      9.8096                88.9190               305.4588

                     55                     56                     57
                      A                      A                      A
 Frequencies --   1352.5978              1367.7198              1391.4036
 Red. masses --      1.4343                 1.5042                 1.2675
 Frc consts  --      1.5461                 1.6578                 1.4458
 IR Inten    --     10.2889                25.8711                26.5594

                     58                     59                     60
                      A                      A                      A
 Frequencies --   1394.8603              1401.8949              1411.9826
 Red. masses --      1.5407                 1.2423                 2.7058
 Frc consts  --      1.7662                 1.4385                 3.1784
 IR Inten    --     15.8088                17.8010                20.3388

                     61                     62                     63
                      A                      A                      A
 Frequencies --   1450.4788              1487.1274              1488.6077
 Red. masses --      3.1709                 1.1190                 1.1312
 Frc consts  --      3.9306                 1.4580                 1.4769
 IR Inten    --     23.4920                 1.7567                15.0103

                     64                     65                     66
                      A                      A                      A
 Frequencies --   1512.2288              1517.7852              1558.3245
 Red. masses --      3.3767                 1.1046                 1.9929
 Frc consts  --      4.5497                 1.4992                 2.8513
 IR Inten    --     25.6169                 2.4220               196.4255

                     67                     68                     69
                      A                      A                      A
 Frequencies --   1621.7664              1673.4866              1747.6860
 Red. masses --      4.5305                 1.0916                 8.2307
 Frc consts  --      7.0205                 1.8011                14.8121
 IR Inten    --      8.2323                23.9769               155.1461

                     70                     71                     72
                      A                      A                      A
 Frequencies --   1882.6747              3031.7183              3043.5108
 Red. masses --     10.9301                 1.0702                 1.0599
 Frc consts  --     22.8258                 5.7955                 5.7844
 IR Inten    --    227.1081                39.9362                 4.8217

                     73                     74                     75
                      A                      A                      A
 Frequencies --   3051.0358              3059.5180              3090.4153
 Red. masses --      1.0648                 1.0831                 1.1001
 Frc consts  --      5.8398                 5.9737                 6.1904
 IR Inten    --     38.6258                13.8890                 2.4571

                     76                     77                     78
                      A                      A                      A
 Frequencies --   3113.0991              3132.1020              3243.1281
 Red. masses --      1.1049                 1.0942                 1.0962
 Frc consts  --      6.3093                 6.3244                 6.7931
 IR Inten    --     27.1862                 3.4815                 9.2412

                     79                     80                     81
                      A                      A                      A
 Frequencies --   3260.7351              3490.4667              3576.5341
 Red. masses --      1.0975                 1.0489                 1.0931
 Frc consts  --      6.8751                 7.5292                 8.2381
 IR Inten    --      1.3677                 0.3465                 0.0145

                     82                     83                     84
                      A                      A                      A
 Frequencies --   3596.0628              3651.6902              3804.5771
 Red. masses --      1.0830                 1.0779                 1.0656
 Frc consts  --      8.2511                 8.4686                 9.0875
 IR Inten    --    141.2980                30.6718                43.6379

 - Thermochemistry -
 -------------------
 Temperature   298.150 Kelvin.  Pressure   1.00000 Atm.
 Atom     1 has atomic number  8 and mass  15.99491

 Molecular mass:   226.10659 amu.
 Principal axes and moments of inertia in atomic units:
                           1         2         3
     Eigenvalues --  3305.464243946.949066649.64761
           X            0.32445   0.90663   0.26973
           Y            0.87571  -0.39570   0.27668
           Z           -0.35758  -0.14643   0.92233
 This molecule is an asymmetric top.
 Rotational symmetry number  1.
 Warning -- assumption of classical behavior for rotation
           may cause significant error
 Rotational temperatures (Kelvin)      0.02620     0.02194     0.01303
 Rotational constants (GHZ):           0.54599     0.45725     0.27140
 Zero-point vibrational energy     645535.5 (Joules/Mol)
                                  154.28668 (Kcal/Mol)
 Warning -- explicit consideration of  22 degrees of freedom as
           vibrations may cause significant error
 Vibrational temperatures:     30.29    41.68    70.68    91.57   110.23
          (Kelvin)            133.10   140.05   196.08   235.85   289.10
                              307.13   415.65   453.90   475.76   496.50
                              499.34   580.80   589.71   682.44   716.95
                              757.11   865.88   919.46   959.64   977.50
                             1022.12  1066.12  1094.78  1115.68  1135.08
                             1160.38  1204.25  1223.23  1247.31  1335.16
                             1352.58  1367.85  1419.87  1473.85  1487.10
                             1500.16  1593.61  1615.60  1626.45  1661.86
                             1676.44  1702.47  1739.83  1810.81  1829.99
                             1845.94  1869.37  1874.95  1893.46  1946.08
                             1967.84  2001.92  2006.89  2017.01  2031.53
                             2086.91  2139.64  2141.77  2175.76  2183.75
                             2242.08  2333.36  2407.77  2514.53  2708.75
                             4361.96  4378.93  4389.75  4401.96  4446.41
                             4479.05  4506.39  4666.13  4691.46  5022.00
                             5145.83  5173.93  5253.96  5473.93

 Zero-point correction=                           0.245871 (Hartree/Particle)
 Thermal correction to Energy=                    0.261864
 Thermal correction to Enthalpy=                  0.262808
 Thermal correction to Gibbs Free Energy=         0.199908
 Sum of electronic and zero-point Energies=           -795.910978
 Sum of electronic and thermal Energies=              -795.894986
 Sum of electronic and thermal Enthalpies=            -795.894041
 Sum of electronic and thermal Free Energies=         -795.956942

                     E (Thermal)             CV                S
                      KCal/Mol        Cal/Mol-Kelvin    Cal/Mol-Kelvin
 Total                  164.322             58.338            132.385
 Electronic               0.000              0.000              0.000
 Translational            0.889              2.981             42.150
 Rotational               0.889              2.981             32.828
 Vibrational            162.545             52.377             57.407
 Vibration     1          0.593              1.985              6.533
 Vibration     2          0.593              1.984              5.899
 Vibration     3          0.595              1.978              4.852
 Vibration     4          0.597              1.972              4.341
 Vibration     5          0.599              1.965              3.976
 Vibration     6          0.602              1.955              3.606
 Vibration     7          0.603              1.951              3.507
 Vibration     8          0.614              1.917              2.855
 Vibration     9          0.623              1.887              2.504
 Vibration    10          0.638              1.839              2.125
 Vibration    11          0.644              1.820              2.014
 Vibration    12          0.685              1.694              1.480
 Vibration    13          0.703              1.644              1.333
 Vibration    14          0.713              1.614              1.257
 Vibration    15          0.723              1.585              1.189
 Vibration    16          0.725              1.581              1.180
 Vibration    17          0.769              1.462              0.949
 Vibration    18          0.774              1.449              0.927
 Vibration    19          0.831              1.307              0.726
 Vibration    20          0.854              1.254              0.662
 Vibration    21          0.881              1.192              0.596
 Vibration    22          0.960              1.028              0.447

 Optimization completed.
    -- Stationary point found.
 Normal termination of Gaussian 09 at Sat Jul 24 01:43:09 2021.
