 Gaussian 09, Revision D.01,
 Gaussian 09:  ES64L-G09RevD.01 24-Apr-2013

 ----------------------------------------------------------------------
 # B3LYP/6-31G(d,p) EmpiricalDispersion=GD3BJ opt=calcfc freq=noraman n
 osymm integral(ultrafinegrid)
 ----------------------------------------------------------------------

 ------------------------------------------------------------
 Candidate Structure: Conf:599 OPT and FREQ calc in gas phase
 ------------------------------------------------------------
 Symbolic Z-matrix:
 Charge =  0 Multiplicity = 1

 SCF Done:  E(RB3LYP) =  -796.159870624     A.U. after   15 cycles
 SCF Done:  E(RB3LYP) =  -796.161617185     A.U. after   15 cycles
 SCF Done:  E(RB3LYP) =  -796.157286165     A.U. after   15 cycles
 SCF Done:  E(RB3LYP) =  -796.161823063     A.U. after   11 cycles
 SCF Done:  E(RB3LYP) =  -796.162043651     A.U. after   12 cycles
 SCF Done:  E(RB3LYP) =  -796.162073155     A.U. after   11 cycles
 SCF Done:  E(RB3LYP) =  -796.162077480     A.U. after   10 cycles
 SCF Done:  E(RB3LYP) =  -796.162077791     A.U. after    8 cycles
 Optimization completed.
    -- Stationary point found.
 Normal termination of Gaussian 09 at Sat Jul 24 01:07:15 2021.

 ----------------------------------------------------------------------
 #N Geom=AllCheck Guess=TCheck SCRF=Check GenChk RB3LYP/6-31G(d,p) Freq
 ----------------------------------------------------------------------

 Structure from the checkpoint file:  "conf-599.chk"
 ------------------------------------------------------------
 Candidate Structure: Conf:599 OPT and FREQ calc in gas phase
 ------------------------------------------------------------
 Charge =  0 Multiplicity = 1

                          Input orientation:
 ---------------------------------------------------------------------
 Center     Atomic      Atomic             Coordinates (Angstroms)
 Number     Number       Type             X           Y           Z
 ---------------------------------------------------------------------
      1          8           0        2.750496    1.604784    0.697367
      2          6           0        1.918441    0.798869    0.313606
      3          7           0        1.095831    1.128183   -0.766680
      4          6           0       -0.198287    0.504029   -1.042740
      5          6           0       -0.414229    0.443917   -2.566404
      6          8           0        0.710115    0.419422   -3.292093
      7          8           0       -1.505995    0.392884   -3.089575
      8          6           0       -1.380848    1.168327   -0.295163
      9          6           0       -2.532048    0.254910   -0.033603
     10          6           0       -3.064496   -0.229860    1.140828
     11          7           0       -4.129911   -1.065469    0.889799
     12          6           0       -4.241949   -1.091675   -0.424012
     13          7           0       -3.304101   -0.308165   -1.030053
     14          6           0        1.752704   -0.583632    0.923756
     15          6           0        2.809210   -0.873616    2.006127
     16          7           0        4.196916   -0.896627    1.566350
     17          1           0        1.149044    2.125585   -0.958435
     18          1           0       -0.134341   -0.538812   -0.718791
     19          1           0        1.455730    0.532951   -2.670036
     20          1           0       -1.693894    2.062832   -0.847872
     21          1           0       -1.003496    1.506743    0.673938
     22          1           0       -2.743308   -0.009518    2.150177
     23          1           0       -4.975371   -1.654253   -0.984455
     24          1           0       -3.114468   -0.176639   -2.017079
     25          1           0        0.742948   -0.664333    1.350176
     26          1           0        1.806836   -1.338521    0.127270
     27          1           0        2.718538   -0.117226    2.791418
     28          1           0        2.566948   -1.838836    2.464096
     29          1           0        4.325454   -1.574579    0.818945
     30          1           0        4.437457    0.018384    1.195432
 ---------------------------------------------------------------------

 SCF Done:  E(RB3LYP) =  -796.162077791     A.U. after    1 cycles

 Alpha  occ. eigenvalues --  -19.22233 -19.16971 -19.15339 -14.39998 -14.38234
 Alpha  occ. eigenvalues --  -14.31420 -14.30836 -10.35234 -10.32443 -10.27936
 Alpha  occ. eigenvalues --  -10.23599 -10.22924 -10.22171 -10.22143 -10.21969
 Alpha  occ. eigenvalues --  -10.19717  -1.13418  -1.07254  -1.05132  -1.00851
 Alpha  occ. eigenvalues --   -0.96292  -0.88701  -0.86558  -0.81553  -0.77767
 Alpha  occ. eigenvalues --   -0.74711  -0.68817  -0.66048  -0.63857  -0.60665
 Alpha  occ. eigenvalues --   -0.59377  -0.58888  -0.57051  -0.54488  -0.53417
 Alpha  occ. eigenvalues --   -0.51089  -0.48903  -0.48444  -0.48028  -0.46865
 Alpha  occ. eigenvalues --   -0.45690  -0.44269  -0.43701  -0.43161  -0.42799
 Alpha  occ. eigenvalues --   -0.41612  -0.40751  -0.40415  -0.39815  -0.38668
 Alpha  occ. eigenvalues --   -0.38097  -0.36496  -0.34610  -0.31895  -0.30337
 Alpha  occ. eigenvalues --   -0.28274  -0.27567  -0.26193  -0.23865  -0.22474
 Alpha virt. eigenvalues --   -0.02767  -0.01868   0.02488   0.05264   0.06470
 Alpha virt. eigenvalues --    0.06922   0.08352   0.09137   0.10595   0.11790
 Alpha virt. eigenvalues --    0.12567   0.12901   0.13579   0.14880   0.15288

 Mulliken charges:
               1
     1  O   -0.480840
     2  C    0.578474
     3  N   -0.593204
     4  C   -0.035886
     5  C    0.616223
     6  O   -0.469201
     7  O   -0.470922
     8  C   -0.240080
     9  C    0.266850
    10  C   -0.016675
    11  N   -0.444303
    12  C    0.258873
    13  N   -0.526658
    14  C   -0.295255
    15  C   -0.049906
    16  N   -0.594218
    17  H    0.277544
    18  H    0.165996
    19  H    0.337507
    20  H    0.129923
    21  H    0.126154
    22  H    0.083210
    23  H    0.113008
    24  H    0.291549
    25  H    0.135318
    26  H    0.120263
    27  H    0.125597
    28  H    0.105601
    29  H    0.227361
    30  H    0.257698
 Sum of Mulliken charges =   0.00000

 Dipole moment (field-independent basis, Debye):
    X=              1.4409    Y=              0.5318    Z=             -2.0623  Tot=              2.5714
 Quadrupole moment (field-independent basis, Debye-Ang):
   XX=           -116.5317   YY=            -92.1438   ZZ=           -106.0161
   XY=             -6.1496   XZ=             -2.8810   YZ=              2.5921

  Exact polarizability: 150.025  20.036  97.612  10.250  -3.849 123.318
 Approx polarizability: 204.515  36.932 154.303  12.583  -0.706 192.432

                      1                      2                      3
                      A                      A                      A
 Frequencies --     17.0724                34.7069                51.8525
 Red. masses --      5.6871                 4.7905                 3.5277
 Frc consts  --      0.0010                 0.0034                 0.0056
 IR Inten    --      0.4412                 0.3404                 3.0506

                      4                      5                      6
                      A                      A                      A
 Frequencies --     65.8567                82.2149                90.8178
 Red. masses --      6.5651                 5.0052                 6.3403
 Frc consts  --      0.0168                 0.0199                 0.0308
 IR Inten    --      0.5161                 0.2663                 9.5430

                      7                      8                      9
                      A                      A                      A
 Frequencies --    137.2119               148.8784               162.2892
 Red. masses --      4.9755                 5.8146                 2.9921
 Frc consts  --      0.0552                 0.0759                 0.0464
 IR Inten    --      1.9264                12.7788                 6.0743

                     10                     11                     12
                      A                      A                      A
 Frequencies --    208.4679               248.7832               283.2174
 Red. masses --      4.3338                 3.1584                 4.6232
 Frc consts  --      0.1110                 0.1152                 0.2185
 IR Inten    --      6.9552                 7.9041                 8.4075

                     13                     14                     15
                      A                      A                      A
 Frequencies --    317.5088               338.4921               370.7555
 Red. masses --      4.1249                 2.8995                 1.1515
 Frc consts  --      0.2450                 0.1957                 0.0933
 IR Inten    --      1.5057                 5.1355                53.7740

                     16                     17                     18
                      A                      A                      A
 Frequencies --    372.2643               417.2520               446.6619
 Red. masses --      4.8569                 2.8122                 5.4636
 Frc consts  --      0.3966                 0.2885                 0.6422
 IR Inten    --     13.3971                11.4892                 0.7623

                     19                     20                     21
                      A                      A                      A
 Frequencies --    523.1559               550.7781               600.8453
 Red. masses --      2.3997                 2.7513                 4.0818
 Frc consts  --      0.3870                 0.4917                 0.8682
 IR Inten    --     21.3879                 2.7305                10.7416

                     22                     23                     24
                      A                      A                      A
 Frequencies --    626.7747               651.0002               674.7348
 Red. masses --      3.4216                 3.3366                 3.0231
 Frc consts  --      0.7920                 0.8331                 0.8109
 IR Inten    --     38.2436                 5.8561                28.9142

                     25                     26                     27
                      A                      A                      A
 Frequencies --    689.1772               720.4185               736.7379
 Red. masses --      1.5583                 3.7498                 1.2170
 Frc consts  --      0.4361                 1.1466                 0.3892
 IR Inten    --     79.1631                 4.6222                65.6945

                     28                     29                     30
                      A                      A                      A
 Frequencies --    748.0206               808.5757               812.7513
 Red. masses --      3.4895                 1.9850                 1.4899
 Frc consts  --      1.1504                 0.7646                 0.5799
 IR Inten    --      3.6442                40.7030                67.5326

                     31                     32                     33
                      A                      A                      A
 Frequencies --    819.6651               836.4255               843.5142
 Red. masses --      1.3972                 2.2691                 1.3791
 Frc consts  --      0.5531                 0.9353                 0.5781
 IR Inten    --     50.0267                48.3413                17.2266

                     34                     35                     36
                      A                      A                      A
 Frequencies --    875.3147               891.9334               934.2951
 Red. masses --      1.5229                 2.6912                 1.5998
 Frc consts  --      0.6875                 1.2614                 0.8228
 IR Inten    --    207.6902                19.7549                11.5730

                     37                     38                     39
                      A                      A                      A
 Frequencies --    944.5836               989.8946              1028.6728
 Red. masses --      5.8432                 2.6745                 2.1714
 Frc consts  --      3.0717                 1.5441                 1.3538
 IR Inten    --     16.3227                 3.6550                70.7954

                     40                     41                     42
                      A                      A                      A
 Frequencies --   1032.1007              1061.9095              1118.3901
 Red. masses --      3.7317                 4.2968                 2.3541
 Frc consts  --      2.3421                 2.8548                 1.7349
 IR Inten    --      7.1168                21.3540                 4.3221

                     43                     44                     45
                      A                      A                      A
 Frequencies --   1129.0419              1137.0307              1156.4451
 Red. masses --      1.5437                 3.3019                 2.0806
 Frc consts  --      1.1594                 2.5151                 1.6394
 IR Inten    --     66.1776                28.2770                 9.5701

                     46                     47                     48
                      A                      A                      A
 Frequencies --   1168.6894              1199.9645              1222.0501
 Red. masses --      1.4388                 1.3147                 2.0952
 Frc consts  --      1.1578                 1.1154                 1.8435
 IR Inten    --     34.8212                 1.8379                19.9378

                     49                     50                     51
                      A                      A                      A
 Frequencies --   1250.6539              1273.4235              1278.0168
 Red. masses --      1.6504                 2.0188                 1.5647
 Frc consts  --      1.5209                 1.9288                 1.5058
 IR Inten    --     65.5581                22.3691                87.2211

                     52                     53                     54
                      A                      A                      A
 Frequencies --   1284.5798              1308.2409              1325.7436
 Red. masses --      1.6534                 1.2766                 1.3619
 Frc consts  --      1.6075                 1.2873                 1.4103
 IR Inten    --     58.4177                 2.0122                24.2375

                     55                     56                     57
                      A                      A                      A
 Frequencies --   1372.3740              1378.9629              1397.6915
 Red. masses --      1.5121                 1.8061                 1.6290
 Frc consts  --      1.6780                 2.0235                 1.8750
 IR Inten    --      2.5717               171.6690               286.6672

                     58                     59                     60
                      A                      A                      A
 Frequencies --   1402.1567              1404.6745              1417.6781
 Red. masses --      3.3721                 1.3213                 1.5546
 Frc consts  --      3.9060                 1.5360                 1.8409
 IR Inten    --     14.1201                24.3347                68.6454

                     61                     62                     63
                      A                      A                      A
 Frequencies --   1444.9332              1463.6011              1478.3233
 Red. masses --      2.9036                 1.1693                 1.4204
 Frc consts  --      3.5718                 1.4758                 1.8289
 IR Inten    --     41.3492                10.1959                38.0199

                     64                     65                     66
                      A                      A                      A
 Frequencies --   1485.8254              1496.0101              1515.3393
 Red. masses --      1.1279                 1.0927                 3.4764
 Frc consts  --      1.4671                 1.4408                 4.7033
 IR Inten    --     12.4624                 4.0747                18.9108

                     67                     68                     69
                      A                      A                      A
 Frequencies --   1619.4327              1669.3920              1797.2401
 Red. masses --      4.5630                 1.0936                 8.5418
 Frc consts  --      7.0505                 1.7957                16.2560
 IR Inten    --     13.9541                24.2143               360.6495

                     70                     71                     72
                      A                      A                      A
 Frequencies --   1853.1661              3021.5434              3043.4085
 Red. masses --      9.8239                 1.0608                 1.0656
 Frc consts  --     19.8776                 5.7061                 5.8151
 IR Inten    --    225.1239                18.6870                20.8388

                     73                     74                     75
                      A                      A                      A
 Frequencies --   3055.0799              3063.5825              3097.2796
 Red. masses --      1.0796                 1.0831                 1.0827
 Frc consts  --      5.9367                 5.9896                 6.1193
 IR Inten    --     12.6135                31.9224                 7.6098

                     76                     77                     78
                      A                      A                      A
 Frequencies --   3107.2133              3108.7984              3243.1960
 Red. masses --      1.0981                 1.1037                 1.0963
 Frc consts  --      6.2465                 6.2849                 6.7938
 IR Inten    --      6.0524                20.1064                 8.7170

                     79                     80                     81
                      A                      A                      A
 Frequencies --   3261.4353              3496.8451              3544.7814
 Red. masses --      1.0975                 1.0493                 1.0750
 Frc consts  --      6.8781                 7.5596                 7.9590
 IR Inten    --      2.2399                 3.5493                22.2687

                     82                     83                     84
                      A                      A                      A
 Frequencies --   3590.4571              3592.2479              3628.8400
 Red. masses --      1.0825                 1.0923                 1.0646
 Frc consts  --      8.2219                 8.3051                 8.2598
 IR Inten    --    197.7612                 4.9210               188.9020

 - Thermochemistry -
 -------------------
 Temperature   298.150 Kelvin.  Pressure   1.00000 Atm.
 Atom     1 has atomic number  8 and mass  15.99491

 Molecular mass:   226.10659 amu.
 Principal axes and moments of inertia in atomic units:
                           1         2         3
     Eigenvalues --  2460.632346088.825637688.20493
           X            0.97109  -0.20035  -0.12980
           Y            0.06123  -0.31652   0.94661
           Z            0.23074   0.92719   0.29510
 This molecule is an asymmetric top.
 Rotational symmetry number  1.
 Warning -- assumption of classical behavior for rotation
           may cause significant error
 Rotational temperatures (Kelvin)      0.03520     0.01423     0.01127
 Rotational constants (GHZ):           0.73345     0.29640     0.23474
 Zero-point vibrational energy     646577.8 (Joules/Mol)
                                  154.53580 (Kcal/Mol)
 Warning -- explicit consideration of  21 degrees of freedom as
           vibrations may cause significant error
 Vibrational temperatures:     24.56    49.94    74.60    94.75   118.29
          (Kelvin)            130.67   197.42   214.20   233.50   299.94
                              357.94   407.49   456.82   487.01   533.43
                              535.60   600.33   642.65   752.70   792.45
                              864.48   901.79   936.64   970.79   991.57
                             1036.52  1060.00  1076.23  1163.36  1169.37
                             1179.31  1203.43  1213.63  1259.38  1283.29
                             1344.24  1359.04  1424.24  1480.03  1484.96
                             1527.85  1609.11  1624.44  1635.93  1663.86
                             1681.48  1726.48  1758.26  1799.41  1832.17
                             1838.78  1848.22  1882.26  1907.45  1974.54
                             1984.02  2010.96  2017.39  2021.01  2039.72
                             2078.93  2105.79  2126.97  2137.77  2152.42
                             2180.23  2330.00  2401.88  2585.82  2666.29
                             4347.32  4378.78  4395.57  4407.81  4456.29
                             4470.58  4472.86  4666.23  4692.47  5031.17
                             5100.14  5165.86  5168.44  5221.08

 Zero-point correction=                           0.246268 (Hartree/Particle)
 Thermal correction to Energy=                    0.261817
 Thermal correction to Enthalpy=                  0.262761
 Thermal correction to Gibbs Free Energy=         0.200817
 Sum of electronic and zero-point Energies=           -795.915809
 Sum of electronic and thermal Energies=              -795.900261
 Sum of electronic and thermal Enthalpies=            -795.899316
 Sum of electronic and thermal Free Energies=         -795.961261

                     E (Thermal)             CV                S
                      KCal/Mol        Cal/Mol-Kelvin    Cal/Mol-Kelvin
 Total                  164.293             57.408            130.373
 Electronic               0.000              0.000              0.000
 Translational            0.889              2.981             42.150
 Rotational               0.889              2.981             33.110
 Vibrational            162.515             51.447             55.113
 Vibration     1          0.593              1.986              6.949
 Vibration     2          0.594              1.983              5.540
 Vibration     3          0.596              1.977              4.745
 Vibration     4          0.597              1.971              4.274
 Vibration     5          0.600              1.961              3.837
 Vibration     6          0.602              1.956              3.642
 Vibration     7          0.614              1.916              2.842
 Vibration     8          0.618              1.904              2.687
 Vibration     9          0.622              1.889              2.523
 Vibration    10          0.642              1.828              2.057
 Vibration    11          0.662              1.765              1.739
 Vibration    12          0.682              1.705              1.514
 Vibration    13          0.704              1.640              1.323
 Vibration    14          0.719              1.599              1.219
 Vibration    15          0.743              1.532              1.077
 Vibration    16          0.744              1.529              1.070
 Vibration    17          0.780              1.433              0.901
 Vibration    18          0.806              1.368              0.806
 Vibration    19          0.878              1.199              0.603
 Vibration    20          0.906              1.138              0.543
 Vibration    21          0.959              1.030              0.448

 Optimization completed.
    -- Stationary point found.
 Normal termination of Gaussian 09 at Sat Jul 24 01:27:05 2021.
