 Gaussian 09, Revision D.01,
 Gaussian 09:  ES64L-G09RevD.01 24-Apr-2013

 ----------------------------------------------------------------------
 # B3LYP/6-31G(d,p) EmpiricalDispersion=GD3BJ opt=calcfc freq=noraman n
 osymm integral(ultrafinegrid)
 ----------------------------------------------------------------------

 ------------------------------------------------------------
 Candidate Structure: Conf:640 OPT and FREQ calc in gas phase
 ------------------------------------------------------------
 Symbolic Z-matrix:
 Charge =  0 Multiplicity = 1

 SCF Done:  E(RB3LYP) =  -796.168489925     A.U. after   14 cycles
 SCF Done:  E(RB3LYP) =  -796.170554550     A.U. after   12 cycles
 SCF Done:  E(RB3LYP) =  -796.171104188     A.U. after   13 cycles
 SCF Done:  E(RB3LYP) =  -796.170065343     A.U. after   12 cycles
 SCF Done:  E(RB3LYP) =  -796.171104627     A.U. after    7 cycles
 SCF Done:  E(RB3LYP) =  -796.171211850     A.U. after   12 cycles
 SCF Done:  E(RB3LYP) =  -796.171231155     A.U. after   11 cycles
 SCF Done:  E(RB3LYP) =  -796.171232330     A.U. after    9 cycles
 SCF Done:  E(RB3LYP) =  -796.171232641     A.U. after    8 cycles
 SCF Done:  E(RB3LYP) =  -796.171232686     A.U. after    7 cycles
 SCF Done:  E(RB3LYP) =  -796.171232705     A.U. after    7 cycles
 Optimization completed on the basis of negligible forces.
    -- Stationary point found.
 Normal termination of Gaussian 09 at Sat Jul 24 01:11:06 2021.

 ----------------------------------------------------------------------
 #N Geom=AllCheck Guess=TCheck SCRF=Check GenChk RB3LYP/6-31G(d,p) Freq
 ----------------------------------------------------------------------

 Structure from the checkpoint file:  "conf-640.chk"
 ------------------------------------------------------------
 Candidate Structure: Conf:640 OPT and FREQ calc in gas phase
 ------------------------------------------------------------
 Charge =  0 Multiplicity = 1

                          Input orientation:
 ---------------------------------------------------------------------
 Center     Atomic      Atomic             Coordinates (Angstroms)
 Number     Number       Type             X           Y           Z
 ---------------------------------------------------------------------
      1          8           0        0.932736   -1.245242   -1.208393
      2          6           0        1.170533   -0.125135   -0.741762
      3          7           0        0.262372    0.885382   -0.782329
      4          6           0       -0.995389    0.752835   -1.483372
      5          6           0       -1.203861    1.992425   -2.335170
      6          8           0       -2.202844    1.825357   -3.222411
      7          8           0       -0.585509    3.026985   -2.207177
      8          6           0       -2.225813    0.570479   -0.547728
      9          6           0       -2.035495   -0.430145    0.545116
     10          6           0       -2.509964   -0.447650    1.837414
     11          7           0       -2.130205   -1.600813    2.489151
     12          6           0       -1.424587   -2.274090    1.602935
     13          7           0       -1.353843   -1.625469    0.402157
     14          6           0        2.460466    0.160719   -0.005823
     15          6           0        2.557708   -0.731610    1.257219
     16          7           0        3.785279   -0.595890    2.028498
     17          1           0        0.535172    1.821588   -0.517008
     18          1           0       -0.909653   -0.121595   -2.134189
     19          1           0       -2.307021    2.670826   -3.691762
     20          1           0       -3.076773    0.313240   -1.190346
     21          1           0       -2.466808    1.531803   -0.080662
     22          1           0       -3.112551    0.305806    2.326655
     23          1           0       -0.940977   -3.226372    1.769926
     24          1           0       -0.708738   -1.840399   -0.355842
     25          1           0        2.543522    1.218236    0.270597
     26          1           0        3.290283   -0.079264   -0.679482
     27          1           0        1.708633   -0.514227    1.915140
     28          1           0        2.450104   -1.773378    0.941987
     29          1           0        3.900296    0.362435    2.349499
     30          1           0        4.593006   -0.806962    1.447112
 ---------------------------------------------------------------------

 SCF Done:  E(RB3LYP) =  -796.171232705     A.U. after    1 cycles

 Alpha  occ. eigenvalues --  -19.22485 -19.16833 -19.13341 -14.38185 -14.37053
 Alpha  occ. eigenvalues --  -14.32076 -14.29823 -10.34756 -10.30658 -10.26158
 Alpha  occ. eigenvalues --  -10.22463 -10.21867 -10.21783 -10.21132 -10.20520
 Alpha  occ. eigenvalues --  -10.18496  -1.13477  -1.05339  -1.04410  -0.99660
 Alpha  occ. eigenvalues --   -0.94760  -0.88936  -0.85464  -0.81313  -0.76651
 Alpha  occ. eigenvalues --   -0.74000  -0.67793  -0.65308  -0.61958  -0.60942
 Alpha  occ. eigenvalues --   -0.59265  -0.57570  -0.54381  -0.51678  -0.51648
 Alpha  occ. eigenvalues --   -0.50925  -0.49613  -0.48692  -0.47636  -0.46111
 Alpha  occ. eigenvalues --   -0.44495  -0.43822  -0.42586  -0.42010  -0.41613
 Alpha  occ. eigenvalues --   -0.40719  -0.40169  -0.39476  -0.38843  -0.38307
 Alpha  occ. eigenvalues --   -0.36833  -0.35122  -0.34604  -0.30714  -0.28147
 Alpha  occ. eigenvalues --   -0.27598  -0.26515  -0.25201  -0.23995  -0.21257
 Alpha virt. eigenvalues --   -0.01730   0.00202   0.03671   0.05539   0.06871
 Alpha virt. eigenvalues --    0.07678   0.08117   0.10103   0.12004   0.12382
 Alpha virt. eigenvalues --    0.13356   0.14749   0.15058   0.15417   0.16654

 Mulliken charges:
               1
     1  O   -0.554964
     2  C    0.598104
     3  N   -0.499359
     4  C   -0.025131
     5  C    0.581885
     6  O   -0.475316
     7  O   -0.468749
     8  C   -0.234448
     9  C    0.286385
    10  C   -0.021259
    11  N   -0.446535
    12  C    0.250923
    13  N   -0.542007
    14  C   -0.257986
    15  C   -0.063903
    16  N   -0.588415
    17  H    0.277498
    18  H    0.162311
    19  H    0.332110
    20  H    0.141732
    21  H    0.117365
    22  H    0.079516
    23  H    0.110065
    24  H    0.289549
    25  H    0.089185
    26  H    0.128240
    27  H    0.127200
    28  H    0.132286
    29  H    0.236351
    30  H    0.237367
 Sum of Mulliken charges =   0.00000

 Dipole moment (field-independent basis, Debye):
    X=              1.2509    Y=              3.6239    Z=             -3.9215  Tot=              5.4841
 Quadrupole moment (field-independent basis, Debye-Ang):
   XX=            -86.9306   YY=            -94.0751   ZZ=           -101.6591
   XY=             -4.7543   XZ=             10.3619   YZ=              3.4205

  Exact polarizability: 124.120 -11.706 123.367   6.564 -19.213 122.254
 Approx polarizability: 165.935 -16.317 202.231   0.680  -6.116 183.730

                      1                      2                      3
                      A                      A                      A
 Frequencies --     14.4025                23.3768                55.0310
 Red. masses --      4.7403                 3.5374                 6.3373
 Frc consts  --      0.0006                 0.0011                 0.0113
 IR Inten    --      0.8230                 2.3580                 3.0691

                      4                      5                      6
                      A                      A                      A
 Frequencies --     62.6722                72.7480                86.0544
 Red. masses --      5.6725                 5.2071                 1.9412
 Frc consts  --      0.0131                 0.0162                 0.0085
 IR Inten    --      0.3425                 4.3494                 2.0225

                      7                      8                      9
                      A                      A                      A
 Frequencies --    101.7593               147.8874               169.4437
 Red. masses --      6.1238                 5.0837                 6.5847
 Frc consts  --      0.0374                 0.0655                 0.1114
 IR Inten    --      0.5474                 7.5867                 8.1132

                     10                     11                     12
                      A                      A                      A
 Frequencies --    184.7622               202.6205               271.9714
 Red. masses --      4.7274                 4.9735                 5.0402
 Frc consts  --      0.0951                 0.1203                 0.2197
 IR Inten    --     14.4731                12.6422                 2.0248

                     13                     14                     15
                      A                      A                      A
 Frequencies --    299.4648               317.3802               323.2082
 Red. masses --      3.1272                 1.1543                 5.5950
 Frc consts  --      0.1652                 0.0685                 0.3444
 IR Inten    --      3.4959                44.0382                 3.1325

                     16                     17                     18
                      A                      A                      A
 Frequencies --    342.9983               393.7815               455.5848
 Red. masses --      3.5260                 3.6820                 3.6810
 Frc consts  --      0.2444                 0.3364                 0.4502
 IR Inten    --      5.3698                 2.7790                 8.8357

                     19                     20                     21
                      A                      A                      A
 Frequencies --    520.2108               529.0578               609.4995
 Red. masses --      1.4282                 2.5729                 1.4450
 Frc consts  --      0.2277                 0.4243                 0.3163
 IR Inten    --     50.7972                57.2953                83.1236

                     22                     23                     24
                      A                      A                      A
 Frequencies --    628.1109               632.6012               657.0084
 Red. masses --      3.4515                 3.7337                 3.6495
 Frc consts  --      0.8023                 0.8803                 0.9282
 IR Inten    --     15.0924                37.9300                43.3935

                     25                     26                     27
                      A                      A                      A
 Frequencies --    676.0649               707.1862               738.8777
 Red. masses --      3.8594                 2.9553                 1.2965
 Frc consts  --      1.0393                 0.8708                 0.4170
 IR Inten    --     29.3355                35.1701               123.7608

                     28                     29                     30
                      A                      A                      A
 Frequencies --    757.7912               775.7984               785.6899
 Red. masses --      4.3893                 1.1721                 4.0157
 Frc consts  --      1.4851                 0.4156                 1.4606
 IR Inten    --      9.2020                 1.7442                18.2083

                     31                     32                     33
                      A                      A                      A
 Frequencies --    804.2860               837.5217               847.5498
 Red. masses --      1.3785                 1.3223                 1.5026
 Frc consts  --      0.5254                 0.5465                 0.6359
 IR Inten    --     12.3514                25.4489               228.2382

                     34                     35                     36
                      A                      A                      A
 Frequencies --    899.1948               937.7137               945.5492
 Red. masses --      2.0944                 4.3821                 5.6021
 Frc consts  --      0.9978                 2.2702                 2.9510
 IR Inten    --      1.3811                 0.4497                18.6088

                     37                     38                     39
                      A                      A                      A
 Frequencies --    982.8240               998.2032              1013.6076
 Red. masses --      1.3884                 3.2366                 4.4265
 Frc consts  --      0.7901                 1.9001                 2.6795
 IR Inten    --      5.5545                13.6029                81.6677

                     40                     41                     42
                      A                      A                      A
 Frequencies --   1025.3721              1048.8380              1111.3088
 Red. masses --      3.6439                 3.1183                 1.9241
 Frc consts  --      2.2572                 2.0211                 1.4001
 IR Inten    --     17.3727                 5.4834                 6.8503

                     43                     44                     45
                      A                      A                      A
 Frequencies --   1121.9415              1149.1347              1157.7446
 Red. masses --      2.4720                 1.9214                 2.1288
 Frc consts  --      1.8333                 1.4949                 1.6811
 IR Inten    --     24.8880                31.3979               100.5347

                     46                     47                     48
                      A                      A                      A
 Frequencies --   1161.6361              1189.4543              1232.8148
 Red. masses --      1.8036                 1.9453                 1.5248
 Frc consts  --      1.4339                 1.6215                 1.3654
 IR Inten    --     27.7378                87.7822                17.7943

                     49                     50                     51
                      A                      A                      A
 Frequencies --   1253.9489              1271.4764              1285.1952
 Red. masses --      1.4968                 1.7232                 1.4452
 Frc consts  --      1.3866                 1.6413                 1.4064
 IR Inten    --      7.9821                 8.7992                 8.3730

                     52                     53                     54
                      A                      A                      A
 Frequencies --   1289.5593              1300.3580              1335.1297
 Red. masses --      1.5961                 1.3364                 1.3930
 Frc consts  --      1.5639                 1.3314                 1.4630
 IR Inten    --     15.9805                 7.5251                 8.2971

                     55                     56                     57
                      A                      A                      A
 Frequencies --   1361.2091              1376.2767              1389.7208
 Red. masses --      1.8472                 1.4043                 1.2432
 Frc consts  --      2.0166                 1.5672                 1.4147
 IR Inten    --      0.2919                 9.9195                10.9020

                     58                     59                     60
                      A                      A                      A
 Frequencies --   1400.9114              1402.8483              1419.1635
 Red. masses --      1.2763                 2.5679                 2.8737
 Frc consts  --      1.4758                 2.9775                 3.4100
 IR Inten    --      9.4083                 6.0520               213.1965

                     61                     62                     63
                      A                      A                      A
 Frequencies --   1468.6273              1490.6228              1493.9027
 Red. masses --      2.1976                 1.1270                 1.1814
 Frc consts  --      2.7927                 1.4754                 1.5534
 IR Inten    --     32.2230                 2.5470                15.0368

                     64                     65                     66
                      A                      A                      A
 Frequencies --   1512.9809              1515.2676              1555.6172
 Red. masses --      1.1081                 3.1676                 2.2858
 Frc consts  --      1.4946                 4.2851                 3.2591
 IR Inten    --      5.4081                13.6703               256.2042

                     67                     68                     69
                      A                      A                      A
 Frequencies --   1624.3298              1672.8836              1731.8765
 Red. masses --      3.8500                 1.0926                 8.4727
 Frc consts  --      5.9849                 1.8015                14.9729
 IR Inten    --      9.3314                24.3197               180.8782

                     70                     71                     72
                      A                      A                      A
 Frequencies --   1840.2646              3041.3653              3045.3643
 Red. masses --     10.0601                 1.0615                 1.0593
 Frc consts  --     20.0730                 5.7851                 5.7885
 IR Inten    --    246.1831                24.0396                10.3990

                     73                     74                     75
                      A                      A                      A
 Frequencies --   3059.8935              3081.4286              3093.8416
 Red. masses --      1.0642                 1.0995                 1.1013
 Frc consts  --      5.8708                 6.1509                 6.2107
 IR Inten    --     28.5146                 9.2098                 4.5061

                     76                     77                     78
                      A                      A                      A
 Frequencies --   3105.2909              3118.2149              3244.2000
 Red. masses --      1.0861                 1.1059                 1.0961
 Frc consts  --      6.1704                 6.3356                 6.7967
 IR Inten    --      7.7918                25.6324                 9.8949

                     79                     80                     81
                      A                      A                      A
 Frequencies --   3259.7102              3490.3794              3498.6113
 Red. masses --      1.0974                 1.0488                 1.0848
 Frc consts  --      6.8701                 7.5284                 7.8230
 IR Inten    --      1.7164                 0.2140               278.4725

                     82                     83                     84
                      A                      A                      A
 Frequencies --   3576.9510              3630.8914              3748.9145
 Red. masses --      1.0931                 1.0776                 1.0642
 Frc consts  --      8.2404                 8.3702                 8.8123
 IR Inten    --      0.0270                55.7125                72.8529

 - Thermochemistry -
 -------------------
 Temperature   298.150 Kelvin.  Pressure   1.00000 Atm.
 Atom     1 has atomic number  8 and mass  15.99491

 Molecular mass:   226.10659 amu.
 Principal axes and moments of inertia in atomic units:
                           1         2         3
     Eigenvalues --  3171.305294434.504766675.54093
           X            0.56782   0.82182  -0.04695
           Y           -0.50529   0.39301   0.76826
           Z            0.64982  -0.41251   0.63841
 This molecule is an asymmetric top.
 Rotational symmetry number  1.
 Warning -- assumption of classical behavior for rotation
           may cause significant error
 Rotational temperatures (Kelvin)      0.02731     0.01953     0.01297
 Rotational constants (GHZ):           0.56908     0.40698     0.27035
 Zero-point vibrational energy     645953.3 (Joules/Mol)
                                  154.38655 (Kcal/Mol)
 Warning -- explicit consideration of  21 degrees of freedom as
           vibrations may cause significant error
 Vibrational temperatures:     20.72    33.63    79.18    90.17   104.67
          (Kelvin)            123.81   146.41   212.78   243.79   265.83
                              291.53   391.31   430.86   456.64   465.02
                              493.50   566.56   655.48   748.47   761.20
                              876.93   903.71   910.17   945.29   972.71
                             1017.48  1063.08  1090.29  1116.20  1130.43
                             1157.19  1205.01  1219.43  1293.74  1349.16
                             1360.43  1414.06  1436.19  1458.35  1475.28
                             1509.04  1598.92  1614.22  1653.35  1665.73
                             1671.33  1711.36  1773.74  1804.15  1829.37
                             1849.11  1855.39  1870.92  1920.95  1958.47
                             1980.15  1999.50  2015.60  2018.38  2041.86
                             2113.02  2144.67  2149.39  2176.84  2180.13
                             2238.18  2337.05  2406.90  2491.78  2647.73
                             4375.84  4381.59  4402.50  4433.48  4451.34
                             4467.82  4486.41  4667.67  4689.99  5021.87
                             5033.72  5146.43  5224.04  5393.85

 Zero-point correction=                           0.246031 (Hartree/Particle)
 Thermal correction to Energy=                    0.261994
 Thermal correction to Enthalpy=                  0.262939
 Thermal correction to Gibbs Free Energy=         0.199508
 Sum of electronic and zero-point Energies=           -795.925202
 Sum of electronic and thermal Energies=              -795.909238
 Sum of electronic and thermal Enthalpies=            -795.908294
 Sum of electronic and thermal Free Energies=         -795.971725

                     E (Thermal)             CV                S
                      KCal/Mol        Cal/Mol-Kelvin    Cal/Mol-Kelvin
 Total                  164.404             57.932            133.502
 Electronic               0.000              0.000              0.000
 Translational            0.889              2.981             42.150
 Rotational               0.889              2.981             32.907
 Vibrational            162.626             51.970             58.445
 Vibration     1          0.593              1.986              7.286
 Vibration     2          0.593              1.985              6.324
 Vibration     3          0.596              1.976              4.628
 Vibration     4          0.597              1.972              4.371
 Vibration     5          0.599              1.967              4.078
 Vibration     6          0.601              1.959              3.748
 Vibration     7          0.604              1.948              3.420
 Vibration     8          0.617              1.905              2.699
 Vibration     9          0.625              1.880              2.442
 Vibration    10          0.631              1.861              2.280
 Vibration    11          0.639              1.836              2.109
 Vibration    12          0.675              1.725              1.584
 Vibration    13          0.692              1.675              1.420
 Vibration    14          0.704              1.640              1.324
 Vibration    15          0.708              1.629              1.294
 Vibration    16          0.722              1.590              1.198
 Vibration    17          0.761              1.483              0.986
 Vibration    18          0.814              1.349              0.779
 Vibration    19          0.875              1.205              0.609
 Vibration    20          0.884              1.186              0.589
 Vibration    21          0.968              1.012              0.434

 Optimization completed on the basis of negligible forces.
    -- Stationary point found.
 Normal termination of Gaussian 09 at Sat Jul 24 01:31:49 2021.
