 Gaussian 09, Revision D.01,
 Gaussian 09:  ES64L-G09RevD.01 24-Apr-2013

 ----------------------------------------------------------------------
 # B3LYP/6-31G(d,p) EmpiricalDispersion=GD3BJ opt=calcfc freq=noraman n
 osymm integral(ultrafinegrid)
 ----------------------------------------------------------------------

 ------------------------------------------------------------
 Candidate Structure: Conf:295 OPT and FREQ calc in gas phase
 ------------------------------------------------------------
 Symbolic Z-matrix:
 Charge =  0 Multiplicity = 1

 SCF Done:  E(RB3LYP) =  -796.162307729     A.U. after   14 cycles
 SCF Done:  E(RB3LYP) =  -796.165716594     A.U. after   14 cycles
 SCF Done:  E(RB3LYP) =  -796.165474141     A.U. after   14 cycles
 SCF Done:  E(RB3LYP) =  -796.165907559     A.U. after   11 cycles
 SCF Done:  E(RB3LYP) =  -796.166227602     A.U. after   11 cycles
 SCF Done:  E(RB3LYP) =  -796.166389977     A.U. after   11 cycles
 SCF Done:  E(RB3LYP) =  -796.166442703     A.U. after   11 cycles
 SCF Done:  E(RB3LYP) =  -796.166469509     A.U. after   11 cycles
 SCF Done:  E(RB3LYP) =  -796.166478612     A.U. after   10 cycles
 SCF Done:  E(RB3LYP) =  -796.166483559     A.U. after   10 cycles
 SCF Done:  E(RB3LYP) =  -796.166484432     A.U. after    9 cycles
 SCF Done:  E(RB3LYP) =  -796.166484530     A.U. after    8 cycles
 SCF Done:  E(RB3LYP) =  -796.166484549     A.U. after    6 cycles
 Optimization completed.
    -- Stationary point found.
 Normal termination of Gaussian 09 at Sat Jul 24 01:12:58 2021.

 ----------------------------------------------------------------------
 #N Geom=AllCheck Guess=TCheck SCRF=Check GenChk RB3LYP/6-31G(d,p) Freq
 ----------------------------------------------------------------------

 Structure from the checkpoint file:  "conf-295.chk"
 ------------------------------------------------------------
 Candidate Structure: Conf:295 OPT and FREQ calc in gas phase
 ------------------------------------------------------------
 Charge =  0 Multiplicity = 1

                          Input orientation:
 ---------------------------------------------------------------------
 Center     Atomic      Atomic             Coordinates (Angstroms)
 Number     Number       Type             X           Y           Z
 ---------------------------------------------------------------------
      1          8           0        1.290339    0.886143   -0.731612
      2          6           0        1.730146    0.031561    0.036419
      3          7           0        0.920744   -0.598416    0.933876
      4          6           0       -0.470998   -0.223470    1.072675
      5          6           0       -0.940554   -0.790677    2.399071
      6          8           0       -2.230400   -0.488473    2.683740
      7          8           0       -0.263247   -1.463125    3.145425
      8          6           0       -1.334328   -0.720056   -0.133648
      9          6           0       -2.487475    0.152166   -0.498813
     10          6           0       -2.710219    0.922533   -1.617590
     11          7           0       -3.927794    1.563665   -1.546012
     12          6           0       -4.442305    1.194249   -0.391649
     13          7           0       -3.618556    0.333979    0.278046
     14          6           0        3.187197   -0.413778    0.053344
     15          6           0        4.035220    0.337691   -0.971171
     16          7           0        3.612257   -0.014894   -2.328167
     17          1           0        1.295948   -1.226796    1.631570
     18          1           0       -0.554937    0.869747    1.104177
     19          1           0       -2.420055   -0.904782    3.542184
     20          1           0       -0.660411   -0.726071   -0.990565
     21          1           0       -1.643400   -1.757975    0.042943
     22          1           0       -2.052315    1.044168   -2.466760
     23          1           0       -5.396012    1.510342    0.007813
     24          1           0       -3.732658   -0.026562    1.212757
     25          1           0        3.586732   -0.268911    1.065428
     26          1           0        3.226144   -1.488086   -0.162324
     27          1           0        5.079452    0.032382   -0.842074
     28          1           0        3.980979    1.415559   -0.746924
     29          1           0        2.697457    0.405187   -2.479353
     30          1           0        4.243068    0.412701   -3.001564
 ---------------------------------------------------------------------

 SCF Done:  E(RB3LYP) =  -796.166484549     A.U. after    1 cycles

 Alpha  occ. eigenvalues --  -19.23773 -19.17804 -19.12220 -14.38000 -14.36785
 Alpha  occ. eigenvalues --  -14.30130 -14.29865 -10.35657 -10.29362 -10.26074
 Alpha  occ. eigenvalues --  -10.23035 -10.21217 -10.21182 -10.20623 -10.19555
 Alpha  occ. eigenvalues --  -10.18611  -1.14574  -1.05508  -1.04085  -1.00218
 Alpha  occ. eigenvalues --   -0.93667  -0.87053  -0.85958  -0.80878  -0.75932
 Alpha  occ. eigenvalues --   -0.73678  -0.68362  -0.65155  -0.60904  -0.60324
 Alpha  occ. eigenvalues --   -0.59411  -0.57861  -0.54088  -0.52312  -0.51888
 Alpha  occ. eigenvalues --   -0.49715  -0.49358  -0.47962  -0.47476  -0.45674
 Alpha  occ. eigenvalues --   -0.45245  -0.43812  -0.42536  -0.41643  -0.40922
 Alpha  occ. eigenvalues --   -0.39830  -0.39561  -0.38985  -0.38739  -0.36872
 Alpha  occ. eigenvalues --   -0.35806  -0.35655  -0.35118  -0.31343  -0.27127
 Alpha  occ. eigenvalues --   -0.26735  -0.25862  -0.25506  -0.22644  -0.21550
 Alpha virt. eigenvalues --   -0.02627   0.01782   0.03216   0.04103   0.07600
 Alpha virt. eigenvalues --    0.08643   0.09991   0.11113   0.12317   0.12410
 Alpha virt. eigenvalues --    0.13625   0.13978   0.15301   0.16198   0.16863

 Mulliken charges:
               1
     1  O   -0.532828
     2  C    0.605499
     3  N   -0.548426
     4  C    0.032021
     5  C    0.581128
     6  O   -0.496965
     7  O   -0.464257
     8  C   -0.252557
     9  C    0.278982
    10  C   -0.004863
    11  N   -0.444770
    12  C    0.257281
    13  N   -0.530135
    14  C   -0.269504
    15  C   -0.042863
    16  N   -0.613723
    17  H    0.279313
    18  H    0.164831
    19  H    0.335328
    20  H    0.158443
    21  H    0.111523
    22  H    0.094914
    23  H    0.106468
    24  H    0.266377
    25  H    0.113681
    26  H    0.137599
    27  H    0.093113
    28  H    0.091233
    29  H    0.259604
    30  H    0.233552
 Sum of Mulliken charges =   0.00000

 Dipole moment (field-independent basis, Debye):
    X=              0.2904    Y=             -2.2169    Z=              5.0851  Tot=              5.5549
 Quadrupole moment (field-independent basis, Debye-Ang):
   XX=            -86.5618   YY=            -99.1729   ZZ=            -90.8269
   XY=             10.7670   XZ=            -17.6171   YZ=              1.9456

  Exact polarizability: 153.206 -17.064  93.453  -8.754 -22.954 125.181
 Approx polarizability: 195.585 -29.085 155.575  -5.753 -42.689 192.231

 ******    1 imaginary frequencies (negative Signs) ******

                      1                      2                      3
                      A                      A                      A
 Frequencies --     -9.4954                26.5134                29.6830
 Red. masses --      3.5270                 4.4926                 7.2522
 Frc consts  --      0.0002                 0.0019                 0.0038
 IR Inten    --      1.6362                 1.4569                 1.5488

                      4                      5                      6
                      A                      A                      A
 Frequencies --     49.0629                66.2111                74.5067
 Red. masses --      4.6570                 6.3902                 6.1587
 Frc consts  --      0.0066                 0.0165                 0.0201
 IR Inten    --      1.3864                 1.4179                 2.4347

                      7                      8                      9
                      A                      A                      A
 Frequencies --    128.2946               133.5249               165.6323
 Red. masses --      5.2134                 5.1580                 3.6540
 Frc consts  --      0.0506                 0.0542                 0.0591
 IR Inten    --      2.8518                 6.3023                 3.7362

                     10                     11                     12
                      A                      A                      A
 Frequencies --    195.7818               246.8000               277.8815
 Red. masses --      4.5412                 2.8439                 5.8236
 Frc consts  --      0.1026                 0.1021                 0.2649
 IR Inten    --      0.7342                31.4822                 0.4370

                     13                     14                     15
                      A                      A                      A
 Frequencies --    310.7612               329.9759               333.3740
 Red. masses --      2.3973                 4.0712                 1.8444
 Frc consts  --      0.1364                 0.2612                 0.1208
 IR Inten    --      8.5563                 1.2765                26.8314

                     16                     17                     18
                      A                      A                      A
 Frequencies --    349.4312               379.4154               428.3238
 Red. masses --      2.1370                 4.0937                 2.5076
 Frc consts  --      0.1537                 0.3472                 0.2710
 IR Inten    --     38.8956                 5.0422                35.9117

                     19                     20                     21
                      A                      A                      A
 Frequencies --    482.4735               557.9975               566.1336
 Red. masses --      1.3726                 1.6289                 2.7156
 Frc consts  --      0.1882                 0.2988                 0.5128
 IR Inten    --     75.5707                53.8999                24.6167

                     22                     23                     24
                      A                      A                      A
 Frequencies --    595.0292               612.3292               635.2191
 Red. masses --      1.8189                 2.2356                 2.9951
 Frc consts  --      0.3794                 0.4939                 0.7120
 IR Inten    --     35.1753                 3.9999                39.6414

                     25                     26                     27
                      A                      A                      A
 Frequencies --    667.7863               684.7105               686.2674
 Red. masses --      2.2946                 3.3985                 2.3854
 Frc consts  --      0.6029                 0.9388                 0.6619
 IR Inten    --     86.7583                 8.8016                 2.5343

                     28                     29                     30
                      A                      A                      A
 Frequencies --    735.5096               774.6057               797.5829
 Red. masses --      3.0280                 3.8389                 1.3989
 Frc consts  --      0.9651                 1.3571                 0.5243
 IR Inten    --     33.3555                 3.6316                15.2629

                     31                     32                     33
                      A                      A                      A
 Frequencies --    816.9259               849.3686               881.1336
 Red. masses --      2.6790                 1.4000                 2.1085
 Frc consts  --      1.0534                 0.5951                 0.9645
 IR Inten    --     13.0082                16.5136                54.0414

                     34                     35                     36
                      A                      A                      A
 Frequencies --    892.3647               922.8881               941.3243
 Red. masses --      1.9030                 1.6502                 5.7947
 Frc consts  --      0.8929                 0.8281                 3.0253
 IR Inten    --     12.6312                66.7765                13.4809

                     37                     38                     39
                      A                      A                      A
 Frequencies --    963.6680              1015.6837              1017.8549
 Red. masses --      2.1519                 4.7950                 3.0116
 Frc consts  --      1.1774                 2.9144                 1.8383
 IR Inten    --     13.7574                 2.0695                19.9068

                     40                     41                     42
                      A                      A                      A
 Frequencies --   1035.5869              1069.3142              1115.4110
 Red. masses --      3.4361                 2.5061                 3.0718
 Frc consts  --      2.1711                 1.6883                 2.2517
 IR Inten    --      8.8544                19.7658                27.4276

                     43                     44                     45
                      A                      A                      A
 Frequencies --   1124.4495              1132.8578              1154.1808
 Red. masses --      1.5406                 1.5856                 2.0563
 Frc consts  --      1.1477                 1.1990                 1.6139
 IR Inten    --     34.6795                18.4996                13.3615

                     46                     47                     48
                      A                      A                      A
 Frequencies --   1173.3174              1193.7802              1200.5178
 Red. masses --      1.5632                 1.4249                 2.4274
 Frc consts  --      1.2680                 1.1964                 2.0612
 IR Inten    --     95.9189                91.2816                50.8782

                     49                     50                     51
                      A                      A                      A
 Frequencies --   1233.8734              1246.8221              1273.1181
 Red. masses --      1.2244                 1.5590                 2.0220
 Frc consts  --      1.0983                 1.4279                 1.9310
 IR Inten    --      4.0385                16.1574                19.7991

                     52                     53                     54
                      A                      A                      A
 Frequencies --   1283.3231              1310.5757              1326.3026
 Red. masses --      1.5883                 1.4230                 1.2299
 Frc consts  --      1.5412                 1.4401                 1.2747
 IR Inten    --      5.5033                 9.1782                 1.9187

                     55                     56                     57
                      A                      A                      A
 Frequencies --   1360.4705              1367.0834              1380.8253
 Red. masses --      1.2081                 1.6402                 1.5557
 Frc consts  --      1.3174                 1.8061                 1.7477
 IR Inten    --      4.0561                48.0944                12.3623

                     58                     59                     60
                      A                      A                      A
 Frequencies --   1399.6203              1426.4560              1439.1574
 Red. masses --      3.0774                 2.4513                 1.3994
 Frc consts  --      3.5519                 2.9388                 1.7077
 IR Inten    --     35.2146                72.2752                15.7885

                     61                     62                     63
                      A                      A                      A
 Frequencies --   1443.2556              1462.1661              1480.8651
 Red. masses --      2.7250                 1.1335                 1.1652
 Frc consts  --      3.3443                 1.4278                 1.5055
 IR Inten    --     27.7728                19.4424                19.6686

                     64                     65                     66
                      A                      A                      A
 Frequencies --   1516.2683              1516.8174              1540.7831
 Red. masses --      3.2967                 1.1022                 2.3468
 Frc consts  --      4.4656                 1.4941                 3.2825
 IR Inten    --     21.6619                 2.6576               340.4533

                     67                     68                     69
                      A                      A                      A
 Frequencies --   1622.8124              1662.5964              1759.1832
 Red. masses --      4.5193                 1.1291                 7.3164
 Frc consts  --      7.0123                 1.8390                13.3405
 IR Inten    --      5.8067                80.3264               144.8871

                     70                     71                     72
                      A                      A                      A
 Frequencies --   1838.3293              2980.0796              3039.4260
 Red. masses --      9.6335                 1.0713                 1.0712
 Frc consts  --     19.1814                 5.6053                 5.8306
 IR Inten    --    265.0101                65.0963                28.2608

                     73                     74                     75
                      A                      A                      A
 Frequencies --   3039.6509              3059.4475              3072.7709
 Red. masses --      1.0626                 1.0825                 1.0909
 Frc consts  --      5.7845                 5.9698                 6.0687
 IR Inten    --     10.5658                13.9032                45.3438

                     76                     77                     78
                      A                      A                      A
 Frequencies --   3088.1724              3146.2615              3254.3293
 Red. masses --      1.1010                 1.0928                 1.0944
 Frc consts  --      6.1864                 6.3735                 6.8288
 IR Inten    --     14.7407                 1.2398                 9.3010

                     79                     80                     81
                      A                      A                      A
 Frequencies --   3258.1103              3492.5268              3577.9576
 Red. masses --      1.0994                 1.0497                 1.0922
 Frc consts  --      6.8762                 7.5436                 8.2383
 IR Inten    --      0.0575                12.1707                 3.9267

                     82                     83                     84
                      A                      A                      A
 Frequencies --   3618.2069              3671.1837              3746.6145
 Red. masses --      1.0779                 1.0808                 1.0642
 Frc consts  --      8.3140                 8.5824                 8.8010
 IR Inten    --     72.0088               103.8615                78.8504

 - Thermochemistry -
 -------------------
 Temperature   298.150 Kelvin.  Pressure   1.00000 Atm.
 Atom     1 has atomic number  8 and mass  15.99491

 Molecular mass:   226.10659 amu.
 Principal axes and moments of inertia in atomic units:
                           1         2         3
     Eigenvalues --  2461.700045968.512978140.63547
           X            0.98815   0.08846   0.12545
           Y           -0.07904  -0.40742   0.90981
           Z           -0.13159   0.90895   0.39560
 This molecule is an asymmetric top.
 Rotational symmetry number  1.
 Warning -- assumption of classical behavior for rotation
           may cause significant error
 Rotational temperatures (Kelvin)      0.03518     0.01451     0.01064
 Rotational constants (GHZ):           0.73313     0.30238     0.22170
    1 imaginary frequencies ignored.
 Zero-point vibrational energy     644529.3 (Joules/Mol)
                                  154.04620 (Kcal/Mol)
 Warning -- explicit consideration of  22 degrees of freedom as
           vibrations may cause significant error
 Vibrational temperatures:     38.15    42.71    70.59    95.26   107.20
          (Kelvin)            184.59   192.11   238.31   281.69   355.09
                              399.81   447.12   474.76   479.65   502.75
                              545.89   616.26   694.17   802.83   814.54
                              856.11   881.00   913.94   960.79   985.14
                              987.38  1058.23  1114.48  1147.54  1175.37
                             1222.05  1267.75  1283.91  1327.83  1354.35
                             1386.50  1461.34  1464.46  1489.98  1538.50
                             1604.83  1617.83  1629.93  1660.61  1688.14
                             1717.58  1727.28  1775.27  1793.90  1831.73
                             1846.41  1885.62  1908.25  1957.41  1966.93
                             1986.70  2013.74  2052.35  2070.62  2076.52
                             2103.73  2130.63  2181.57  2182.36  2216.84
                             2334.86  2392.10  2531.07  2644.94  4287.66
                             4373.05  4373.37  4401.86  4421.03  4443.19
                             4526.76  4682.25  4687.69  5024.96  5147.88
                             5205.79  5282.01  5390.54

 Zero-point correction=                           0.245488 (Hartree/Particle)
 Thermal correction to Energy=                    0.260636
 Thermal correction to Enthalpy=                  0.261580
 Thermal correction to Gibbs Free Energy=         0.200799
 Sum of electronic and zero-point Energies=           -795.920996
 Sum of electronic and thermal Energies=              -795.905848
 Sum of electronic and thermal Enthalpies=            -795.904904
 Sum of electronic and thermal Free Energies=         -795.965686

                     E (Thermal)             CV                S
                      KCal/Mol        Cal/Mol-Kelvin    Cal/Mol-Kelvin
 Total                  163.552             56.314            127.925
 Electronic               0.000              0.000              0.000
 Translational            0.889              2.981             42.150
 Rotational               0.889              2.981             33.147
 Vibrational            161.774             50.353             52.628
 Vibration     1          0.593              1.984              6.075
 Vibration     2          0.593              1.984              5.851
 Vibration     3          0.595              1.978              4.855
 Vibration     4          0.598              1.970              4.263
 Vibration     5          0.599              1.966              4.031
 Vibration     6          0.611              1.925              2.971
 Vibration     7          0.613              1.920              2.895
 Vibration     8          0.624              1.885              2.484
 Vibration     9          0.636              1.846              2.172
 Vibration    10          0.661              1.768              1.753
 Vibration    11          0.679              1.714              1.547
 Vibration    12          0.700              1.653              1.358
 Vibration    13          0.713              1.616              1.260
 Vibration    14          0.715              1.609              1.244
 Vibration    15          0.727              1.576              1.169
 Vibration    16          0.749              1.514              1.041
 Vibration    17          0.790              1.409              0.864
 Vibration    18          0.839              1.289              0.703
 Vibration    19          0.914              1.122              0.528
 Vibration    20          0.922              1.105              0.512
 Vibration    21          0.953              1.042              0.458
 Vibration    22          0.972              1.006              0.429

 Normal termination of Gaussian 09 at Sat Jul 24 01:31:45 2021.
