 Gaussian 09, Revision D.01,
 Gaussian 09:  ES64L-G09RevD.01 24-Apr-2013

 ----------------------------------------------------------------------
 # B3LYP/6-31G(d,p) EmpiricalDispersion=GD3BJ opt=calcfc freq=noraman n
 osymm integral(ultrafinegrid)
 ----------------------------------------------------------------------

 ------------------------------------------------------------
 Candidate Structure: Conf:490 OPT and FREQ calc in gas phase
 ------------------------------------------------------------
 Symbolic Z-matrix:
 Charge =  0 Multiplicity = 1

 SCF Done:  E(RB3LYP) =  -796.164191848     A.U. after   14 cycles
 SCF Done:  E(RB3LYP) =  -796.167217745     A.U. after   14 cycles
 SCF Done:  E(RB3LYP) =  -796.163781800     A.U. after   14 cycles
 SCF Done:  E(RB3LYP) =  -796.167254769     A.U. after    9 cycles
 SCF Done:  E(RB3LYP) =  -796.167688798     A.U. after   15 cycles
 SCF Done:  E(RB3LYP) =  -796.161894684     A.U. after   15 cycles
 SCF Done:  E(RB3LYP) =  -796.167811622     A.U. after   10 cycles
 SCF Done:  E(RB3LYP) =  -796.168088430     A.U. after   12 cycles
 SCF Done:  E(RB3LYP) =  -796.168146210     A.U. after   11 cycles
 SCF Done:  E(RB3LYP) =  -796.168197184     A.U. after   11 cycles
 SCF Done:  E(RB3LYP) =  -796.168251678     A.U. after   11 cycles
 SCF Done:  E(RB3LYP) =  -796.168327575     A.U. after   11 cycles
 SCF Done:  E(RB3LYP) =  -796.168411195     A.U. after   11 cycles
 SCF Done:  E(RB3LYP) =  -796.168418034     A.U. after   10 cycles
 SCF Done:  E(RB3LYP) =  -796.168420553     A.U. after    9 cycles
 SCF Done:  E(RB3LYP) =  -796.168421058     A.U. after    8 cycles
 SCF Done:  E(RB3LYP) =  -796.168421104     A.U. after    8 cycles
 Optimization completed.
    -- Stationary point found.
 Normal termination of Gaussian 09 at Sat Jul 24 01:22:22 2021.

 ----------------------------------------------------------------------
 #N Geom=AllCheck Guess=TCheck SCRF=Check GenChk RB3LYP/6-31G(d,p) Freq
 ----------------------------------------------------------------------

 Structure from the checkpoint file:  "conf-490.chk"
 ------------------------------------------------------------
 Candidate Structure: Conf:490 OPT and FREQ calc in gas phase
 ------------------------------------------------------------
 Charge =  0 Multiplicity = 1

                          Input orientation:
 ---------------------------------------------------------------------
 Center     Atomic      Atomic             Coordinates (Angstroms)
 Number     Number       Type             X           Y           Z
 ---------------------------------------------------------------------
      1          8           0        0.877241    0.491888   -2.350681
      2          6           0        1.568852    0.143890   -1.393689
      3          7           0        1.076929    0.042820   -0.131654
      4          6           0       -0.282370    0.423689    0.150897
      5          6           0       -0.419707    0.664647    1.654800
      6          8           0       -1.566155    1.250035    2.053441
      7          8           0        0.425408    0.343742    2.457267
      8          6           0       -1.289599   -0.652908   -0.358573
      9          6           0       -2.719383   -0.276145   -0.145390
     10          6           0       -3.494062    0.752557   -0.645025
     11          7           0       -4.753852    0.745137   -0.078669
     12          6           0       -4.752000   -0.270112    0.757138
     13          7           0       -3.547230   -0.918572    0.757409
     14          6           0        3.042253   -0.225429   -1.561313
     15          6           0        3.968669    0.183791   -0.409336
     16          7           0        3.651701   -0.570043    0.812087
     17          1           0        1.708344   -0.219946    0.632032
     18          1           0       -0.512592    1.352509   -0.386535
     19          1           0       -2.159390    1.385226    1.291270
     20          1           0       -1.076898   -0.770428   -1.423825
     21          1           0       -1.060805   -1.603438    0.134815
     22          1           0       -3.216728    1.477520   -1.397945
     23          1           0       -5.577742   -0.581956    1.380760
     24          1           0       -3.286036   -1.701928    1.337051
     25          1           0        3.106969   -1.311550   -1.715645
     26          1           0        3.367825    0.241882   -2.493498
     27          1           0        5.013553    0.068026   -0.736176
     28          1           0        3.821753    1.246679   -0.189045
     29          1           0        4.126497   -0.175984    1.618585
     30          1           0        3.958365   -1.535717    0.724056
 ---------------------------------------------------------------------

 SCF Done:  E(RB3LYP) =  -796.168421104     A.U. after    1 cycles

 Alpha  occ. eigenvalues --  -19.19393 -19.13902 -19.10516 -14.40251 -14.34544
 Alpha  occ. eigenvalues --  -14.33878 -14.32103 -10.32213 -10.27976 -10.24841
 Alpha  occ. eigenvalues --  -10.24640 -10.23363 -10.22894 -10.21368 -10.20669
 Alpha  occ. eigenvalues --  -10.19686  -1.10243  -1.02604  -1.02352  -1.01901
 Alpha  occ. eigenvalues --   -0.92127  -0.90027  -0.87906  -0.80672  -0.76609
 Alpha  occ. eigenvalues --   -0.73414  -0.67677  -0.63802  -0.62349  -0.61427
 Alpha  occ. eigenvalues --   -0.59885  -0.57148  -0.55880  -0.53682  -0.51445
 Alpha  occ. eigenvalues --   -0.49405  -0.47313  -0.47011  -0.45845  -0.45581
 Alpha  occ. eigenvalues --   -0.44306  -0.43514  -0.42826  -0.42540  -0.41466
 Alpha  occ. eigenvalues --   -0.40738  -0.39736  -0.38988  -0.38550  -0.37562
 Alpha  occ. eigenvalues --   -0.36860  -0.34388  -0.31870  -0.29066  -0.27780
 Alpha  occ. eigenvalues --   -0.27347  -0.26264  -0.25420  -0.24229  -0.23132
 Alpha virt. eigenvalues --    0.00013   0.01898   0.02975   0.04823   0.06574
 Alpha virt. eigenvalues --    0.06683   0.09838   0.11582   0.11664   0.12025
 Alpha virt. eigenvalues --    0.12503   0.13907   0.14837   0.15618   0.16411

 Mulliken charges:
               1
     1  O   -0.538145
     2  C    0.567290
     3  N   -0.539089
     4  C   -0.012813
     5  C    0.587247
     6  O   -0.485907
     7  O   -0.455261
     8  C   -0.225164
     9  C    0.222812
    10  C   -0.040185
    11  N   -0.431160
    12  C    0.260612
    13  N   -0.511526
    14  C   -0.252168
    15  C   -0.076779
    16  N   -0.617025
    17  H    0.320209
    18  H    0.140995
    19  H    0.332746
    20  H    0.169698
    21  H    0.105518
    22  H    0.108737
    23  H    0.121386
    24  H    0.270616
    25  H    0.119929
    26  H    0.131659
    27  H    0.095459
    28  H    0.122569
    29  H    0.259191
    30  H    0.248551
 Sum of Mulliken charges =   0.00000

 Dipole moment (field-independent basis, Debye):
    X=              3.3167    Y=             -3.7172    Z=              1.1998  Tot=              5.1242
 Quadrupole moment (field-independent basis, Debye-Ang):
   XX=            -81.3952   YY=            -87.2535   ZZ=           -108.2065
   XY=              7.8645   XZ=             -5.3049   YZ=             -3.7386

  Exact polarizability: 164.526  -8.857  94.228  -8.457 -10.687 114.261
 Approx polarizability: 208.880 -21.977 157.608  -0.547 -27.920 184.050

                      1                      2                      3
                      A                      A                      A
 Frequencies --     19.8036                35.9772                46.9592
 Red. masses --      4.6289                 5.2748                 4.1779
 Frc consts  --      0.0011                 0.0040                 0.0054
 IR Inten    --      0.7977                 5.6920                 2.0464

                      4                      5                      6
                      A                      A                      A
 Frequencies --     62.6861                82.6279                89.8117
 Red. masses --      4.2844                 6.3684                 5.7506
 Frc consts  --      0.0099                 0.0256                 0.0273
 IR Inten    --      7.2340                 2.1444                 5.3336

                      7                      8                      9
                      A                      A                      A
 Frequencies --    102.7676               121.8237               176.4967
 Red. masses --      6.7137                 4.2520                 4.8029
 Frc consts  --      0.0418                 0.0372                 0.0882
 IR Inten    --      5.0019                 7.3984                 7.8485

                     10                     11                     12
                      A                      A                      A
 Frequencies --    203.2249               234.9700               292.0965
 Red. masses --      2.2429                 5.4463                 7.7796
 Frc consts  --      0.0546                 0.1772                 0.3911
 IR Inten    --      8.0733                 5.6444                 0.6813

                     13                     14                     15
                      A                      A                      A
 Frequencies --    300.1391               335.1997               347.3482
 Red. masses --      1.2771                 2.2406                 6.3109
 Frc consts  --      0.0678                 0.1483                 0.4486
 IR Inten    --     11.9536                 5.0354                 2.1321

                     16                     17                     18
                      A                      A                      A
 Frequencies --    348.8192               391.4026               478.1426
 Red. masses --      3.8139                 4.4889                 2.6379
 Frc consts  --      0.2734                 0.4052                 0.3553
 IR Inten    --     15.2905                17.0772                13.2939

                     19                     20                     21
                      A                      A                      A
 Frequencies --    510.1208               539.3911               602.9384
 Red. masses --      3.2848                 1.3925                 4.1176
 Frc consts  --      0.5036                 0.2387                 0.8819
 IR Inten    --     29.4469                91.1812                 5.5271

                     22                     23                     24
                      A                      A                      A
 Frequencies --    615.8381               651.0685               672.5094
 Red. masses --      1.8446                 2.0743                 3.1188
 Frc consts  --      0.4122                 0.5181                 0.8311
 IR Inten    --     68.5121                15.2841                14.5878

                     25                     26                     27
                      A                      A                      A
 Frequencies --    681.7906               695.8040               731.2564
 Red. masses --      3.2612                 3.3796                 3.0127
 Frc consts  --      0.8932                 0.9640                 0.9492
 IR Inten    --      9.5922                24.2063                10.7097

                     28                     29                     30
                      A                      A                      A
 Frequencies --    766.4965               807.4318               812.7052
 Red. masses --      3.3730                 1.4792                 1.5301
 Frc consts  --      1.1676                 0.5682                 0.5954
 IR Inten    --      2.5866                13.5306                49.3514

                     31                     32                     33
                      A                      A                      A
 Frequencies --    828.8421               850.7221               854.2845
 Red. masses --      1.9170                 1.3666                 1.3291
 Frc consts  --      0.7759                 0.5827                 0.5715
 IR Inten    --     15.2354                44.6852                57.3815

                     34                     35                     36
                      A                      A                      A
 Frequencies --    896.4292               924.3749               940.9884
 Red. masses --      2.6380                 1.9559                 5.8325
 Frc consts  --      1.2490                 0.9847                 3.0428
 IR Inten    --     10.9059                19.4289                11.9061

                     37                     38                     39
                      A                      A                      A
 Frequencies --    977.9141              1008.3386              1017.5007
 Red. masses --      2.1479                 2.0138                 2.3441
 Frc consts  --      1.2102                 1.2064                 1.4299
 IR Inten    --     17.9472                16.3824                 2.7330

                     40                     41                     42
                      A                      A                      A
 Frequencies --   1032.9336              1045.7568              1090.9809
 Red. masses --      3.6554                 3.0848                 2.5140
 Frc consts  --      2.2979                 1.9876                 1.7630
 IR Inten    --      9.4116                10.9583                 4.3638

                     43                     44                     45
                      A                      A                      A
 Frequencies --   1116.8283              1148.9699              1149.9389
 Red. masses --      1.5695                 1.5024                 2.2132
 Frc consts  --      1.1534                 1.1686                 1.7243
 IR Inten    --     14.6081                 1.5432                11.1334

                     46                     47                     48
                      A                      A                      A
 Frequencies --   1161.0633              1175.0095              1216.0618
 Red. masses --      1.3607                 2.9074                 2.1790
 Frc consts  --      1.0808                 2.3650                 1.8986
 IR Inten    --      4.6432                17.1034                16.9088

                     49                     50                     51
                      A                      A                      A
 Frequencies --   1252.8886              1263.9526              1284.9990
 Red. masses --      1.5485                 1.7857                 1.4513
 Frc consts  --      1.4321                 1.6808                 1.4119
 IR Inten    --     13.1377                26.4289                 1.4257

                     52                     53                     54
                      A                      A                      A
 Frequencies --   1297.2401              1316.3391              1320.1030
 Red. masses --      1.3503                 1.5358                 1.3651
 Frc consts  --      1.3388                 1.5679                 1.4017
 IR Inten    --      0.9308                 8.2659                 5.1222

                     55                     56                     57
                      A                      A                      A
 Frequencies --   1325.7940              1365.8922              1373.9687
 Red. masses --      1.4247                 1.3616                 1.4065
 Frc consts  --      1.4755                 1.4967                 1.5644
 IR Inten    --     97.8573               113.8236                24.8309

                     58                     59                     60
                      A                      A                      A
 Frequencies --   1405.4188              1412.0772              1429.6175
 Red. masses --      2.6958                 2.0854                 1.4518
 Frc consts  --      3.1373                 2.4499                 1.7483
 IR Inten    --     31.3627               109.0958                24.2083

                     61                     62                     63
                      A                      A                      A
 Frequencies --   1442.6317              1476.0857              1499.4376
 Red. masses --      3.3419                 1.0837                 1.1469
 Frc consts  --      4.0978                 1.3912                 1.5193
 IR Inten    --     20.6556                10.3742                 6.9627

                     64                     65                     66
                      A                      A                      A
 Frequencies --   1506.8613              1522.3459              1564.2432
 Red. masses --      3.7976                 1.1024                 2.1324
 Frc consts  --      5.0806                 1.5052                 3.0741
 IR Inten    --     18.8459                17.0297               414.7904

                     67                     68                     69
                      A                      A                      A
 Frequencies --   1610.6337              1663.5487              1757.4111
 Red. masses --      4.2503                 1.0915                 9.7196
 Frc consts  --      6.4963                 1.7797                17.6866
 IR Inten    --      9.8440                33.4354               264.7933

                     70                     71                     72
                      A                      A                      A
 Frequencies --   1862.1481              2992.0441              3035.7772
 Red. masses --      9.8500                 1.0720                 1.0706
 Frc consts  --     20.1241                 5.6541                 5.8132
 IR Inten    --    237.0406                93.5004                10.0472

                     73                     74                     75
                      A                      A                      A
 Frequencies --   3044.0640              3065.9701              3082.8846
 Red. masses --      1.0819                 1.0640                 1.0920
 Frc consts  --      5.9067                 5.8929                 6.1148
 IR Inten    --     10.5524                19.4838                26.7868

                     76                     77                     78
                      A                      A                      A
 Frequencies --   3125.1759              3125.2416              3252.2241
 Red. masses --      1.0933                 1.1025                 1.0961
 Frc consts  --      6.2914                 6.3447                 6.8305
 IR Inten    --     10.5281                 2.3931                 3.7812

                     79                     80                     81
                      A                      A                      A
 Frequencies --   3265.5607              3378.6854              3506.0145
 Red. masses --      1.0980                 1.0826                 1.0502
 Frc consts  --      6.8989                 7.2813                 7.6058
 IR Inten    --      0.9741               383.2923                 0.3109

                     82                     83                     84
                      A                      A                      A
 Frequencies --   3596.9875              3653.3757              3662.1745
 Red. masses --      1.0931                 1.0667                 1.0813
 Frc consts  --      8.3330                 8.3881                 8.5443
 IR Inten    --      2.3269               223.3200                55.1109

 - Thermochemistry -
 -------------------
 Temperature   298.150 Kelvin.  Pressure   1.00000 Atm.
 Atom     1 has atomic number  8 and mass  15.99491

 Molecular mass:   226.10659 amu.
 Principal axes and moments of inertia in atomic units:
                           1         2         3
     Eigenvalues --  1630.515236563.659647555.75362
           X            0.99074   0.13444   0.01913
           Y           -0.02707   0.05743   0.99798
           Z           -0.13307   0.98926  -0.06054
 This molecule is an asymmetric top.
 Rotational symmetry number  1.
 Warning -- assumption of classical behavior for rotation
           may cause significant error
 Rotational temperatures (Kelvin)      0.05312     0.01320     0.01146
 Rotational constants (GHZ):           1.10685     0.27496     0.23886
 Zero-point vibrational energy     645591.1 (Joules/Mol)
                                  154.29997 (Kcal/Mol)
 Warning -- explicit consideration of  22 degrees of freedom as
           vibrations may cause significant error
 Vibrational temperatures:     28.49    51.76    67.56    90.19   118.88
          (Kelvin)            129.22   147.86   175.28   253.94   292.39
                              338.07   420.26   431.83   482.28   499.76
                              501.87   563.14   687.94   733.95   776.06
                              867.49   886.05   936.74   967.59   980.94
                             1001.11  1052.11  1102.82  1161.71  1169.30
                             1192.52  1224.00  1229.12  1289.76  1329.97
                             1353.87  1407.00  1450.77  1463.95  1486.16
                             1504.61  1569.68  1606.86  1653.11  1654.50
                             1670.51  1690.57  1749.64  1802.62  1818.54
                             1848.82  1866.44  1893.92  1899.33  1907.52
                             1965.21  1976.83  2022.08  2031.66  2056.90
                             2075.62  2123.76  2157.35  2168.03  2190.31
                             2250.59  2317.34  2393.47  2528.52  2679.21
                             4304.88  4367.80  4379.72  4411.24  4435.58
                             4496.43  4496.52  4679.22  4698.41  4861.17
                             5044.37  5175.26  5256.39  5269.05

 Zero-point correction=                           0.245893 (Hartree/Particle)
 Thermal correction to Energy=                    0.261640
 Thermal correction to Enthalpy=                  0.262585
 Thermal correction to Gibbs Free Energy=         0.200248
 Sum of electronic and zero-point Energies=           -795.922528
 Sum of electronic and thermal Energies=              -795.906781
 Sum of electronic and thermal Enthalpies=            -795.905836
 Sum of electronic and thermal Free Energies=         -795.968173

                     E (Thermal)             CV                S
                      KCal/Mol        Cal/Mol-Kelvin    Cal/Mol-Kelvin
 Total                  164.182             57.585            131.198
 Electronic               0.000              0.000              0.000
 Translational            0.889              2.981             42.150
 Rotational               0.889              2.981             32.758
 Vibrational            162.404             51.623             56.290
 Vibration     1          0.593              1.986              6.654
 Vibration     2          0.594              1.982              5.469
 Vibration     3          0.595              1.979              4.942
 Vibration     4          0.597              1.972              4.371
 Vibration     5          0.600              1.961              3.827
 Vibration     6          0.602              1.956              3.664
 Vibration     7          0.605              1.947              3.401
 Vibration     8          0.609              1.931              3.071
 Vibration     9          0.628              1.871              2.365
 Vibration    10          0.639              1.835              2.104
 Vibration    11          0.655              1.787              1.841
 Vibration    12          0.687              1.688              1.462
 Vibration    13          0.693              1.673              1.416
 Vibration    14          0.716              1.605              1.235
 Vibration    15          0.725              1.581              1.178
 Vibration    16          0.726              1.578              1.172
 Vibration    17          0.759              1.489              0.995
 Vibration    18          0.835              1.299              0.715
 Vibration    19          0.865              1.228              0.633
 Vibration    20          0.894              1.163              0.567
 Vibration    21          0.961              1.026              0.445
 Vibration    22          0.975              0.998              0.423

 Optimization completed.
    -- Stationary point found.
 Normal termination of Gaussian 09 at Sat Jul 24 01:42:22 2021.
