 Gaussian 09, Revision D.01,
 Gaussian 09:  ES64L-G09RevD.01 24-Apr-2013

 ----------------------------------------------------------------------
 # B3LYP/6-31G(d,p) EmpiricalDispersion=GD3BJ opt=calcfc freq=noraman n
 osymm integral(ultrafinegrid)
 ----------------------------------------------------------------------

 ------------------------------------------------------------
 Candidate Structure: Conf:273 OPT and FREQ calc in gas phase
 ------------------------------------------------------------
 Symbolic Z-matrix:
 Charge =  0 Multiplicity = 1

 SCF Done:  E(RB3LYP) =  -796.162167156     A.U. after   14 cycles
 SCF Done:  E(RB3LYP) =  -796.165690871     A.U. after   15 cycles
 SCF Done:  E(RB3LYP) =  -796.164983744     A.U. after   14 cycles
 SCF Done:  E(RB3LYP) =  -796.165699697     A.U. after    9 cycles
 SCF Done:  E(RB3LYP) =  -796.166005285     A.U. after   12 cycles
 SCF Done:  E(RB3LYP) =  -796.166027742     A.U. after   11 cycles
 SCF Done:  E(RB3LYP) =  -796.166041045     A.U. after   10 cycles
 SCF Done:  E(RB3LYP) =  -796.166041322     A.U. after    9 cycles
 SCF Done:  E(RB3LYP) =  -796.166041704     A.U. after    8 cycles
 SCF Done:  E(RB3LYP) =  -796.166041710     A.U. after    7 cycles
 SCF Done:  E(RB3LYP) =  -796.166041713     A.U. after    6 cycles
 Optimization completed.
    -- Stationary point found.
 Normal termination of Gaussian 09 at Sat Jul 24 01:09:33 2021.

 ----------------------------------------------------------------------
 #N Geom=AllCheck Guess=TCheck SCRF=Check GenChk RB3LYP/6-31G(d,p) Freq
 ----------------------------------------------------------------------

 Structure from the checkpoint file:  "conf-273.chk"
 ------------------------------------------------------------
 Candidate Structure: Conf:273 OPT and FREQ calc in gas phase
 ------------------------------------------------------------
 Charge =  0 Multiplicity = 1

                          Input orientation:
 ---------------------------------------------------------------------
 Center     Atomic      Atomic             Coordinates (Angstroms)
 Number     Number       Type             X           Y           Z
 ---------------------------------------------------------------------
      1          8           0        0.706930   -1.727158    1.582104
      2          6           0        0.882803   -0.676487    0.945696
      3          7           0        0.292549   -0.469456   -0.255589
      4          6           0       -0.812336   -1.304698   -0.744761
      5          6           0       -0.302006   -2.662292   -1.290023
      6          8           0        0.360453   -3.413962   -0.413894
      7          8           0       -0.516755   -3.017118   -2.427366
      8          6           0       -1.590250   -0.565942   -1.831257
      9          6           0       -2.133102    0.753168   -1.379203
     10          6           0       -2.235564    1.373771   -0.152974
     11          7           0       -2.848407    2.604955   -0.267164
     12          6           0       -3.119244    2.739303   -1.545979
     13          7           0       -2.704346    1.650601   -2.265141
     14          6           0        1.752545    0.441630    1.477913
     15          6           0        2.956968   -0.088589    2.258317
     16          7           0        3.671652    1.027486    2.877944
     17          1           0        0.378622    0.446931   -0.672971
     18          1           0       -1.468479   -1.521469    0.109329
     19          1           0        0.447832   -2.933499    0.453477
     20          1           0       -2.391530   -1.233233   -2.165224
     21          1           0       -0.935520   -0.444544   -2.703250
     22          1           0       -1.905470    1.001051    0.806097
     23          1           0       -3.603373    3.587872   -2.008595
     24          1           0       -2.810330    1.510852   -3.258668
     25          1           0        2.074178    1.096906    0.659246
     26          1           0        1.143803    1.056333    2.152391
     27          1           0        2.584875   -0.749080    3.045442
     28          1           0        3.572075   -0.714057    1.588973
     29          1           0        4.380886    0.671214    3.512962
     30          1           0        4.170502    1.559813    2.168206
 ---------------------------------------------------------------------

 SCF Done:  E(RB3LYP) =  -796.166041713     A.U. after    1 cycles

 Alpha  occ. eigenvalues --  -19.17286 -19.14920 -19.12915 -14.40230 -14.39186
 Alpha  occ. eigenvalues --  -14.32324 -14.32028 -10.31706 -10.31429 -10.26022
 Alpha  occ. eigenvalues --  -10.24911 -10.23442 -10.22174 -10.22113 -10.21126
 Alpha  occ. eigenvalues --  -10.20731  -1.09163  -1.06316  -1.02226  -1.00755
 Alpha  occ. eigenvalues --   -0.95512  -0.89172  -0.87937  -0.81943  -0.77493
 Alpha  occ. eigenvalues --   -0.74316  -0.68075  -0.64455  -0.62389  -0.61159
 Alpha  occ. eigenvalues --   -0.59829  -0.59323  -0.55882  -0.53119  -0.52738
 Alpha  occ. eigenvalues --   -0.51400  -0.49836  -0.47095  -0.46065  -0.45574
 Alpha  occ. eigenvalues --   -0.44171  -0.43952  -0.43212  -0.42489  -0.42252
 Alpha  occ. eigenvalues --   -0.41593  -0.41293  -0.39724  -0.38974  -0.37015
 Alpha  occ. eigenvalues --   -0.36729  -0.35863  -0.30520  -0.30121  -0.29000
 Alpha  occ. eigenvalues --   -0.28500  -0.27434  -0.25915  -0.24642  -0.23464
 Alpha virt. eigenvalues --   -0.00913   0.01101   0.01472   0.05519   0.06335
 Alpha virt. eigenvalues --    0.06688   0.07143   0.09450   0.10505   0.12615
 Alpha virt. eigenvalues --    0.13090   0.13809   0.14055   0.15595   0.16604

 Mulliken charges:
               1
     1  O   -0.562455
     2  C    0.610211
     3  N   -0.519711
     4  C   -0.054243
     5  C    0.626127
     6  O   -0.508269
     7  O   -0.463034
     8  C   -0.254865
     9  C    0.259644
    10  C   -0.019767
    11  N   -0.444934
    12  C    0.265161
    13  N   -0.537043
    14  C   -0.253820
    15  C   -0.057901
    16  N   -0.605583
    17  H    0.276406
    18  H    0.150264
    19  H    0.360437
    20  H    0.152079
    21  H    0.131729
    22  H    0.092102
    23  H    0.118122
    24  H    0.267884
    25  H    0.101349
    26  H    0.161367
    27  H    0.138573
    28  H    0.089140
    29  H    0.244566
    30  H    0.236465
 Sum of Mulliken charges =   0.00000

 Dipole moment (field-independent basis, Debye):
    X=              1.2667    Y=              3.7856    Z=             -2.0518  Tot=              4.4883
 Quadrupole moment (field-independent basis, Debye-Ang):
   XX=            -80.0593   YY=           -115.9581   ZZ=            -90.6945
   XY=              4.4008   XZ=             13.5865   YZ=            -18.1861

  Exact polarizability: 108.771 -14.156 130.262  28.005   3.188 129.795
 Approx polarizability: 139.972 -16.642 188.604  24.203   1.442 215.979

                      1                      2                      3
                      A                      A                      A
 Frequencies --     18.5483                28.8301                47.6324
 Red. masses --      3.6362                 3.3909                 3.2760
 Frc consts  --      0.0007                 0.0017                 0.0044
 IR Inten    --      0.6894                 1.8292                 4.6166

                      4                      5                      6
                      A                      A                      A
 Frequencies --     63.1419                67.2120                83.8028
 Red. masses --      5.6990                 3.9347                 4.8886
 Frc consts  --      0.0134                 0.0105                 0.0202
 IR Inten    --      8.7765                 6.7421                 0.3301

                      7                      8                      9
                      A                      A                      A
 Frequencies --     87.8116               159.6411               171.1207
 Red. masses --      4.8006                 4.5482                 4.2242
 Frc consts  --      0.0218                 0.0683                 0.0729
 IR Inten    --      1.4171                11.9484                 5.0448

                     10                     11                     12
                      A                      A                      A
 Frequencies --    215.8432               231.6920               248.8197
 Red. masses --      6.5577                 3.9206                 1.8565
 Frc consts  --      0.1800                 0.1240                 0.0677
 IR Inten    --      4.9459                13.5205                12.6242

                     13                     14                     15
                      A                      A                      A
 Frequencies --    265.7420               285.4367               316.4023
 Red. masses --      1.9085                 3.4190                 6.1992
 Frc consts  --      0.0794                 0.1641                 0.3656
 IR Inten    --     23.4479                27.9243                 6.3085

                     16                     17                     18
                      A                      A                      A
 Frequencies --    360.8435               388.0167               439.3971
 Red. masses --      5.8080                 4.5214                 3.0504
 Frc consts  --      0.4456                 0.4011                 0.3470
 IR Inten    --      1.8828                 1.6662                 5.0636

                     19                     20                     21
                      A                      A                      A
 Frequencies --    489.1116               520.7458               546.2930
 Red. masses --      1.2907                 1.4716                 4.3653
 Frc consts  --      0.1819                 0.2351                 0.7676
 IR Inten    --     93.1674                84.0092                19.9848

                     22                     23                     24
                      A                      A                      A
 Frequencies --    621.5638               623.5637               648.8797
 Red. masses --      4.5948                 2.9763                 2.4536
 Frc consts  --      1.0459                 0.6818                 0.6087
 IR Inten    --     14.8589                12.1194                17.0793

                     25                     26                     27
                      A                      A                      A
 Frequencies --    680.3384               730.7385               754.7128
 Red. masses --      3.1655                 4.6071                 3.8987
 Frc consts  --      0.8633                 1.4494                 1.3084
 IR Inten    --      2.2151                 2.3610                 8.5109

                     28                     29                     30
                      A                      A                      A
 Frequencies --    771.8621               802.8001               804.0111
 Red. masses --      4.4691                 1.3861                 1.4487
 Frc consts  --      1.5687                 0.5263                 0.5518
 IR Inten    --     30.1621                13.4753                 8.3777

                     31                     32                     33
                      A                      A                      A
 Frequencies --    839.1207               860.8536               875.9318
 Red. masses --      1.2990                 1.3365                 2.4296
 Frc consts  --      0.5389                 0.5836                 1.0983
 IR Inten    --     11.6893               112.3810                10.9572

                     34                     35                     36
                      A                      A                      A
 Frequencies --    907.6413               938.7051               949.4561
 Red. masses --      1.1362                 5.5828                 3.3346
 Frc consts  --      0.5515                 2.8984                 1.7711
 IR Inten    --     96.6291                13.2998                 4.2031

                     37                     38                     39
                      A                      A                      A
 Frequencies --    971.6410              1006.5610              1030.4038
 Red. masses --      2.6563                 2.5512                 3.7279
 Frc consts  --      1.4775                 1.5229                 2.3320
 IR Inten    --      5.0177                 2.8621                 8.7540

                     40                     41                     42
                      A                      A                      A
 Frequencies --   1070.2511              1087.2083              1108.2995
 Red. masses --      2.7243                 2.3434                 2.1879
 Frc consts  --      1.8385                 1.6320                 1.5834
 IR Inten    --     23.8988                 8.4586                21.0501

                     43                     44                     45
                      A                      A                      A
 Frequencies --   1116.6634              1125.0411              1158.9488
 Red. masses --      1.5926                 2.7455                 2.2966
 Frc consts  --      1.1700                 2.0474                 1.8174
 IR Inten    --     16.3661                 7.2024                14.0455

                     46                     47                     48
                      A                      A                      A
 Frequencies --   1165.6199              1204.5979              1231.8020
 Red. masses --      1.3642                 1.5705                 2.0424
 Frc consts  --      1.0920                 1.3427                 1.8259
 IR Inten    --      3.5101                13.0023                 5.5141

                     49                     50                     51
                      A                      A                      A
 Frequencies --   1246.0027              1270.4841              1288.2243
 Red. masses --      1.6696                 1.5785                 1.4153
 Frc consts  --      1.5272                 1.5011                 1.3838
 IR Inten    --     23.1397                14.1402                28.4864

                     52                     53                     54
                      A                      A                      A
 Frequencies --   1288.9742              1323.3993              1345.3490
 Red. masses --      1.4803                 1.9902                 1.1269
 Frc consts  --      1.4490                 2.0536                 1.2018
 IR Inten    --      8.8184                20.9904                 5.4947

                     55                     56                     57
                      A                      A                      A
 Frequencies --   1361.6707              1377.3971              1390.4821
 Red. masses --      1.6849                 1.5800                 1.5788
 Frc consts  --      1.8407                 1.7661                 1.7985
 IR Inten    --      1.6507                11.4230                14.7193

                     58                     59                     60
                      A                      A                      A
 Frequencies --   1427.1153              1438.1416              1439.8863
 Red. masses --      2.3727                 2.9106                 1.5381
 Frc consts  --      2.8471                 3.5468                 1.8788
 IR Inten    --     10.0576                17.0916                31.3056

                     61                     62                     63
                      A                      A                      A
 Frequencies --   1477.4041              1478.9955              1489.8475
 Red. masses --      1.0951                 1.3883                 1.1389
 Frc consts  --      1.4083                 1.7892                 1.4895
 IR Inten    --     28.1525               258.6658                16.7423

                     64                     65                     66
                      A                      A                      A
 Frequencies --   1516.4616              1529.5471              1551.9531
 Red. masses --      3.7796                 1.0844                 2.3336
 Frc consts  --      5.1210                 1.4947                 3.3116
 IR Inten    --     20.8526                 0.9813               345.4546

                     67                     68                     69
                      A                      A                      A
 Frequencies --   1620.4415              1672.4131              1717.3671
 Red. masses --      4.3725                 1.0927                 7.8586
 Frc consts  --      6.7646                 1.8007                13.6559
 IR Inten    --     10.6983                20.2112               216.0025

                     70                     71                     72
                      A                      A                      A
 Frequencies --   1857.8862              2966.5717              3034.0978
 Red. masses --      9.0061                 1.0740                 1.0823
 Frc consts  --     18.3158                 5.5689                 5.8705
 IR Inten    --    316.6237                66.4776                 4.6434

                     73                     74                     75
                      A                      A                      A
 Frequencies --   3043.4655              3050.5517              3084.7936
 Red. masses --      1.0606                 1.0656                 1.0996
 Frc consts  --      5.7880                 5.8427                 6.1649
 IR Inten    --     14.4091                15.1572                 5.9152

                     76                     77                     78
                      A                      A                      A
 Frequencies --   3089.2133              3115.4211              3248.9606
 Red. masses --      1.0979                 1.0914                 1.0742
 Frc consts  --      6.1732                 6.2411                 6.6806
 IR Inten    --      7.6452                16.8120               729.5846

                     79                     80                     81
                      A                      A                      A
 Frequencies --   3256.4461              3262.8783              3492.5547
 Red. masses --      1.0951                 1.0986                 1.0504
 Frc consts  --      6.8423                 6.8908                 7.5490
 IR Inten    --     11.1994                 0.2256                 1.0052

                     82                     83                     84
                      A                      A                      A
 Frequencies --   3578.3453              3623.2593              3660.2432
 Red. masses --      1.0919                 1.0780                 1.0812
 Frc consts  --      8.2376                 8.3381                 8.5346
 IR Inten    --      0.0066                48.0402                50.1819

 - Thermochemistry -
 -------------------
 Temperature   298.150 Kelvin.  Pressure   1.00000 Atm.
 Atom     1 has atomic number  8 and mass  15.99491

 Molecular mass:   226.10659 amu.
 Principal axes and moments of inertia in atomic units:
                           1         2         3
     Eigenvalues --  3112.698175381.135337975.88926
           X            0.78832   0.04960  -0.61326
           Y           -0.29051   0.90864  -0.29995
           Z            0.54235   0.41461   0.73072
 This molecule is an asymmetric top.
 Rotational symmetry number  1.
 Warning -- assumption of classical behavior for rotation
           may cause significant error
 Rotational temperatures (Kelvin)      0.02783     0.01610     0.01086
 Rotational constants (GHZ):           0.57980     0.33538     0.22627
 Zero-point vibrational energy     644425.6 (Joules/Mol)
                                  154.02141 (Kcal/Mol)
 Warning -- explicit consideration of  21 degrees of freedom as
           vibrations may cause significant error
 Vibrational temperatures:     26.69    41.48    68.53    90.85    96.70
          (Kelvin)            120.57   126.34   229.69   246.20   310.55
                              333.35   358.00   382.34   410.68   455.23
                              519.17   558.27   632.19   703.72   749.24
                              785.99   894.29   897.17   933.59   978.85
                             1051.37  1085.86  1110.54  1155.05  1156.79
                             1207.31  1238.57  1260.27  1305.89  1350.59
                             1366.05  1397.97  1448.21  1482.52  1539.85
                             1564.25  1594.59  1606.63  1618.68  1667.47
                             1677.06  1733.15  1772.29  1792.72  1827.94
                             1853.47  1854.54  1904.07  1935.65  1959.14
                             1981.76  2000.59  2053.30  2069.16  2071.67
                             2125.65  2127.94  2143.56  2181.85  2200.67
                             2232.91  2331.45  2406.23  2470.91  2673.08
                             4268.23  4365.38  4378.86  4389.06  4438.32
                             4444.68  4482.39  4674.52  4685.29  4694.55
                             5025.00  5148.43  5213.06  5266.27

 Zero-point correction=                           0.245449 (Hartree/Particle)
 Thermal correction to Energy=                    0.261462
 Thermal correction to Enthalpy=                  0.262406
 Thermal correction to Gibbs Free Energy=         0.198919
 Sum of electronic and zero-point Energies=           -795.920593
 Sum of electronic and thermal Energies=              -795.904580
 Sum of electronic and thermal Enthalpies=            -795.903636
 Sum of electronic and thermal Free Energies=         -795.967122

                     E (Thermal)             CV                S
                      KCal/Mol        Cal/Mol-Kelvin    Cal/Mol-Kelvin
 Total                  164.070             57.850            133.620
 Electronic               0.000              0.000              0.000
 Translational            0.889              2.981             42.150
 Rotational               0.889              2.981             33.257
 Vibrational            162.292             51.889             58.213
 Vibration     1          0.593              1.986              6.784
 Vibration     2          0.593              1.984              5.908
 Vibration     3          0.595              1.978              4.913
 Vibration     4          0.597              1.972              4.357
 Vibration     5          0.598              1.970              4.233
 Vibration     6          0.601              1.960              3.800
 Vibration     7          0.601              1.958              3.708
 Vibration     8          0.622              1.892              2.554
 Vibration     9          0.626              1.878              2.423
 Vibration    10          0.645              1.817              1.994
 Vibration    11          0.653              1.793              1.866
 Vibration    12          0.662              1.765              1.739
 Vibration    13          0.672              1.736              1.624
 Vibration    14          0.683              1.701              1.501
 Vibration    15          0.703              1.642              1.329
 Vibration    16          0.735              1.553              1.118
 Vibration    17          0.756              1.496              1.008
 Vibration    18          0.799              1.384              0.829
 Vibration    19          0.845              1.274              0.686
 Vibration    20          0.876              1.204              0.608
 Vibration    21          0.901              1.148              0.552

 Optimization completed.
    -- Stationary point found.
 Normal termination of Gaussian 09 at Sat Jul 24 01:28:57 2021.
