 Gaussian 09, Revision D.01,
 Gaussian 09:  ES64L-G09RevD.01 24-Apr-2013

 ----------------------------------------------------------------------
 # B3LYP/6-311G(2df,2pd) guess=read geom=checkpoint opt=readfc freq=nor
 aman nosymm integral(ultrafinegrid)
 ----------------------------------------------------------------------

 -----------------------------------------------------------
 Candidate Structure: Conf:55 OPT and FREQ calc in gas phase
 -----------------------------------------------------------
 Structure from the checkpoint file:  "conf-55.chk"
 Charge =  1 Multiplicity = 1

 SCF Done:  E(RB3LYP) =  -796.722803772     A.U. after   11 cycles
 SCF Done:  E(RB3LYP) =  -796.723506380     A.U. after   10 cycles
 SCF Done:  E(RB3LYP) =  -796.723521650     A.U. after    9 cycles
 SCF Done:  E(RB3LYP) =  -796.723534838     A.U. after   10 cycles
 SCF Done:  E(RB3LYP) =  -796.723561101     A.U. after   11 cycles
 SCF Done:  E(RB3LYP) =  -796.723232801     A.U. after   14 cycles
 SCF Done:  E(RB3LYP) =  -796.723584142     A.U. after   10 cycles
 SCF Done:  E(RB3LYP) =  -796.673363976     A.U. after   12 cycles
 SCF Done:  E(RB3LYP) =  -796.723585819     A.U. after    8 cycles
 SCF Done:  E(RB3LYP) =  -796.723588477     A.U. after   10 cycles
 SCF Done:  E(RB3LYP) =  -796.723591792     A.U. after    9 cycles
 SCF Done:  E(RB3LYP) =  -796.723592427     A.U. after    8 cycles
 SCF Done:  E(RB3LYP) =  -796.723592675     A.U. after    8 cycles
 SCF Done:  E(RB3LYP) =  -796.723592690     A.U. after    6 cycles
 Optimization completed.
    -- Stationary point found.
 Normal termination of Gaussian 09 at Thu Jul 29 05:15:18 2021.

 ----------------------------------------------------------------------
 #N Geom=AllCheck Guess=TCheck SCRF=Check GenChk RB3LYP/6-311G(2df,2pd)
  Freq
 ----------------------------------------------------------------------

 Structure from the checkpoint file:  "conf-55.chk"
 -----------------------------------------------------------
 Candidate Structure: Conf:55 OPT and FREQ calc in gas phase
 -----------------------------------------------------------
 Charge =  1 Multiplicity = 1

                          Input orientation:
 ---------------------------------------------------------------------
 Center     Atomic      Atomic             Coordinates (Angstroms)
 Number     Number       Type             X           Y           Z
 ---------------------------------------------------------------------
      1          8           0        1.448175    0.464689    1.169350
      2          6           0        1.542181   -0.001226    0.045460
      3          7           0        0.520377   -0.492847   -0.670598
      4          6           0       -0.813273   -0.670868   -0.119307
      5          6           0       -1.467859   -1.781757   -0.958101
      6          8           0       -2.663248   -2.205180   -0.562907
      7          8           0       -0.921487   -2.239500   -1.927870
      8          6           0       -1.624520    0.650182   -0.124810
      9          6           0       -2.943523    0.534350    0.572432
     10          6           0       -3.297987    0.034985    1.804874
     11          7           0       -4.650499    0.152378    2.010708
     12          6           0       -5.120155    0.717180    0.928883
     13          7           0       -4.131736    0.966122    0.023444
     14          6           0        2.915401   -0.040902   -0.650364
     15          6           0        3.943496    0.483053    0.336124
     16          7           0        5.338345    0.475910   -0.278531
     17          1           0        0.665643   -0.994514   -1.539676
     18          1           0       -0.722573   -1.011053    0.914429
     19          1           0       -2.986023   -1.698615    0.204090
     20          1           0       -1.766719    0.970508   -1.158925
     21          1           0       -1.002059    1.402912    0.361345
     22          1           0       -2.651751   -0.373116    2.565173
     23          1           0       -6.151572    0.963753    0.739303
     24          1           0       -4.249456    1.383370   -0.884684
     25          1           0        3.143057   -1.065271   -0.956327
     26          1           0        2.882346    0.573198   -1.553997
     27          1           0        3.735663    1.506182    0.634040
     28          1           0        3.994560   -0.126529    1.233406
     29          1           0        5.620886   -0.467483   -0.551656
     30          1           0        5.380547    1.061722   -1.114794
     31          1           0        6.033600    0.828369    0.382256
 ---------------------------------------------------------------------

 SCF Done:  E(RB3LYP) =  -796.723592690     A.U. after    1 cycles

 Alpha  occ. eigenvalues --  -19.26222 -19.22170 -19.21079 -14.63869 -14.46358
 Alpha  occ. eigenvalues --  -14.45831 -14.37447 -10.41465 -10.41200 -10.40684
 Alpha  occ. eigenvalues --  -10.35510 -10.34419 -10.30758 -10.30260 -10.29956
 Alpha  occ. eigenvalues --  -10.27254  -1.20947  -1.20547  -1.17835  -1.12961
 Alpha  occ. eigenvalues --   -1.10885  -1.06021  -0.96683  -0.96343  -0.91305
 Alpha  occ. eigenvalues --   -0.85828  -0.82964  -0.79085  -0.78770  -0.77486
 Alpha  occ. eigenvalues --   -0.72953  -0.71200  -0.70648  -0.69259  -0.68091
 Alpha  occ. eigenvalues --   -0.67258  -0.64881  -0.63568  -0.60738  -0.60368
 Alpha  occ. eigenvalues --   -0.57973  -0.57298  -0.56520  -0.55385  -0.54589
 Alpha  occ. eigenvalues --   -0.53819  -0.53165  -0.52223  -0.50993  -0.50745
 Alpha  occ. eigenvalues --   -0.49854  -0.48699  -0.47873  -0.42534  -0.40151
 Alpha  occ. eigenvalues --   -0.39427  -0.38720  -0.37631  -0.35589  -0.32415
 Alpha virt. eigenvalues --   -0.18995  -0.13201  -0.12460  -0.11162  -0.10258
 Alpha virt. eigenvalues --   -0.09841  -0.07451  -0.07156  -0.05615  -0.05449
 Alpha virt. eigenvalues --   -0.04659  -0.04567  -0.03582  -0.02295  -0.01768

 Mulliken charges:
               1
     1  O   -0.415611
     2  C    0.498860
     3  N   -0.340119
     4  C    0.030626
     5  C    0.547403
     6  O   -0.277312
     7  O   -0.366686
     8  C    0.026480
     9  C    0.031700
    10  C    0.077867
    11  N   -0.336347
    12  C    0.251838
    13  N   -0.229174
    14  C   -0.128720
    15  C    0.154241
    16  N    0.087756
    17  H    0.113644
    18  H    0.043829
    19  H    0.228917
    20  H    0.020518
    21  H    0.044819
    22  H    0.034393
    23  H    0.041704
    24  H    0.116468
    25  H    0.053409
    26  H    0.052826
    27  H    0.084863
    28  H    0.085087
    29  H    0.160173
    30  H    0.159468
    31  H    0.147079
 Sum of Mulliken charges =   1.00000

 Dipole moment (field-independent basis, Debye):
    X=             19.7480    Y=              4.2331    Z=             -3.6874  Tot=             20.5304
 Quadrupole moment (field-independent basis, Debye-Ang):
   XX=             41.3267   YY=            -92.5609   ZZ=            -98.3484
   XY=             -1.5495   XZ=              1.1042   YZ=            -10.3233

  Exact polarizability: 182.365  -0.858 102.849 -12.476   4.798 120.288
 Approx polarizability: 221.960  -1.931 161.909 -13.620   2.250 211.404

                      1                      2                      3
                      A                      A                      A
 Frequencies --     21.7004                26.0641                40.0282
 Red. masses --      3.0358                 2.6391                 2.9552
 Frc consts  --      0.0008                 0.0011                 0.0028
 IR Inten    --      5.6607                 1.5918                11.0155

                      4                      5                      6
                      A                      A                      A
 Frequencies --     46.6239                65.9779                87.4830
 Red. masses --      4.9308                 7.5873                 6.7182
 Frc consts  --      0.0063                 0.0195                 0.0303
 IR Inten    --      0.6168                14.0193                 7.5441

                      7                      8                      9
                      A                      A                      A
 Frequencies --     94.8877               106.4474               129.0658
 Red. masses --      4.3043                 5.2026                 4.3547
 Frc consts  --      0.0228                 0.0347                 0.0427
 IR Inten    --      5.6042                 8.2121                 4.7788

                     10                     11                     12
                      A                      A                      A
 Frequencies --    186.8504               225.8253               227.3610
 Red. masses --      5.2172                 1.0668                 4.9692
 Frc consts  --      0.1073                 0.0321                 0.1513
 IR Inten    --      2.7145                 0.1531                35.4937

                     13                     14                     15
                      A                      A                      A
 Frequencies --    270.8802               318.2166               331.7727
 Red. masses --      5.8722                 2.3364                 6.7024
 Frc consts  --      0.2539                 0.1394                 0.4347
 IR Inten    --     11.5085                 4.7927                 0.1068

                     16                     17                     18
                      A                      A                      A
 Frequencies --    345.1312               373.4561               399.7701
 Red. masses --      5.3856                 4.0139                 4.3221
 Frc consts  --      0.3780                 0.3298                 0.4070
 IR Inten    --     18.4775                14.9080                 9.4406

                     19                     20                     21
                      A                      A                      A
 Frequencies --    549.3260               558.9193               572.0618
 Red. masses --      1.4090                 4.6965                 2.1173
 Frc consts  --      0.2505                 0.8644                 0.4082
 IR Inten    --     71.4557                19.0891                24.9360

                     22                     23                     24
                      A                      A                      A
 Frequencies --    618.7544               649.9291               663.1611
 Red. masses --      2.5823                 1.6361                 1.3897
 Frc consts  --      0.5825                 0.4072                 0.3601
 IR Inten    --     29.5447                15.2963                54.4758

                     25                     26                     27
                      A                      A                      A
 Frequencies --    669.6344               684.1593               712.2468
 Red. masses --      2.3622                 3.0073                 3.8145
 Frc consts  --      0.6241                 0.8294                 1.1401
 IR Inten    --     12.2463                15.6998                13.9984

                     28                     29                     30
                      A                      A                      A
 Frequencies --    744.5557               760.9473               791.8414
 Red. masses --      3.3665                 3.8651                 1.2314
 Frc consts  --      1.0996                 1.3186                 0.4549
 IR Inten    --      0.7132                 0.3514                 9.5075

                     31                     32                     33
                      A                      A                      A
 Frequencies --    818.6211               851.8487               868.3989
 Red. masses --      2.9948                 1.3977                 1.4329
 Frc consts  --      1.1824                 0.5976                 0.6366
 IR Inten    --      1.4922                24.7581                20.9528

                     34                     35                     36
                      A                      A                      A
 Frequencies --    877.7447               918.8950               935.2664
 Red. masses --      3.1044                 1.2674                 3.7688
 Frc consts  --      1.4092                 0.6305                 1.9423
 IR Inten    --     36.3545                 4.0706                39.1071

                     37                     38                     39
                      A                      A                      A
 Frequencies --    936.0695               977.0772              1015.6484
 Red. masses --      5.0579                 2.0399                 3.2376
 Frc consts  --      2.6112                 1.1474                 1.9677
 IR Inten    --     10.1690                31.7168                 9.1854

                     40                     41                     42
                      A                      A                      A
 Frequencies --   1024.2073              1031.3207              1099.9643
 Red. masses --      2.9757                 4.3825                 1.8362
 Frc consts  --      1.8391                 2.7464                 1.3090
 IR Inten    --     10.1621                 3.2186                13.7870

                     43                     44                     45
                      A                      A                      A
 Frequencies --   1104.5629              1107.7036              1147.6909
 Red. masses --      2.2614                 1.6967                 2.3853
 Frc consts  --      1.6256                 1.2266                 1.8512
 IR Inten    --     31.2541                10.0259                14.2143

                     46                     47                     48
                      A                      A                      A
 Frequencies --   1149.5155              1175.6451              1229.3691
 Red. masses --      2.3864                 1.3810                 1.8066
 Frc consts  --      1.8579                 1.1246                 1.6087
 IR Inten    --      3.6272                 1.2674                16.7866

                     49                     50                     51
                      A                      A                      A
 Frequencies --   1237.8847              1252.8492              1284.3109
 Red. masses --      1.7659                 1.8993                 1.4623
 Frc consts  --      1.5943                 1.7565                 1.4211
 IR Inten    --      6.4249                16.5305                 0.7884

                     52                     53                     54
                      A                      A                      A
 Frequencies --   1286.3554              1310.4556              1330.9011
 Red. masses --      1.3312                 1.3685                 1.4717
 Frc consts  --      1.2979                 1.3846                 1.5359
 IR Inten    --      1.4775                12.1256                50.2193

                     55                     56                     57
                      A                      A                      A
 Frequencies --   1336.8220              1342.1903              1365.8152
 Red. masses --      1.2548                 1.3385                 1.4381
 Frc consts  --      1.3212                 1.4207                 1.5806
 IR Inten    --     25.5107                18.1302               115.3863

                     58                     59                     60
                      A                      A                      A
 Frequencies --   1397.4405              1404.9006              1414.9243
 Red. masses --      2.6656                 1.3367                 2.1030
 Frc consts  --      3.0670                 1.5545                 2.4806
 IR Inten    --    105.4347                22.5625               143.2813

                     61                     62                     63
                      A                      A                      A
 Frequencies --   1430.6183              1484.2414              1484.4955
 Red. masses --      3.0604                 1.2819                 1.5614
 Frc consts  --      3.6904                 1.6638                 2.0274
 IR Inten    --     22.1488                 6.5237                12.4518

                     64                     65                     66
                      A                      A                      A
 Frequencies --   1496.8203              1497.1350              1512.4195
 Red. masses --      1.3023                 1.2789                 1.1823
 Frc consts  --      1.7190                 1.6890                 1.5934
 IR Inten    --     25.6450                 0.4215               202.1728

                     67                     68                     69
                      A                      A                      A
 Frequencies --   1534.9164              1593.9223              1666.1078
 Red. masses --      2.3302                 3.8660                 1.0422
 Frc consts  --      3.2346                 5.7870                 1.7046
 IR Inten    --    330.2524                11.1361                47.1440

                     70                     71                     72
                      A                      A                      A
 Frequencies --   1669.1640              1747.8993              1827.2403
 Red. masses --      1.0452                10.0758                 9.1646
 Frc consts  --      1.7157                18.1369                18.0283
 IR Inten    --     38.4935               278.5339               288.8990

                     73                     74                     75
                      A                      A                      A
 Frequencies --   3030.9858              3039.4692              3055.2269
 Red. masses --      1.0588                 1.0610                 1.0820
 Frc consts  --      5.7311                 5.7752                 5.9507
 IR Inten    --      4.0584                 8.0446                11.9032

                     76                     77                     78
                      A                      A                      A
 Frequencies --   3071.7369              3080.8368              3114.7310
 Red. masses --      1.1047                 1.1040                 1.0594
 Frc consts  --      6.1415                 6.1741                 6.0556
 IR Inten    --      3.2885                 4.3367                 0.6584

                     79                     80                     81
                      A                      A                      A
 Frequencies --   3169.8358              3229.6443              3250.5092
 Red. masses --      1.1120                 1.0960                 1.0983
 Frc consts  --      6.5830                 6.7353                 6.8370
 IR Inten    --      0.0460                 3.9170                 0.9053

                     82                     83                     84
                      A                      A                      A
 Frequencies --   3406.4744              3483.7516              3485.3152
 Red. masses --      1.0297                 1.0929                 1.0931
 Frc consts  --      7.0399                 7.8152                 7.8231
 IR Inten    --     54.5198                85.0649                91.4755

                     85                     86                     87
                      A                      A                      A
 Frequencies --   3519.5684              3597.8331              3641.6167
 Red. masses --      1.0775                 1.0671                 1.0814
 Frc consts  --      7.8640                 8.1385                 8.4495
 IR Inten    --    135.3442               396.5569                61.4786

 - Thermochemistry -
 -------------------
 Temperature   298.150 Kelvin.  Pressure   1.00000 Atm.
 Atom     1 has atomic number  8 and mass  15.99491

 Molecular mass:   227.11442 amu.
 Principal axes and moments of inertia in atomic units:
                           1         2         3
     Eigenvalues --  1659.333958130.974659190.45207
           X            0.99374   0.05642   0.09642
           Y            0.02238   0.74507  -0.66661
           Z           -0.10945   0.66460   0.73914
 This molecule is an asymmetric top.
 Rotational symmetry number  1.
 Warning -- assumption of classical behavior for rotation
           may cause significant error
 Rotational temperatures (Kelvin)      0.05220     0.01065     0.00942
 Rotational constants (GHZ):           1.08763     0.22196     0.19637
 Zero-point vibrational energy     679658.3 (Joules/Mol)
                                  162.44223 (Kcal/Mol)
 Warning -- explicit consideration of  22 degrees of freedom as
           vibrations may cause significant error
 Vibrational temperatures:     31.22    37.50    57.59    67.08    94.93
          (Kelvin)            125.87   136.52   153.15   185.70   268.84
                              324.91   327.12   389.74   457.84   477.35
                              496.57   537.32   575.18   790.36   804.16
                              823.07   890.25   935.10   954.14   963.45
                              984.35  1024.76  1071.25  1094.83  1139.28
                             1177.81  1225.62  1249.43  1262.88  1322.08
                             1345.64  1346.79  1405.79  1461.29  1473.60
                             1483.84  1582.60  1589.22  1593.74  1651.27
                             1653.89  1691.49  1768.79  1781.04  1802.57
                             1847.83  1850.78  1885.45  1914.87  1923.39
                             1931.11  1965.10  2010.60  2021.34  2035.76
                             2058.34  2135.49  2135.86  2153.59  2154.04
                             2176.03  2208.40  2293.30  2397.15  2401.55
                             2514.83  2628.99  4360.91  4373.11  4395.78
                             4419.54  4432.63  4481.40  4560.68  4646.73
                             4676.75  4901.15  5012.34  5014.58  5063.87
                             5176.47  5239.47

 Zero-point correction=                           0.258868 (Hartree/Particle)
 Thermal correction to Energy=                    0.275203
 Thermal correction to Enthalpy=                  0.276147
 Thermal correction to Gibbs Free Energy=         0.211533
 Sum of electronic and zero-point Energies=           -796.464725
 Sum of electronic and thermal Energies=              -796.448390
 Sum of electronic and thermal Enthalpies=            -796.447445
 Sum of electronic and thermal Free Energies=         -796.512060

                     E (Thermal)             CV                S
                      KCal/Mol        Cal/Mol-Kelvin    Cal/Mol-Kelvin
 Total                  172.692             58.707            135.993
 Electronic               0.000              0.000              0.000
 Translational            0.889              2.981             42.163
 Rotational               0.889              2.981             33.183
 Vibrational            170.915             52.745             60.647
 Vibration     1          0.593              1.985              6.472
 Vibration     2          0.593              1.985              6.108
 Vibration     3          0.594              1.981              5.258
 Vibration     4          0.595              1.979              4.956
 Vibration     5          0.597              1.971              4.270
 Vibration     6          0.601              1.958              3.716
 Vibration     7          0.603              1.953              3.557
 Vibration     8          0.605              1.944              3.333
 Vibration     9          0.612              1.924              2.960
 Vibration    10          0.632              1.858              2.259
 Vibration    11          0.650              1.802              1.912
 Vibration    12          0.651              1.799              1.900
 Vibration    13          0.675              1.727              1.591
 Vibration    14          0.705              1.639              1.319
 Vibration    15          0.714              1.612              1.251
 Vibration    16          0.724              1.585              1.188
 Vibration    17          0.745              1.527              1.066
 Vibration    18          0.766              1.471              0.963
 Vibration    19          0.905              1.141              0.546
 Vibration    20          0.915              1.120              0.526
 Vibration    21          0.928              1.092              0.500
 Vibration    22          0.979              0.992              0.419

 Optimization completed.
    -- Stationary point found.
 Normal termination of Gaussian 09 at Thu Jul 29 08:54:17 2021.
