 Gaussian 09, Revision D.01,
 Gaussian 09:  ES64L-G09RevD.01 24-Apr-2013

 ----------------------------------------------------------------------
 # B3LYP/6-311G(2df,2pd) guess=read geom=checkpoint opt=readfc freq=nor
 aman nosymm integral(ultrafinegrid)
 ----------------------------------------------------------------------

 ------------------------------------------------------------
 Candidate Structure: Conf:661 OPT and FREQ calc in gas phase
 ------------------------------------------------------------
 Structure from the checkpoint file:  "conf-661.chk"
 Charge =  1 Multiplicity = 1

 SCF Done:  E(RB3LYP) =  -796.740139862     A.U. after   11 cycles
 SCF Done:  E(RB3LYP) =  -796.740852600     A.U. after   10 cycles
 SCF Done:  E(RB3LYP) =  -796.740860875     A.U. after    9 cycles
 SCF Done:  E(RB3LYP) =  -796.740861173     A.U. after    7 cycles
 Optimization completed.
    -- Stationary point found.
 Normal termination of Gaussian 09 at Thu Jul 29 02:40:13 2021.

 ----------------------------------------------------------------------
 #N Geom=AllCheck Guess=TCheck SCRF=Check GenChk RB3LYP/6-311G(2df,2pd)
  Freq
 ----------------------------------------------------------------------

 Structure from the checkpoint file:  "conf-661.chk"
 ------------------------------------------------------------
 Candidate Structure: Conf:661 OPT and FREQ calc in gas phase
 ------------------------------------------------------------
 Charge =  1 Multiplicity = 1

                          Input orientation:
 ---------------------------------------------------------------------
 Center     Atomic      Atomic             Coordinates (Angstroms)
 Number     Number       Type             X           Y           Z
 ---------------------------------------------------------------------
      1          8           0        2.100718    1.157062    0.873999
      2          6           0        1.407384    0.945361   -0.103086
      3          7           0        0.176389    0.380749   -0.007383
      4          6           0       -0.272415   -0.137139    1.261015
      5          6           0        0.735873   -1.191656    1.743368
      6          8           0        0.735438   -1.483729    3.034833
      7          8           0        1.464219   -1.808720    0.995165
      8          6           0       -1.670820   -0.808650    1.105074
      9          6           0       -2.652410    0.028152    0.363001
     10          6           0       -3.086810   -0.050597   -0.937252
     11          7           0       -3.958933    0.966074   -1.227001
     12          6           0       -4.064232    1.658525   -0.122615
     13          7           0       -3.287593    1.142301    0.873479
     14          6           0        1.981281    1.087603   -1.507768
     15          6           0        3.198140    0.168658   -1.584421
     16          7           0        2.816694   -1.275080   -1.313727
     17          1           0       -0.470309    0.367370   -0.783026
     18          1           0       -0.316635    0.664746    2.003188
     19          1           0        0.169424   -0.893452    3.547984
     20          1           0       -2.036450   -1.079179    2.097533
     21          1           0       -1.544798   -1.742593    0.555785
     22          1           0       -2.843394   -0.808700   -1.665052
     23          1           0       -4.680367    2.530581    0.021806
     24          1           0       -3.244688    1.481721    1.819788
     25          1           0        2.330966    2.108881   -1.655375
     26          1           0        1.255621    0.863037   -2.290936
     27          1           0        3.910941    0.443708   -0.811856
     28          1           0        3.680179    0.200679   -2.558199
     29          1           0        3.650162   -1.858718   -1.243069
     30          1           0        2.270059   -1.402415   -0.416422
     31          1           0        2.245965   -1.654472   -2.068824
 ---------------------------------------------------------------------

 SCF Done:  E(RB3LYP) =  -796.740861173     A.U. after    1 cycles

 Alpha  occ. eigenvalues --  -19.31669 -19.26323 -19.23190 -14.58646 -14.48500
 Alpha  occ. eigenvalues --  -14.47886 -14.39401 -10.45846 -10.41773 -10.39571
 Alpha  occ. eigenvalues --  -10.37716 -10.34281 -10.33248 -10.32899 -10.32243
 Alpha  occ. eigenvalues --  -10.29392  -1.26218  -1.19445  -1.17682  -1.15734
 Alpha  occ. eigenvalues --   -1.12915  -1.08075  -0.98475  -0.95599  -0.93216
 Alpha  occ. eigenvalues --   -0.87255  -0.82813  -0.80019  -0.77922  -0.75318
 Alpha  occ. eigenvalues --   -0.74311  -0.73721  -0.72711  -0.70937  -0.68689
 Alpha  occ. eigenvalues --   -0.66416  -0.65982  -0.65066  -0.64752  -0.61059
 Alpha  occ. eigenvalues --   -0.60107  -0.59025  -0.58059  -0.57219  -0.56399
 Alpha  occ. eigenvalues --   -0.55742  -0.54351  -0.53744  -0.52989  -0.52488
 Alpha  occ. eigenvalues --   -0.52156  -0.51818  -0.50467  -0.47543  -0.44389
 Alpha  occ. eigenvalues --   -0.41470  -0.40841  -0.39663  -0.37597  -0.34645
 Alpha virt. eigenvalues --   -0.15545  -0.14680  -0.13749  -0.11323  -0.10154
 Alpha virt. eigenvalues --   -0.08720  -0.08504  -0.07543  -0.07089  -0.05734
 Alpha virt. eigenvalues --   -0.04512  -0.04123  -0.03195  -0.02519  -0.02218

 Mulliken charges:
               1
     1  O   -0.402332
     2  C    0.359212
     3  N   -0.290296
     4  C    0.052204
     5  C    0.576161
     6  O   -0.273005
     7  O   -0.434085
     8  C    0.028886
     9  C    0.034429
    10  C    0.090888
    11  N   -0.329796
    12  C    0.254965
    13  N   -0.238905
    14  C   -0.004960
    15  C    0.081513
    16  N    0.082967
    17  H    0.126611
    18  H    0.041023
    19  H    0.237160
    20  H    0.043246
    21  H    0.049867
    22  H    0.029026
    23  H    0.045415
    24  H    0.118401
    25  H    0.062430
    26  H    0.044519
    27  H    0.082430
    28  H    0.070152
    29  H    0.134492
    30  H    0.194266
    31  H    0.133117
 Sum of Mulliken charges =   1.00000

 Dipole moment (field-independent basis, Debye):
    X=              5.4809    Y=             -1.8610    Z=             -1.3607  Tot=              5.9460
 Quadrupole moment (field-independent basis, Debye-Ang):
   XX=            -61.4301   YY=            -82.9272   ZZ=            -67.5855
   XY=            -13.4306   XZ=            -37.1042   YZ=              9.0686

  Exact polarizability: 151.788 -16.605 115.077  -2.196  -3.528 134.421
 Approx polarizability: 201.433 -19.862 180.237   9.387   7.267 219.878

                      1                      2                      3
                      A                      A                      A
 Frequencies --     31.8473                39.5114                61.2930
 Red. masses --      4.0216                 4.1618                 7.0033
 Frc consts  --      0.0024                 0.0038                 0.0155
 IR Inten    --     13.0799                 0.8361                12.7846

                      4                      5                      6
                      A                      A                      A
 Frequencies --     66.1152                82.7344               112.5592
 Red. masses --      4.1932                 5.6608                 4.7133
 Frc consts  --      0.0108                 0.0228                 0.0352
 IR Inten    --      3.6674                 5.9579                 4.9428

                      7                      8                      9
                      A                      A                      A
 Frequencies --    149.2204               160.2673               177.5475
 Red. masses --      5.3114                 6.0999                 6.6225
 Frc consts  --      0.0697                 0.0923                 0.1230
 IR Inten    --     20.7210                 4.0083                10.6947

                     10                     11                     12
                      A                      A                      A
 Frequencies --    223.1411               248.9104               276.9036
 Red. masses --      3.9153                 2.7050                 5.6000
 Frc consts  --      0.1149                 0.0987                 0.2530
 IR Inten    --     72.8808                11.2697                11.2500

                     13                     14                     15
                      A                      A                      A
 Frequencies --    319.3853               330.6048               346.2667
 Red. masses --      3.1337                 1.1718                 3.0088
 Frc consts  --      0.1883                 0.0755                 0.2126
 IR Inten    --      9.2884                 0.5756                 4.2006

                     16                     17                     18
                      A                      A                      A
 Frequencies --    378.9941               421.4518               437.6175
 Red. masses --      3.5006                 3.9285                 2.4656
 Frc consts  --      0.2962                 0.4111                 0.2782
 IR Inten    --     13.8325                34.5352                 3.9372

                     19                     20                     21
                      A                      A                      A
 Frequencies --    487.2448               518.8280               531.2188
 Red. masses --      1.1604                 1.2230                 1.9057
 Frc consts  --      0.1623                 0.1940                 0.3168
 IR Inten    --     45.2398                32.0486                49.2563

                     22                     23                     24
                      A                      A                      A
 Frequencies --    546.2030               630.1265               653.4242
 Red. masses --      1.8822                 4.3673                 3.1867
 Frc consts  --      0.3308                 1.0217                 0.8016
 IR Inten    --     67.9268                 5.6960                 5.7490

                     25                     26                     27
                      A                      A                      A
 Frequencies --    680.9855               697.2329               714.8579
 Red. masses --      2.9933                 3.8109                 4.2532
 Frc consts  --      0.8179                 1.0915                 1.2806
 IR Inten    --      5.0927                 7.8354                17.3918

                     28                     29                     30
                      A                      A                      A
 Frequencies --    739.3328               780.6402               838.2877
 Red. masses --      2.5028                 5.7366                 3.2098
 Frc consts  --      0.8060                 2.0597                 1.3290
 IR Inten    --      1.6535                 2.5337                 1.5650

                     31                     32                     33
                      A                      A                      A
 Frequencies --    851.8613               857.3797               872.9562
 Red. masses --      1.9187                 1.4181                 2.1120
 Frc consts  --      0.8203                 0.6142                 0.9482
 IR Inten    --     10.1504                21.9114                 8.4201

                     34                     35                     36
                      A                      A                      A
 Frequencies --    877.4542               928.9501               931.7293
 Red. masses --      1.7395                 2.5683                 5.8923
 Frc consts  --      0.7891                 1.3058                 3.0138
 IR Inten    --     12.7474                 5.0396                11.2423

                     37                     38                     39
                      A                      A                      A
 Frequencies --    947.9148               956.4492              1000.8389
 Red. masses --      1.3434                 3.3740                 2.8365
 Frc consts  --      0.7112                 1.8185                 1.6740
 IR Inten    --      8.3515                 4.8254                 9.6364

                     40                     41                     42
                      A                      A                      A
 Frequencies --   1011.7354              1041.3898              1090.5378
 Red. masses --      3.7153                 3.0166                 1.5957
 Frc consts  --      2.2407                 1.9275                 1.1181
 IR Inten    --     15.3226                 3.7321                 4.8730

                     43                     44                     45
                      A                      A                      A
 Frequencies --   1104.8737              1115.4756              1138.7192
 Red. masses --      1.7279                 1.3563                 1.9790
 Frc consts  --      1.2428                 0.9943                 1.5119
 IR Inten    --     20.3798                 4.8872                24.3988

                     46                     47                     48
                      A                      A                      A
 Frequencies --   1151.0817              1193.9981              1208.6142
 Red. masses --      2.1162                 1.5730                 1.6232
 Frc consts  --      1.6520                 1.3212                 1.3970
 IR Inten    --     10.4257                12.0970                31.5800

                     49                     50                     51
                      A                      A                      A
 Frequencies --   1239.6579              1260.6791              1276.3841
 Red. masses --      1.6957                 2.0732                 1.4671
 Frc consts  --      1.5353                 1.9413                 1.4082
 IR Inten    --     90.8494                 4.4337                10.0807

                     52                     53                     54
                      A                      A                      A
 Frequencies --   1282.4522              1304.7018              1329.0095
 Red. masses --      1.5077                 1.3910                 1.6254
 Frc consts  --      1.4610                 1.3951                 1.6915
 IR Inten    --     57.6484                64.2934               193.1068

                     55                     56                     57
                      A                      A                      A
 Frequencies --   1340.5503              1356.2493              1383.7567
 Red. masses --      1.5469                 1.4517                 1.3818
 Frc consts  --      1.6378                 1.5733                 1.5589
 IR Inten    --     69.9232                10.7176                 5.1739

                     58                     59                     60
                      A                      A                      A
 Frequencies --   1391.0355              1402.0181              1411.0997
 Red. masses --      3.2504                 1.7833                 1.2905
 Frc consts  --      3.7056                 2.0653                 1.5140
 IR Inten    --      8.2930               109.0839                 3.0612

                     61                     62                     63
                      A                      A                      A
 Frequencies --   1427.9066              1478.5113              1481.2218
 Red. masses --      2.7146                 1.0972                 1.2101
 Frc consts  --      3.2611                 1.4132                 1.5643
 IR Inten    --     27.6053                14.9644                18.5317

                     64                     65                     66
                      A                      A                      A
 Frequencies --   1500.0343              1501.3680              1518.4038
 Red. masses --      1.0782                 2.9410                 2.1585
 Frc consts  --      1.4294                 3.9058                 2.9321
 IR Inten    --     17.2533                34.9981               312.7299

                     67                     68                     69
                      A                      A                      A
 Frequencies --   1574.8300              1600.5563              1670.8593
 Red. masses --      1.1563                 4.1395                 1.0511
 Frc consts  --      1.6896                 6.2479                 1.7288
 IR Inten    --     99.4712                 6.2354                59.8029

                     70                     71                     72
                      A                      A                      A
 Frequencies --   1681.9897              1751.4727              1778.8730
 Red. masses --      1.0438                 8.3222                 8.8268
 Frc consts  --      1.7399                15.0417                16.4567
 IR Inten    --     20.8993               215.7499               401.7720

                     73                     74                     75
                      A                      A                      A
 Frequencies --   2833.5721              3029.7991              3044.5611
 Red. masses --      1.0861                 1.0845                 1.0616
 Frc consts  --      5.1381                 5.8654                 5.7978
 IR Inten    --   1194.9978                 9.8423                12.7138

                     76                     77                     78
                      A                      A                      A
 Frequencies --   3058.1106              3088.3831              3096.2842
 Red. masses --      1.0631                 1.1021                 1.0612
 Frc consts  --      5.8578                 6.1934                 5.9942
 IR Inten    --      6.9326                 6.9413                 2.4606

                     79                     80                     81
                      A                      A                      A
 Frequencies --   3112.8775              3155.9937              3222.9417
 Red. masses --      1.1003                 1.1113                 1.0962
 Frc consts  --      6.2816                 6.5215                 6.7090
 IR Inten    --      2.5341                 0.1161                 4.0436

                     82                     83                     84
                      A                      A                      A
 Frequencies --   3249.6184              3454.3367              3509.1980
 Red. masses --      1.0984                 1.0529                 1.0924
 Frc consts  --      6.8339                 7.4025                 7.9257
 IR Inten    --      1.1092                76.1719                67.8979

                     85                     86                     87
                      A                      A                      A
 Frequencies --   3564.6061              3641.2470              3788.6125
 Red. masses --      1.0791                 1.0813                 1.0662
 Frc consts  --      8.0788                 8.4469                 9.0168
 IR Inten    --    147.4626                56.5171                83.1395

 - Thermochemistry -
 -------------------
 Temperature   298.150 Kelvin.  Pressure   1.00000 Atm.
 Atom     1 has atomic number  8 and mass  15.99491

 Molecular mass:   227.11442 amu.
 Principal axes and moments of inertia in atomic units:
                           1         2         3
     Eigenvalues --  2292.332915470.310356616.47489
           X            0.98117  -0.07741   0.17695
           Y           -0.19238  -0.47308   0.85976
           Z           -0.01715   0.87761   0.47907
 This molecule is an asymmetric top.
 Rotational symmetry number  1.
 Warning -- assumption of classical behavior for rotation
           may cause significant error
 Rotational temperatures (Kelvin)      0.03778     0.01583     0.01309
 Rotational constants (GHZ):           0.78729     0.32992     0.27276
 Zero-point vibrational energy     680426.8 (Joules/Mol)
                                  162.62590 (Kcal/Mol)
 Warning -- explicit consideration of  22 degrees of freedom as
           vibrations may cause significant error
 Vibrational temperatures:     45.82    56.85    88.19    95.12   119.04
          (Kelvin)            161.95   214.69   230.59   255.45   321.05
                              358.13   398.40   459.52   475.67   498.20
                              545.29   606.37   629.63   701.04   746.48
                              764.30   785.86   906.61   940.13   979.79
                             1003.16  1028.52  1063.73  1123.17  1206.11
                             1225.64  1233.58  1255.99  1262.46  1336.55
                             1340.55  1363.84  1376.12  1439.98  1455.66
                             1498.33  1569.04  1589.66  1604.92  1638.36
                             1656.15  1717.89  1738.92  1783.59  1813.83
                             1836.43  1845.16  1877.17  1912.15  1928.75
                             1951.34  1990.91  2001.39  2017.19  2030.26
                             2054.44  2127.25  2131.15  2158.21  2160.13
                             2184.64  2265.83  2302.84  2403.99  2420.00
                             2519.98  2559.40  4076.87  4359.20  4380.44
                             4399.93  4443.49  4454.86  4478.73  4540.77
                             4637.09  4675.47  4970.01  5048.95  5128.67
                             5238.94  5450.96

 Zero-point correction=                           0.259161 (Hartree/Particle)
 Thermal correction to Energy=                    0.274743
 Thermal correction to Enthalpy=                  0.275688
 Thermal correction to Gibbs Free Energy=         0.214894
 Sum of electronic and zero-point Energies=           -796.481700
 Sum of electronic and thermal Energies=              -796.466118
 Sum of electronic and thermal Enthalpies=            -796.465174
 Sum of electronic and thermal Free Energies=         -796.525967

                     E (Thermal)             CV                S
                      KCal/Mol        Cal/Mol-Kelvin    Cal/Mol-Kelvin
 Total                  172.404             58.254            127.951
 Electronic               0.000              0.000              0.000
 Translational            0.889              2.981             42.163
 Rotational               0.889              2.981             32.784
 Vibrational            170.627             52.293             53.004
 Vibration     1          0.594              1.983              5.711
 Vibration     2          0.594              1.981              5.283
 Vibration     3          0.597              1.973              4.415
 Vibration     4          0.598              1.970              4.266
 Vibration     5          0.600              1.961              3.825
 Vibration     6          0.607              1.939              3.224
 Vibration     7          0.618              1.904              2.682
 Vibration     8          0.622              1.891              2.547
 Vibration     9          0.628              1.870              2.354
 Vibration    10          0.649              1.806              1.933
 Vibration    11          0.662              1.765              1.738
 Vibration    12          0.678              1.716              1.553
 Vibration    13          0.705              1.636              1.313
 Vibration    14          0.713              1.614              1.257
 Vibration    15          0.724              1.583              1.183
 Vibration    16          0.749              1.515              1.043
 Vibration    17          0.784              1.424              0.887
 Vibration    18          0.798              1.388              0.834
 Vibration    19          0.843              1.278              0.691
 Vibration    20          0.874              1.208              0.613
 Vibration    21          0.886              1.181              0.584
 Vibration    22          0.901              1.148              0.552

 Optimization completed.
    -- Stationary point found.
 Normal termination of Gaussian 09 at Thu Jul 29 06:45:03 2021.
