 Gaussian 09, Revision D.01,
 Gaussian 09:  ES64L-G09RevD.01 24-Apr-2013

 ----------------------------------------------------------------------
 # B3LYP/6-311G(2df,2pd) guess=read geom=checkpoint opt=readfc freq=nor
 aman nosymm integral(ultrafinegrid)
 ----------------------------------------------------------------------

 ------------------------------------------------------------
 Candidate Structure: Conf:580 OPT and FREQ calc in gas phase
 ------------------------------------------------------------
 Structure from the checkpoint file:  "conf-580.chk"
 Charge =  1 Multiplicity = 1

 SCF Done:  E(RB3LYP) =  -796.726273987     A.U. after   11 cycles
 SCF Done:  E(RB3LYP) =  -796.726960393     A.U. after   10 cycles
 SCF Done:  E(RB3LYP) =  -796.726973673     A.U. after    9 cycles
 SCF Done:  E(RB3LYP) =  -796.726984804     A.U. after   10 cycles
 SCF Done:  E(RB3LYP) =  -796.727015535     A.U. after   11 cycles
 SCF Done:  E(RB3LYP) =  -796.724947834     A.U. after   12 cycles
 SCF Done:  E(RB3LYP) =  -796.727020928     A.U. after    8 cycles
 SCF Done:  E(RB3LYP) =  -796.726865428     A.U. after   14 cycles
 SCF Done:  E(RB3LYP) =  -796.727045596     A.U. after   13 cycles
 SCF Done:  E(RB3LYP) =  -796.727051497     A.U. after    9 cycles
 SCF Done:  E(RB3LYP) =  -796.727052045     A.U. after    8 cycles
 SCF Done:  E(RB3LYP) =  -796.727052090     A.U. after    6 cycles
 Optimization completed.
    -- Stationary point found.
 Normal termination of Gaussian 09 at Thu Jul 29 04:40:17 2021.

 ----------------------------------------------------------------------
 #N Geom=AllCheck Guess=TCheck SCRF=Check GenChk RB3LYP/6-311G(2df,2pd)
  Freq
 ----------------------------------------------------------------------

 Structure from the checkpoint file:  "conf-580.chk"
 ------------------------------------------------------------
 Candidate Structure: Conf:580 OPT and FREQ calc in gas phase
 ------------------------------------------------------------
 Charge =  1 Multiplicity = 1

                          Input orientation:
 ---------------------------------------------------------------------
 Center     Atomic      Atomic             Coordinates (Angstroms)
 Number     Number       Type             X           Y           Z
 ---------------------------------------------------------------------
      1          8           0        1.278449    0.509630   -1.197070
      2          6           0        1.447084    0.441891    0.010488
      3          7           0        0.466189    0.357044    0.918465
      4          6           0       -0.947157    0.374012    0.564275
      5          6           0       -1.686190    0.837758    1.810982
      6          8           0       -2.893811    1.318584    1.530972
      7          8           0       -1.217715    0.754855    2.919316
      8          6           0       -1.420714   -1.038044    0.100344
      9          6           0       -2.826945   -1.125024   -0.373195
     10          6           0       -3.942871   -1.686573    0.188115
     11          7           0       -5.038902   -1.517228   -0.618227
     12          6           0       -4.603502   -0.861158   -1.662880
     13          7           0       -3.269652   -0.593781   -1.569138
     14          6           0        2.877938    0.451709    0.580518
     15          6           0        3.837365    0.538109   -0.592810
     16          7           0        5.283272    0.563420   -0.110813
     17          1           0        0.652450    0.341910    1.912766
     18          1           0       -1.104540    1.089830   -0.241127
     19          1           0       -3.343408    1.532184    2.363175
     20          1           0       -1.287512   -1.729573    0.933097
     21          1           0       -0.725915   -1.343373   -0.685141
     22          1           0       -4.010641   -2.207863    1.129081
     23          1           0       -5.193743   -0.556726   -2.511321
     24          1           0       -2.707979   -0.135354   -2.266128
     25          1           0        3.045458   -0.456473    1.165095
     26          1           0        2.997155    1.304474    1.254014
     27          1           0        3.743858   -0.314464   -1.258690
     28          1           0        3.684922    1.441130   -1.176069
     29          1           0        5.932617    0.622829   -0.897624
     30          1           0        5.459549    1.365436    0.497531
     31          1           0        5.515084   -0.279022    0.419190
 ---------------------------------------------------------------------

 SCF Done:  E(RB3LYP) =  -796.727052090     A.U. after    1 cycles

 Alpha  occ. eigenvalues --  -19.27320 -19.22155 -19.21911 -14.63971 -14.46602
 Alpha  occ. eigenvalues --  -14.43845 -14.35408 -10.41573 -10.41275 -10.41140
 Alpha  occ. eigenvalues --  -10.35626 -10.34003 -10.28920 -10.28835 -10.27768
 Alpha  occ. eigenvalues --  -10.24940  -1.22059  -1.20650  -1.17844  -1.13297
 Alpha  occ. eigenvalues --   -1.08802  -1.06130  -0.96749  -0.94432  -0.90636
 Alpha  occ. eigenvalues --   -0.85343  -0.82773  -0.79188  -0.78585  -0.77289
 Alpha  occ. eigenvalues --   -0.73803  -0.71072  -0.69301  -0.68666  -0.66578
 Alpha  occ. eigenvalues --   -0.64991  -0.64413  -0.62200  -0.60681  -0.59868
 Alpha  occ. eigenvalues --   -0.58649  -0.57482  -0.56713  -0.56306  -0.54025
 Alpha  occ. eigenvalues --   -0.53530  -0.52634  -0.51159  -0.50586  -0.49646
 Alpha  occ. eigenvalues --   -0.48405  -0.47904  -0.47115  -0.43319  -0.40383
 Alpha  occ. eigenvalues --   -0.39555  -0.39122  -0.35543  -0.33702  -0.30192
 Alpha virt. eigenvalues --   -0.19097  -0.13266  -0.12580  -0.11231  -0.10487
 Alpha virt. eigenvalues --   -0.10102  -0.07656  -0.06080  -0.05616  -0.04800
 Alpha virt. eigenvalues --   -0.04688  -0.04335  -0.02436  -0.02114  -0.01446

 Mulliken charges:
               1
     1  O   -0.422340
     2  C    0.507582
     3  N   -0.347507
     4  C    0.107237
     5  C    0.564179
     6  O   -0.308734
     7  O   -0.384479
     8  C   -0.027610
     9  C    0.085586
    10  C    0.114428
    11  N   -0.341098
    12  C    0.244410
    13  N   -0.240297
    14  C   -0.132851
    15  C    0.154884
    16  N    0.087798
    17  H    0.117283
    18  H    0.029817
    19  H    0.235104
    20  H    0.025572
    21  H    0.031547
    22  H    0.016408
    23  H    0.031085
    24  H    0.110198
    25  H    0.052425
    26  H    0.053166
    27  H    0.084529
    28  H    0.084874
    29  H    0.147114
    30  H    0.159983
    31  H    0.159706
 Sum of Mulliken charges =   1.00000

 Dipole moment (field-independent basis, Debye):
    X=             21.7617    Y=              3.8698    Z=              0.2636  Tot=             22.1046
 Quadrupole moment (field-independent basis, Debye-Ang):
   XX=             19.1438   YY=            -88.3714   ZZ=            -84.9366
   XY=              1.4501   XZ=              1.2158   YZ=              0.2230

  Exact polarizability: 181.390  10.802  97.354   5.409  -2.462 129.251
 Approx polarizability: 226.901   8.429 152.826   6.880 -16.324 216.663

                      1                      2                      3
                      A                      A                      A
 Frequencies --     18.4677                20.5758                38.1273
 Red. masses --      3.3167                 2.5375                 3.1685
 Frc consts  --      0.0007                 0.0006                 0.0027
 IR Inten    --      0.6143                 0.4022                 6.5827

                      4                      5                      6
                      A                      A                      A
 Frequencies --     52.0693                69.4650                73.1231
 Red. masses --      5.8328                 5.3499                 8.4190
 Frc consts  --      0.0093                 0.0152                 0.0265
 IR Inten    --     11.0818                 4.5441                 7.5532

                      7                      8                      9
                      A                      A                      A
 Frequencies --     81.2821               102.5700               123.1865
 Red. masses --      5.4912                 3.8970                 4.0325
 Frc consts  --      0.0214                 0.0242                 0.0361
 IR Inten    --      5.5362                 7.1778                 7.0443

                     10                     11                     12
                      A                      A                      A
 Frequencies --    179.2769               212.5305               225.7872
 Red. masses --      5.2214                 4.7656                 1.0645
 Frc consts  --      0.0989                 0.1268                 0.0320
 IR Inten    --      2.8043                14.8595                 0.0491

                     13                     14                     15
                      A                      A                      A
 Frequencies --    264.0497               327.6469               332.6904
 Red. masses --      6.0062                 6.0287                 2.2287
 Frc consts  --      0.2467                 0.3813                 0.1453
 IR Inten    --     13.2117                 6.5107                 6.6750

                     16                     17                     18
                      A                      A                      A
 Frequencies --    336.3438               362.8661               386.0884
 Red. masses --      5.9610                 3.8884                 4.1283
 Frc consts  --      0.3973                 0.3017                 0.3626
 IR Inten    --     15.0467                 9.6602                 2.8210

                     19                     20                     21
                      A                      A                      A
 Frequencies --    519.6237               540.3100               552.5022
 Red. masses --      1.3875                 3.8487                 1.9256
 Frc consts  --      0.2207                 0.6620                 0.3463
 IR Inten    --     67.9216                36.5088                38.0310

                     22                     23                     24
                      A                      A                      A
 Frequencies --    613.1379               632.2956               650.0612
 Red. masses --      1.2423                 4.4812                 1.3931
 Frc consts  --      0.2752                 1.0556                 0.3468
 IR Inten    --     91.1961                14.7283                26.6833

                     25                     26                     27
                      A                      A                      A
 Frequencies --    667.1383               682.4592               706.3042
 Red. masses --      2.5386                 3.0884                 4.5613
 Frc consts  --      0.6657                 0.8475                 1.3407
 IR Inten    --     26.6459                11.8897                 4.5023

                     28                     29                     30
                      A                      A                      A
 Frequencies --    758.0931               770.1530               791.7606
 Red. masses --      3.6849                 3.8137                 1.2289
 Frc consts  --      1.2477                 1.3327                 0.4539
 IR Inten    --     18.4131                10.7696                 9.8987

                     31                     32                     33
                      A                      A                      A
 Frequencies --    811.8901               839.1366               871.5497
 Red. masses --      2.4811                 1.4104                 1.4726
 Frc consts  --      0.9636                 0.5851                 0.6591
 IR Inten    --      8.0590                15.3053                16.2782

                     34                     35                     36
                      A                      A                      A
 Frequencies --    877.4030               918.6871               930.7376
 Red. masses --      3.0717                 1.2652                 4.1367
 Frc consts  --      1.3933                 0.6291                 2.1114
 IR Inten    --     37.5070                 3.7550                 3.2947

                     37                     38                     39
                      A                      A                      A
 Frequencies --    934.6337               976.7422               996.1267
 Red. masses --      4.8441                 2.0157                 3.9176
 Frc consts  --      2.4931                 1.1330                 2.2903
 IR Inten    --     30.9561                15.8460                19.1596

                     40                     41                     42
                      A                      A                      A
 Frequencies --   1015.2427              1032.6258              1087.7829
 Red. masses --      3.1550                 3.1644                 3.7541
 Frc consts  --      1.9160                 1.9880                 2.6172
 IR Inten    --     30.2096                 2.3322                42.2010

                     43                     44                     45
                      A                      A                      A
 Frequencies --   1101.3122              1105.6597              1143.5962
 Red. masses --      1.5167                 1.6631                 2.3446
 Frc consts  --      1.0838                 1.1979                 1.8066
 IR Inten    --      4.0052                18.4694                 5.5953

                     46                     47                     48
                      A                      A                      A
 Frequencies --   1148.5197              1170.8284              1197.0920
 Red. masses --      2.0990                 1.5531                 1.8965
 Frc consts  --      1.6313                 1.2544                 1.6012
 IR Inten    --     20.0152                42.7279               115.7471

                     49                     50                     51
                      A                      A                      A
 Frequencies --   1237.1070              1261.7481              1280.8802
 Red. masses --      1.5085                 2.3733                 1.3924
 Frc consts  --      1.3602                 2.2261                 1.3459
 IR Inten    --     16.4317                 8.7419                 5.7285

                     52                     53                     54
                      A                      A                      A
 Frequencies --   1286.5570              1301.0999              1332.2505
 Red. masses --      1.3301                 1.3581                 1.3899
 Frc consts  --      1.2971                 1.3546                 1.4534
 IR Inten    --      1.4199                 7.7636                 3.3853

                     55                     56                     57
                      A                      A                      A
 Frequencies --   1338.6493              1339.6993              1362.4678
 Red. masses --      1.0879                 1.5587                 1.3880
 Frc consts  --      1.1486                 1.6482                 1.5181
 IR Inten    --      3.6946                 9.2800                20.3600

                     58                     59                     60
                      A                      A                      A
 Frequencies --   1387.7962              1404.2254              1430.2207
 Red. masses --      3.2534                 1.3347                 2.7743
 Frc consts  --      3.6918                 1.5506                 3.3436
 IR Inten    --      7.5470                20.4442                33.9103

                     61                     62                     63
                      A                      A                      A
 Frequencies --   1435.7336              1484.4392              1485.3094
 Red. masses --      2.7845                 1.1212                 1.1290
 Frc consts  --      3.3818                 1.4557                 1.4675
 IR Inten    --    158.4306                 1.3323                12.5814

                     64                     65                     66
                      A                      A                      A
 Frequencies --   1496.8496              1499.9714              1512.6458
 Red. masses --      1.0787                 3.4551                 1.1772
 Frc consts  --      1.4240                 4.5801                 1.5870
 IR Inten    --     10.1062                27.6386               177.6201

                     67                     68                     69
                      A                      A                      A
 Frequencies --   1544.5380              1609.4759              1666.1370
 Red. masses --      2.3453                 4.3792                 1.0423
 Frc consts  --      3.2965                 6.6837                 1.7047
 IR Inten    --    318.0983                 6.6477                47.3092

                     70                     71                     72
                      A                      A                      A
 Frequencies --   1669.1075              1744.2498              1808.0353
 Red. masses --      1.0453                10.2257                 9.7047
 Frc consts  --      1.7157                18.3299                18.6915
 IR Inten    --     39.0676               299.6289               261.0977

                     73                     74                     75
                      A                      A                      A
 Frequencies --   3030.4840              3037.8196              3071.4128
 Red. masses --      1.0588                 1.0619                 1.1047
 Frc consts  --      5.7291                 5.7738                 6.1402
 IR Inten    --      4.3033                15.8360                 3.4612

                     76                     77                     78
                      A                      A                      A
 Frequencies --   3081.3961              3097.4396              3115.0625
 Red. masses --      1.0949                 1.0912                 1.0594
 Frc consts  --      6.1253                 6.1683                 6.0566
 IR Inten    --      4.3824                 5.4380                 0.6423

                     79                     80                     81
                      A                      A                      A
 Frequencies --   3170.1915              3232.3038              3245.8982
 Red. masses --      1.1120                 1.0963                 1.0979
 Frc consts  --      6.5848                 6.7485                 6.8152
 IR Inten    --      0.0366                 4.7723                 0.5590

                     82                     83                     84
                      A                      A                      A
 Frequencies --   3406.4389              3483.7176              3485.1984
 Red. masses --      1.0297                 1.0929                 1.0931
 Frc consts  --      7.0398                 7.8150                 7.8226
 IR Inten    --     54.5173                85.2811                91.9000

                     85                     86                     87
                      A                      A                      A
 Frequencies --   3554.9381              3646.0844              3734.2863
 Red. masses --      1.0780                 1.0811                 1.0642
 Frc consts  --      8.0265                 8.4677                 8.7438
 IR Inten    --    110.4606                43.9158               105.8543

 - Thermochemistry -
 -------------------
 Temperature   298.150 Kelvin.  Pressure   1.00000 Atm.
 Atom     1 has atomic number  8 and mass  15.99491

 Molecular mass:   227.11442 amu.
 Principal axes and moments of inertia in atomic units:
                           1         2         3
     Eigenvalues --  1745.465177988.834939154.81071
           X            0.98360  -0.10036  -0.14983
           Y            0.17719   0.38320   0.90651
           Z            0.03356   0.91820  -0.39470
 This molecule is an asymmetric top.
 Rotational symmetry number  1.
 Warning -- assumption of classical behavior for rotation
           may cause significant error
 Rotational temperatures (Kelvin)      0.04962     0.01084     0.00946
 Rotational constants (GHZ):           1.03396     0.22591     0.19714
 Zero-point vibrational energy     679248.1 (Joules/Mol)
                                  162.34420 (Kcal/Mol)
 Warning -- explicit consideration of  22 degrees of freedom as
           vibrations may cause significant error
 Vibrational temperatures:     26.57    29.60    54.86    74.92    99.94
          (Kelvin)            105.21   116.95   147.58   177.24   257.94
                              305.78   324.86   379.91   471.41   478.67
                              483.92   522.08   555.49   747.62   777.38
                              794.93   882.17   909.73   935.29   959.86
                              981.91  1016.21  1090.73  1108.08  1139.17
                             1168.13  1207.33  1253.96  1262.39  1321.78
                             1339.12  1344.73  1405.31  1433.20  1460.71
                             1485.72  1565.08  1584.54  1590.80  1645.38
                             1652.46  1684.56  1722.35  1779.92  1815.37
                             1842.90  1851.07  1871.99  1916.81  1926.02
                             1927.53  1960.28  1996.73  2020.36  2057.77
                             2065.70  2135.77  2137.03  2153.63  2158.12
                             2176.36  2222.24  2315.67  2397.20  2401.47
                             2509.58  2601.36  4360.19  4370.74  4419.07
                             4433.44  4456.52  4481.87  4561.19  4650.56
                             4670.12  4901.10  5012.29  5014.42  5114.76
                             5245.90  5372.80

 Zero-point correction=                           0.258712 (Hartree/Particle)
 Thermal correction to Energy=                    0.275263
 Thermal correction to Enthalpy=                  0.276207
 Thermal correction to Gibbs Free Energy=         0.210659
 Sum of electronic and zero-point Energies=           -796.468340
 Sum of electronic and thermal Energies=              -796.451790
 Sum of electronic and thermal Enthalpies=            -796.450845
 Sum of electronic and thermal Free Energies=         -796.516393

                     E (Thermal)             CV                S
                      KCal/Mol        Cal/Mol-Kelvin    Cal/Mol-Kelvin
 Total                  172.730             59.129            137.956
 Electronic               0.000              0.000              0.000
 Translational            0.889              2.981             42.163
 Rotational               0.889              2.981             33.212
 Vibrational            170.952             53.167             62.581
 Vibration     1          0.593              1.986              6.792
 Vibration     2          0.593              1.986              6.578
 Vibration     3          0.594              1.982              5.354
 Vibration     4          0.596              1.977              4.737
 Vibration     5          0.598              1.969              4.168
 Vibration     6          0.599              1.967              4.067
 Vibration     7          0.600              1.962              3.860
 Vibration     8          0.605              1.947              3.405
 Vibration     9          0.610              1.930              3.050
 Vibration    10          0.629              1.868              2.336
 Vibration    11          0.644              1.822              2.022
 Vibration    12          0.650              1.802              1.912
 Vibration    13          0.671              1.739              1.635
 Vibration    14          0.711              1.620              1.272
 Vibration    15          0.715              1.610              1.247
 Vibration    16          0.717              1.603              1.229
 Vibration    17          0.737              1.549              1.110
 Vibration    18          0.755              1.500              1.015
 Vibration    19          0.875              1.207              0.611
 Vibration    20          0.895              1.161              0.565
 Vibration    21          0.908              1.134              0.539
 Vibration    22          0.972              1.004              0.428

 Normal termination of Gaussian 09 at Thu Jul 29 08:12:29 2021.
