 Gaussian 09, Revision D.01,
 Gaussian 09:  ES64L-G09RevD.01 24-Apr-2013

 ----------------------------------------------------------------------
 # B3LYP/6-311G(2df,2pd) guess=read geom=checkpoint opt=readfc freq=nor
 aman nosymm integral(ultrafinegrid)
 ----------------------------------------------------------------------

 ------------------------------------------------------------
 Candidate Structure: Conf:342 OPT and FREQ calc in gas phase
 ------------------------------------------------------------
 Structure from the checkpoint file:  "conf-342.chk"
 Charge =  1 Multiplicity = 1

 SCF Done:  E(RB3LYP) =  -796.723622307     A.U. after   11 cycles
 SCF Done:  E(RB3LYP) =  -796.724329816     A.U. after   10 cycles
 SCF Done:  E(RB3LYP) =  -796.724355891     A.U. after   10 cycles
 SCF Done:  E(RB3LYP) =  -796.724395814     A.U. after   11 cycles
 SCF Done:  E(RB3LYP) =  -796.724380215     A.U. after    9 cycles
 SCF Done:  E(RB3LYP) =  -796.724390163     A.U. after    9 cycles
 SCF Done:  E(RB3LYP) =  -796.724416830     A.U. after   10 cycles
 SCF Done:  E(RB3LYP) =  -796.723207314     A.U. after   14 cycles
 SCF Done:  E(RB3LYP) =  -796.724432820     A.U. after   11 cycles
 SCF Done:  E(RB3LYP) =  -796.724443169     A.U. after    9 cycles
 SCF Done:  E(RB3LYP) =  -796.724455009     A.U. after    9 cycles
 SCF Done:  E(RB3LYP) =  -796.724455727     A.U. after    8 cycles
 SCF Done:  E(RB3LYP) =  -796.724455733     A.U. after    6 cycles
 Optimization completed.
    -- Stationary point found.
 Normal termination of Gaussian 09 at Thu Jul 29 04:59:31 2021.

 ----------------------------------------------------------------------
 #N Geom=AllCheck Guess=TCheck SCRF=Check GenChk RB3LYP/6-311G(2df,2pd)
  Freq
 ----------------------------------------------------------------------

 Structure from the checkpoint file:  "conf-342.chk"
 ------------------------------------------------------------
 Candidate Structure: Conf:342 OPT and FREQ calc in gas phase
 ------------------------------------------------------------
 Charge =  1 Multiplicity = 1

                          Input orientation:
 ---------------------------------------------------------------------
 Center     Atomic      Atomic             Coordinates (Angstroms)
 Number     Number       Type             X           Y           Z
 ---------------------------------------------------------------------
      1          8           0        1.077391   -1.175187    0.306128
      2          6           0        1.417503   -0.069848   -0.090143
      3          7           0        0.577377    0.891676   -0.493718
      4          6           0       -0.851864    0.672269   -0.640761
      5          6           0       -1.344682    1.765677   -1.603233
      6          8           0       -2.642734    1.782614   -1.880165
      7          8           0       -0.583081    2.563257   -2.085137
      8          6           0       -1.595800    0.669714    0.725072
      9          6           0       -2.958147    0.065894    0.660941
     10          6           0       -4.220823    0.610162    0.642649
     11          7           0       -5.177549   -0.371593    0.573280
     12          6           0       -4.518244   -1.500286    0.553659
     13          7           0       -3.170344   -1.298058    0.597485
     14          6           0        2.910931    0.299828   -0.135184
     15          6           0        3.704325   -0.909144    0.326050
     16          7           0        5.199572   -0.614634    0.303905
     17          1           0        0.904737    1.734219   -0.953945
     18          1           0       -1.010719   -0.298894   -1.116875
     19          1           0       -3.146268    1.149415   -1.336566
     20          1           0       -1.664837    1.689385    1.104201
     21          1           0       -0.974742    0.108508    1.423819
     22          1           0       -4.487236    1.653315    0.700963
     23          1           0       -4.952272   -2.485401    0.506408
     24          1           0       -2.460244   -2.010751    0.630762
     25          1           0        3.089771    1.162726    0.511317
     26          1           0        3.184441    0.589413   -1.153195
     27          1           0        3.545395   -1.770084   -0.316414
     28          1           0        3.455352   -1.195125    1.343486
     29          1           0        5.517806   -0.371176   -0.636331
     30          1           0        5.434765    0.167826    0.917874
     31          1           0        5.739950   -1.424775    0.613657
 ---------------------------------------------------------------------

 SCF Done:  E(RB3LYP) =  -796.724455733     A.U. after    1 cycles

 Alpha  occ. eigenvalues --  -19.26202 -19.22624 -19.21083 -14.64141 -14.46642
 Alpha  occ. eigenvalues --  -14.45862 -14.37473 -10.41800 -10.41575 -10.40736
 Alpha  occ. eigenvalues --  -10.35804 -10.34519 -10.31010 -10.30210 -10.29891
 Alpha  occ. eigenvalues --  -10.27364  -1.20952  -1.20819  -1.18183  -1.12965
 Alpha  occ. eigenvalues --   -1.10932  -1.06296  -0.97001  -0.96458  -0.91268
 Alpha  occ. eigenvalues --   -0.86138  -0.83265  -0.79348  -0.78989  -0.77615
 Alpha  occ. eigenvalues --   -0.73175  -0.71160  -0.70572  -0.69559  -0.68640
 Alpha  occ. eigenvalues --   -0.67331  -0.65177  -0.63633  -0.61123  -0.60562
 Alpha  occ. eigenvalues --   -0.58075  -0.57553  -0.56731  -0.55560  -0.54817
 Alpha  occ. eigenvalues --   -0.54251  -0.53286  -0.52068  -0.50862  -0.50722
 Alpha  occ. eigenvalues --   -0.49968  -0.48996  -0.47625  -0.42520  -0.40578
 Alpha  occ. eigenvalues --   -0.39812  -0.38849  -0.37605  -0.35619  -0.32688
 Alpha virt. eigenvalues --   -0.19228  -0.13492  -0.12710  -0.11460  -0.10605
 Alpha virt. eigenvalues --   -0.09886  -0.07937  -0.07581  -0.05890  -0.05259
 Alpha virt. eigenvalues --   -0.04956  -0.04183  -0.02938  -0.02547  -0.01931

 Mulliken charges:
               1
     1  O   -0.429431
     2  C    0.504482
     3  N   -0.333810
     4  C    0.041231
     5  C    0.548908
     6  O   -0.279178
     7  O   -0.362871
     8  C    0.002845
     9  C    0.024692
    10  C    0.094610
    11  N   -0.332932
    12  C    0.255082
    13  N   -0.237729
    14  C   -0.130080
    15  C    0.154797
    16  N    0.088512
    17  H    0.114841
    18  H    0.030349
    19  H    0.229687
    20  H    0.037906
    21  H    0.033953
    22  H    0.039086
    23  H    0.039866
    24  H    0.120493
    25  H    0.054389
    26  H    0.054697
    27  H    0.084078
    28  H    0.083759
    29  H    0.160711
    30  H    0.160262
    31  H    0.146794
 Sum of Mulliken charges =   1.00000

 Dipole moment (field-independent basis, Debye):
    X=             21.5797    Y=             -4.0643    Z=              2.4543  Tot=             22.0959
 Quadrupole moment (field-independent basis, Debye-Ang):
   XX=             15.3472   YY=            -87.7252   ZZ=            -94.3761
   XY=             -4.0620   XZ=              4.5838   YZ=              6.1921

  Exact polarizability: 181.210   3.935 128.505  -1.935 -13.474  97.107
 Approx polarizability: 231.117   7.057 215.206  -2.048 -18.013 151.895

                      1                      2                      3
                      A                      A                      A
 Frequencies --     24.3586                31.8582                42.1264
 Red. masses --      1.9642                 5.0194                 3.1415
 Frc consts  --      0.0007                 0.0030                 0.0033
 IR Inten    --      0.0791                 1.6764                 6.8405

                      4                      5                      6
                      A                      A                      A
 Frequencies --     58.8276                81.6802                88.6456
 Red. masses --      5.4022                 6.8903                 4.7628
 Frc consts  --      0.0110                 0.0271                 0.0221
 IR Inten    --      4.1518                 7.5750                11.3614

                      7                      8                      9
                      A                      A                      A
 Frequencies --     97.0946               113.9632               126.7620
 Red. masses --      6.2414                 4.9886                 4.2767
 Frc consts  --      0.0347                 0.0382                 0.0405
 IR Inten    --      3.6035                12.1614                 5.3805

                     10                     11                     12
                      A                      A                      A
 Frequencies --    190.8561               221.8944               225.7335
 Red. masses --      5.2734                 5.0121                 1.0654
 Frc consts  --      0.1132                 0.1454                 0.0320
 IR Inten    --      2.1590                28.4324                 0.0704

                     13                     14                     15
                      A                      A                      A
 Frequencies --    272.2936               332.6171               333.7349
 Red. masses --      5.8353                 5.1034                 2.3806
 Frc consts  --      0.2549                 0.3327                 0.1562
 IR Inten    --     15.0574                 1.3749                 4.4527

                     16                     17                     18
                      A                      A                      A
 Frequencies --    347.2597               375.8268               383.9823
 Red. masses --      5.0861                 4.0781                 4.4547
 Frc consts  --      0.3614                 0.3394                 0.3870
 IR Inten    --     11.3731                17.9835                14.1107

                     19                     20                     21
                      A                      A                      A
 Frequencies --    552.3437               561.5708               574.5429
 Red. masses --      1.5561                 4.1852                 2.0770
 Frc consts  --      0.2797                 0.7776                 0.4039
 IR Inten    --     53.7239                15.3487                14.3150

                     22                     23                     24
                      A                      A                      A
 Frequencies --    614.0390               653.0493               663.3602
 Red. masses --      2.5245                 1.6491                 1.3625
 Frc consts  --      0.5608                 0.4144                 0.3533
 IR Inten    --     52.2444                25.8821                62.8866

                     25                     26                     27
                      A                      A                      A
 Frequencies --    672.5616               687.6060               713.5290
 Red. masses --      2.7796                 2.8211                 3.0473
 Frc consts  --      0.7408                 0.7859                 0.9141
 IR Inten    --     13.5788                 0.7576                30.1500

                     28                     29                     30
                      A                      A                      A
 Frequencies --    741.8475               770.2172               792.6851
 Red. masses --      3.3015                 4.1836                 1.2403
 Frc consts  --      1.0705                 1.4623                 0.4592
 IR Inten    --      1.6754                 0.3120                10.1250

                     31                     32                     33
                      A                      A                      A
 Frequencies --    821.6961               856.1975               877.9051
 Red. masses --      3.2634                 1.4078                 2.1177
 Frc consts  --      1.2982                 0.6080                 0.9617
 IR Inten    --      5.7647                15.8037                30.4621

                     34                     35                     36
                      A                      A                      A
 Frequencies --    879.8267               919.0956               930.5614
 Red. masses --      1.7161                 1.2663                 3.8519
 Frc consts  --      0.7827                 0.6302                 1.9652
 IR Inten    --     16.2508                 3.7749                 3.9922

                     37                     38                     39
                      A                      A                      A
 Frequencies --    934.6526               976.6202              1000.9312
 Red. masses --      4.8220                 2.0262                 3.6253
 Frc consts  --      2.4818                 1.1386                 2.1399
 IR Inten    --     35.0210                17.0362                32.4888

                     40                     41                     42
                      A                      A                      A
 Frequencies --   1022.4362              1029.0704              1102.1533
 Red. masses --      3.8536                 3.3426                 1.7845
 Frc consts  --      2.3735                 2.0855                 1.2771
 IR Inten    --      9.6443                 2.7822                13.2014

                     43                     44                     45
                      A                      A                      A
 Frequencies --   1103.0344              1106.8983              1147.6725
 Red. masses --      1.6407                 2.4268                 2.0867
 Frc consts  --      1.1762                 1.7519                 1.6194
 IR Inten    --     12.2248                26.5365                12.9004

                     46                     47                     48
                      A                      A                      A
 Frequencies --   1149.7845              1174.3432              1233.0590
 Red. masses --      2.6194                 1.3614                 1.8842
 Frc consts  --      2.0402                 1.1061                 1.6879
 IR Inten    --      4.3910                 2.9133                13.9517

                     49                     50                     51
                      A                      A                      A
 Frequencies --   1241.2392              1256.5321              1285.7024
 Red. masses --      1.5916                 2.2686                 1.3784
 Frc consts  --      1.4448                 2.1103                 1.3424
 IR Inten    --     16.7597                18.1010                 0.5698

                     52                     53                     54
                      A                      A                      A
 Frequencies --   1287.7668              1307.8149              1328.3533
 Red. masses --      1.3294                 1.3304                 1.4308
 Frc consts  --      1.2989                 1.3407                 1.4875
 IR Inten    --      1.5940                23.2096                40.4503

                     55                     56                     57
                      A                      A                      A
 Frequencies --   1337.3500              1341.2223              1358.3105
 Red. masses --      1.2669                 1.3044                 1.7359
 Frc consts  --      1.3350                 1.3825                 1.8871
 IR Inten    --     29.8044                31.3069               109.0229

                     58                     59                     60
                      A                      A                      A
 Frequencies --   1384.8048              1405.0489              1409.5973
 Red. masses --      2.2798                 1.3408                 2.2738
 Frc consts  --      2.5758                 1.5596                 2.6619
 IR Inten    --      1.5661                 9.4090               210.2099

                     61                     62                     63
                      A                      A                      A
 Frequencies --   1427.2851              1484.5657              1487.8714
 Red. masses --      2.7004                 1.1227                 1.1066
 Frc consts  --      3.2412                 1.4578                 1.4434
 IR Inten    --     22.9693                 0.9854                14.2280

                     64                     65                     66
                      A                      A                      A
 Frequencies --   1497.7365              1500.2200              1513.3092
 Red. masses --      1.0786                 3.7268                 1.1863
 Frc consts  --      1.4256                 4.9419                 1.6006
 IR Inten    --      9.0001                32.4904               210.6394

                     67                     68                     69
                      A                      A                      A
 Frequencies --   1534.3952              1598.8508              1666.0488
 Red. masses --      2.4084                 4.1182                 1.0421
 Frc consts  --      3.3408                 6.2026                 1.7043
 IR Inten    --    312.0875                 7.6806                47.3626

                     70                     71                     72
                      A                      A                      A
 Frequencies --   1669.1438              1740.4327              1825.7666
 Red. masses --      1.0453                 9.9138                 9.3292
 Frc consts  --      1.7158                17.6931                18.3225
 IR Inten    --     38.9132               257.9566               304.3822

                     73                     74                     75
                      A                      A                      A
 Frequencies --   3031.1318              3037.8971              3056.2177
 Red. masses --      1.0590                 1.0818                 1.0611
 Frc consts  --      5.7327                 5.8822                 5.8394
 IR Inten    --      3.4144                 6.3222                12.9752

                     76                     77                     78
                      A                      A                      A
 Frequencies --   3071.8218              3099.4008              3114.1691
 Red. masses --      1.1046                 1.1046                 1.0593
 Frc consts  --      6.1413                 6.2517                 6.0530
 IR Inten    --      2.8940                 3.2032                 0.6135

                     79                     80                     81
                      A                      A                      A
 Frequencies --   3169.2406              3231.9921              3247.6833
 Red. masses --      1.1120                 1.0964                 1.0983
 Frc consts  --      6.5806                 6.7477                 6.8252
 IR Inten    --      0.0211                 2.0335                 0.8164

                     82                     83                     84
                      A                      A                      A
 Frequencies --   3405.9301              3482.6710              3484.8593
 Red. masses --      1.0297                 1.0929                 1.0931
 Frc consts  --      7.0380                 7.8102                 7.8211
 IR Inten    --     55.3056                85.8685                91.6284

                     85                     86                     87
                      A                      A                      A
 Frequencies --   3514.1242              3584.8128              3637.1755
 Red. masses --      1.0775                 1.0675                 1.0814
 Frc consts  --      7.8400                 8.0829                 8.4286
 IR Inten    --    135.8803               479.9306                54.4195

 - Thermochemistry -
 -------------------
 Temperature   298.150 Kelvin.  Pressure   1.00000 Atm.
 Atom     1 has atomic number  8 and mass  15.99491

 Molecular mass:   227.11442 amu.
 Principal axes and moments of inertia in atomic units:
                           1         2         3
     Eigenvalues --  1899.647677551.013409084.65678
           X            0.99892   0.02995   0.03564
           Y           -0.04537   0.79825   0.60061
           Z           -0.01046  -0.60158   0.79875
 This molecule is an asymmetric top.
 Rotational symmetry number  1.
 Warning -- assumption of classical behavior for rotation
           may cause significant error
 Rotational temperatures (Kelvin)      0.04559     0.01147     0.00953
 Rotational constants (GHZ):           0.95004     0.23901     0.19866
 Zero-point vibrational energy     679905.4 (Joules/Mol)
                                  162.50128 (Kcal/Mol)
 Warning -- explicit consideration of  22 degrees of freedom as
           vibrations may cause significant error
 Vibrational temperatures:     35.05    45.84    60.61    84.64   117.52
          (Kelvin)            127.54   139.70   163.97   182.38   274.60
                              319.26   324.78   391.77   478.56   480.17
                              499.63   540.73   552.46   794.70   807.97
                              826.64   883.46   939.59   954.43   967.66
                              989.31  1026.61  1067.35  1108.17  1140.50
                             1182.24  1231.88  1263.11  1265.87  1322.37
                             1338.87  1344.75  1405.14  1440.11  1471.06
                             1480.60  1585.75  1587.02  1592.58  1651.24
                             1654.28  1689.62  1774.09  1785.86  1807.87
                             1849.84  1852.81  1881.65  1911.20  1924.15
                             1929.72  1954.30  1992.42  2021.55  2028.09
                             2053.54  2135.96  2140.71  2154.91  2158.48
                             2177.31  2207.65  2300.39  2397.07  2401.52
                             2504.09  2626.87  4361.12  4370.85  4397.21
                             4419.66  4459.34  4480.59  4559.82  4650.11
                             4672.69  4900.37  5010.78  5013.93  5056.03
                             5157.74  5233.08

 Zero-point correction=                           0.258962 (Hartree/Particle)
 Thermal correction to Energy=                    0.275182
 Thermal correction to Enthalpy=                  0.276126
 Thermal correction to Gibbs Free Energy=         0.212369
 Sum of electronic and zero-point Energies=           -796.465493
 Sum of electronic and thermal Energies=              -796.449274
 Sum of electronic and thermal Enthalpies=            -796.448329
 Sum of electronic and thermal Free Energies=         -796.512087

                     E (Thermal)             CV                S
                      KCal/Mol        Cal/Mol-Kelvin    Cal/Mol-Kelvin
 Total                  172.679             58.639            134.190
 Electronic               0.000              0.000              0.000
 Translational            0.889              2.981             42.163
 Rotational               0.889              2.981             33.232
 Vibrational            170.902             52.678             58.794
 Vibration     1          0.593              1.985              6.243
 Vibration     2          0.594              1.983              5.710
 Vibration     3          0.595              1.980              5.157
 Vibration     4          0.596              1.974              4.496
 Vibration     5          0.600              1.962              3.850
 Vibration     6          0.601              1.957              3.690
 Vibration     7          0.603              1.951              3.512
 Vibration     8          0.607              1.938              3.200
 Vibration     9          0.611              1.926              2.995
 Vibration    10          0.634              1.852              2.220
 Vibration    11          0.648              1.808              1.944
 Vibration    12          0.650              1.802              1.913
 Vibration    13          0.675              1.724              1.582
 Vibration    14          0.715              1.610              1.247
 Vibration    15          0.715              1.608              1.242
 Vibration    16          0.725              1.581              1.179
 Vibration    17          0.747              1.522              1.056
 Vibration    18          0.753              1.504              1.023
 Vibration    19          0.908              1.135              0.539
 Vibration    20          0.917              1.114              0.521
 Vibration    21          0.931              1.086              0.496
 Vibration    22          0.973              1.002              0.426

 Optimization completed.
    -- Stationary point found.
 Normal termination of Gaussian 09 at Thu Jul 29 08:38:12 2021.
