 Gaussian 09, Revision D.01,
 Gaussian 09:  ES64L-G09RevD.01 24-Apr-2013

 ----------------------------------------------------------------------
 # B3LYP/6-311G(2df,2pd) guess=read geom=checkpoint opt=readfc freq=nor
 aman nosymm integral(ultrafinegrid)
 ----------------------------------------------------------------------

 ------------------------------------------------------------
 Candidate Structure: Conf:214 OPT and FREQ calc in gas phase
 ------------------------------------------------------------
 Structure from the checkpoint file:  "conf-214.chk"
 Charge =  1 Multiplicity = 1

 SCF Done:  E(RB3LYP) =  -796.718662145     A.U. after    1 cycles
 SCF Done:  E(RB3LYP) =  -796.680880160     A.U. after   13 cycles
 SCF Done:  E(RB3LYP) =  -796.718662163     A.U. after    7 cycles
 SCF Done:  E(RB3LYP) =  -796.706876744     A.U. after   12 cycles
 SCF Done:  E(RB3LYP) =  -796.718662164     A.U. after    7 cycles
 SCF Done:  E(RB3LYP) =  -796.718876916     A.U. after   10 cycles
 SCF Done:  E(RB3LYP) =  -796.718539940     A.U. after   13 cycles
 SCF Done:  E(RB3LYP) =  -796.718838193     A.U. after   11 cycles
 SCF Done:  E(RB3LYP) =  -796.717543921     A.U. after   10 cycles
 SCF Done:  E(RB3LYP) =  -796.718878354     A.U. after    8 cycles
 SCF Done:  E(RB3LYP) =  -796.718867485     A.U. after   10 cycles
 SCF Done:  E(RB3LYP) =  -796.718883873     A.U. after   11 cycles
 SCF Done:  E(RB3LYP) =  -796.718899246     A.U. after   10 cycles
 SCF Done:  E(RB3LYP) =  -796.718901327     A.U. after    9 cycles
 SCF Done:  E(RB3LYP) =  -796.718901963     A.U. after    9 cycles
 SCF Done:  E(RB3LYP) =  -796.718902382     A.U. after    9 cycles
 SCF Done:  E(RB3LYP) =  -796.718902526     A.U. after    9 cycles
 SCF Done:  E(RB3LYP) =  -796.718902547     A.U. after    7 cycles
 SCF Done:  E(RB3LYP) =  -796.718902550     A.U. after    7 cycles
 Optimization completed on the basis of negligible forces.
    -- Stationary point found.
 Normal termination of Gaussian 09 at Sat Jul 31 04:55:49 2021.

 ----------------------------------------------------------------------
 #N Geom=AllCheck Guess=TCheck SCRF=Check GenChk RB3LYP/6-311G(2df,2pd)
  Freq
 ----------------------------------------------------------------------

 Structure from the checkpoint file:  "conf-214.chk"
 ------------------------------------------------------------
 Candidate Structure: Conf:214 OPT and FREQ calc in gas phase
 ------------------------------------------------------------
 Charge =  1 Multiplicity = 1

                          Input orientation:
 ---------------------------------------------------------------------
 Center     Atomic      Atomic             Coordinates (Angstroms)
 Number     Number       Type             X           Y           Z
 ---------------------------------------------------------------------
      1          8           0       -1.226394   -1.134520   -0.943529
      2          6           0       -1.113979   -0.619218    0.154495
      3          7           0       -0.027640   -0.706330    0.943864
      4          6           0        1.121585   -1.528983    0.606597
      5          6           0        1.343623   -2.508892    1.767259
      6          8           0        2.080778   -3.597848    1.508287
      7          8           0        0.924090   -2.287781    2.867824
      8          6           0        2.406278   -0.689291    0.410181
      9          6           0        2.295349    0.358451   -0.650390
     10          6           0        1.497370    0.507096   -1.755461
     11          7           0        1.793887    1.672358   -2.422158
     12          6           0        2.767274    2.223937   -1.744175
     13          7           0        3.107112    1.474512   -0.657631
     14          6           0       -2.270816    0.232634    0.710325
     15          6           0       -2.964042    0.871520   -0.480394
     16          7           0       -4.285279    1.512911   -0.079201
     17          1           0       -0.087971   -0.437361    1.915815
     18          1           0        0.875404   -2.062357   -0.311461
     19          1           0        2.294890   -3.679137    0.571369
     20          1           0        2.650516   -0.220939    1.368516
     21          1           0        3.230061   -1.377666    0.196055
     22          1           0        0.724179   -0.155193   -2.104603
     23          1           0        3.262609    3.150569   -1.982695
     24          1           0        3.841621    1.681049   -0.001693
     25          1           0       -1.911343    0.979660    1.418955
     26          1           0       -2.951577   -0.440785    1.239881
     27          1           0       -3.186772    0.122547   -1.235088
     28          1           0       -2.365031    1.657802   -0.934190
     29          1           0       -4.152867    2.250647    0.615197
     30          1           0       -4.751411    1.928817   -0.888079
     31          1           0       -4.921520    0.821903    0.323934
 ---------------------------------------------------------------------

 SCF Done:  E(RB3LYP) =  -796.718902550     A.U. after    1 cycles

 Alpha  occ. eigenvalues --  -19.27580 -19.22223 -19.21558 -14.63576 -14.46957
 Alpha  occ. eigenvalues --  -14.45481 -14.37251 -10.41329 -10.41182 -10.41058
 Alpha  occ. eigenvalues --  -10.35306 -10.34811 -10.30574 -10.30404 -10.29669
 Alpha  occ. eigenvalues --  -10.26500  -1.21703  -1.20253  -1.17996  -1.13695
 Alpha  occ. eigenvalues --   -1.10515  -1.06453  -0.96495  -0.96045  -0.91510
 Alpha  occ. eigenvalues --   -0.85440  -0.83101  -0.78792  -0.78542  -0.77173
 Alpha  occ. eigenvalues --   -0.73837  -0.72111  -0.70397  -0.69094  -0.68130
 Alpha  occ. eigenvalues --   -0.67604  -0.64562  -0.62947  -0.61198  -0.60366
 Alpha  occ. eigenvalues --   -0.58055  -0.57784  -0.56418  -0.55627  -0.54361
 Alpha  occ. eigenvalues --   -0.54035  -0.52725  -0.52431  -0.51596  -0.50435
 Alpha  occ. eigenvalues --   -0.49739  -0.49165  -0.48285  -0.43281  -0.40377
 Alpha  occ. eigenvalues --   -0.39959  -0.38656  -0.37293  -0.35613  -0.31933
 Alpha virt. eigenvalues --   -0.18627  -0.13054  -0.12039  -0.11353  -0.10449
 Alpha virt. eigenvalues --   -0.09755  -0.08323  -0.07093  -0.06614  -0.05528
 Alpha virt. eigenvalues --   -0.05188  -0.03957  -0.02911  -0.02804  -0.01682

 Mulliken charges:
               1
     1  O   -0.414882
     2  C    0.492995
     3  N   -0.281709
     4  C   -0.010137
     5  C    0.514283
     6  O   -0.290432
     7  O   -0.350032
     8  C    0.021918
     9  C    0.087162
    10  C    0.064430
    11  N   -0.355037
    12  C    0.233675
    13  N   -0.231789
    14  C   -0.096499
    15  C    0.137276
    16  N    0.097502
    17  H    0.110591
    18  H    0.051125
    19  H    0.223702
    20  H    0.033300
    21  H    0.035197
    22  H    0.036770
    23  H    0.034436
    24  H    0.113198
    25  H    0.044151
    26  H    0.057265
    27  H    0.088044
    28  H    0.088407
    29  H    0.156578
    30  H    0.147731
    31  H    0.160783
 Sum of Mulliken charges =   1.00000

 Dipole moment (field-independent basis, Debye):
    X=            -12.6453    Y=              6.3360    Z=              1.9005  Tot=             14.2710
 Quadrupole moment (field-independent basis, Debye-Ang):
   XX=              7.5358   YY=            -74.9812   ZZ=           -107.5160
   XY=            -26.0688   XZ=             -0.2483   YZ=             10.3848

  Exact polarizability: 142.368  -4.489 129.828   4.566 -17.408 125.423
 Approx polarizability: 192.569   1.839 189.860  17.304  -5.785 212.463

                      1                      2                      3
                      A                      A                      A
 Frequencies --      5.2485                39.8578                49.5090
 Red. masses --      4.8349                 2.1115                 4.0443
 Frc consts  --      0.0001                 0.0020                 0.0058
 IR Inten    --     13.0778                 0.9329                 7.5351

                      4                      5                      6
                      A                      A                      A
 Frequencies --     54.6930                66.3661                73.9895
 Red. masses --      3.3130                 5.3226                 4.3099
 Frc consts  --      0.0058                 0.0138                 0.0139
 IR Inten    --     17.0510                10.5363                 8.3263

                      7                      8                      9
                      A                      A                      A
 Frequencies --     92.0248               110.6983               135.7615
 Red. masses --      7.6957                 6.3207                 3.9423
 Frc consts  --      0.0384                 0.0456                 0.0428
 IR Inten    --     11.1298                 4.2589                 5.0881

                     10                     11                     12
                      A                      A                      A
 Frequencies --    173.8510               213.6546               229.6771
 Red. masses --      5.9621                 2.1435                 1.4340
 Frc consts  --      0.1062                 0.0576                 0.0446
 IR Inten    --      9.3331                18.8912                 7.6437

                     13                     14                     15
                      A                      A                      A
 Frequencies --    253.7731               280.5231               334.1961
 Red. masses --      4.9609                 3.3235                 3.4037
 Frc consts  --      0.1882                 0.1541                 0.2240
 IR Inten    --      3.0376                10.1568                 5.1193

                     16                     17                     18
                      A                      A                      A
 Frequencies --    335.5897               375.5090               447.6576
 Red. masses --      5.0522                 3.4255                 2.7493
 Frc consts  --      0.3352                 0.2846                 0.3246
 IR Inten    --      8.3884                14.8428                33.1051

                     19                     20                     21
                      A                      A                      A
 Frequencies --    497.1079               527.6189               536.0513
 Red. masses --      1.2759                 2.3371                 1.5285
 Frc consts  --      0.1858                 0.3833                 0.2588
 IR Inten    --     71.2690                30.9892                64.4529

                     22                     23                     24
                      A                      A                      A
 Frequencies --    539.5794               618.7766               657.3965
 Red. masses --      1.7921                 2.5994                 3.0480
 Frc consts  --      0.3074                 0.5864                 0.7761
 IR Inten    --     48.5801                 8.4607                11.8968

                     25                     26                     27
                      A                      A                      A
 Frequencies --    663.7582               684.7962               692.7869
 Red. masses --      4.0540                 3.3552                 4.7649
 Frc consts  --      1.0523                 0.9270                 1.3474
 IR Inten    --      8.9868                 6.2275                16.0139

                     28                     29                     30
                      A                      A                      A
 Frequencies --    719.9378               785.5704               792.0763
 Red. masses --      3.8738                 5.3506                 1.2676
 Frc consts  --      1.1830                 1.9455                 0.4685
 IR Inten    --      3.6732                 3.0440                 9.1874

                     31                     32                     33
                      A                      A                      A
 Frequencies --    839.9592               868.2685               881.4460
 Red. masses --      1.3998                 1.6587                 1.9659
 Frc consts  --      0.5819                 0.7367                 0.8999
 IR Inten    --     15.9119                16.6640                45.2541

                     34                     35                     36
                      A                      A                      A
 Frequencies --    898.5764               908.1620               918.5203
 Red. masses --      2.5164                 3.0752                 1.3370
 Frc consts  --      1.1971                 1.4944                 0.6646
 IR Inten    --      5.2253                 8.7067                 6.4350

                     37                     38                     39
                      A                      A                      A
 Frequencies --    937.6510               965.2286               985.8523
 Red. masses --      5.7291                 2.9297                 2.5220
 Frc consts  --      2.9677                 1.6082                 1.4442
 IR Inten    --     14.6166                 8.9561                24.3103

                     40                     41                     42
                      A                      A                      A
 Frequencies --   1025.1349              1047.5527              1089.6428
 Red. masses --      3.8189                 3.2514                 2.0115
 Frc consts  --      2.3646                 2.1022                 1.4071
 IR Inten    --     11.2742                11.2957                13.2705

                     43                     44                     45
                      A                      A                      A
 Frequencies --   1111.4650              1114.4307              1141.2415
 Red. masses --      1.7574                 1.8678                 2.2870
 Frc consts  --      1.2791                 1.3668                 1.7550
 IR Inten    --     22.1552                16.5728                 1.3475

                     46                     47                     48
                      A                      A                      A
 Frequencies --   1148.6883              1175.6116              1210.4773
 Red. masses --      2.3938                 1.7031                 1.7983
 Frc consts  --      1.8610                 1.3868                 1.5525
 IR Inten    --     17.9198                 7.1291                 7.5220

                     49                     50                     51
                      A                      A                      A
 Frequencies --   1241.4157              1252.0353              1283.5248
 Red. masses --      1.5689                 1.5683                 1.3843
 Frc consts  --      1.4245                 1.4485                 1.3436
 IR Inten    --      2.8517               123.2048                87.7448

                     52                     53                     54
                      A                      A                      A
 Frequencies --   1288.2751              1297.0280              1325.5264
 Red. masses --      1.3260                 1.4633                 2.0175
 Frc consts  --      1.2966                 1.4504                 2.0886
 IR Inten    --      9.7677                 8.2403               224.8308

                     55                     56                     57
                      A                      A                      A
 Frequencies --   1326.0880              1351.0938              1355.8863
 Red. masses --      1.2831                 1.3313                 1.9475
 Frc consts  --      1.3294                 1.4318                 2.1094
 IR Inten    --      2.2946                33.5206                19.2382

                     58                     59                     60
                      A                      A                      A
 Frequencies --   1390.0262              1407.3312              1412.1082
 Red. masses --      1.7520                 1.3245                 2.1937
 Frc consts  --      1.9945                 1.5456                 2.5773
 IR Inten    --    161.7733                17.3773                16.3710

                     61                     62                     63
                      A                      A                      A
 Frequencies --   1430.4260              1479.9536              1484.6602
 Red. masses --      2.6777                 1.1101                 1.2985
 Frc consts  --      3.2281                 1.4326                 1.6864
 IR Inten    --     19.7554                 1.1524                29.4567

                     64                     65                     66
                      A                      A                      A
 Frequencies --   1502.7482              1506.7832              1512.8804
 Red. masses --      2.5422                 1.0843                 1.1656
 Frc consts  --      3.3824                 1.4504                 1.5719
 IR Inten    --      6.3203                37.7494               127.0945

                     67                     68                     69
                      A                      A                      A
 Frequencies --   1554.6244              1605.2214              1665.2431
 Red. masses --      1.9571                 3.9941                 1.0427
 Frc consts  --      2.7868                 6.0637                 1.7037
 IR Inten    --    231.1376                 9.9708                46.0217

                     70                     71                     72
                      A                      A                      A
 Frequencies --   1669.2944              1753.6046              1845.9826
 Red. masses --      1.0441                 9.5552                 9.9824
 Frc consts  --      1.7141                17.3123                20.0419
 IR Inten    --     35.9602               235.1117               208.3466

                     73                     74                     75
                      A                      A                      A
 Frequencies --   3009.9065              3029.2366              3036.5505
 Red. masses --      1.0599                 1.0626                 1.1009
 Frc consts  --      5.6573                 5.7448                 5.9806
 IR Inten    --     25.2492                 3.8284                 8.3976

                     76                     77                     78
                      A                      A                      A
 Frequencies --   3085.6739              3087.3880              3099.5505
 Red. masses --      1.1003                 1.0855                 1.0604
 Frc consts  --      6.1727                 6.0961                 6.0022
 IR Inten    --      5.4687                 8.5766                 3.5521

                     79                     80                     81
                      A                      A                      A
 Frequencies --   3159.6485              3245.7314              3252.5082
 Red. masses --      1.1109                 1.0961                 1.0982
 Frc consts  --      6.5344                 6.8034                 6.8449
 IR Inten    --      2.3082                 0.3654                 1.0955

                     82                     83                     84
                      A                      A                      A
 Frequencies --   3405.2578              3482.5643              3484.9936
 Red. masses --      1.0297                 1.0929                 1.0931
 Frc consts  --      7.0347                 7.8098                 7.8219
 IR Inten    --     51.8225                87.2170                87.6672

                     85                     86                     87
                      A                      A                      A
 Frequencies --   3580.1223              3641.5872              3797.8310
 Red. masses --      1.0771                 1.0813                 1.0663
 Frc consts  --      8.1338                 8.4482                 9.0613
 IR Inten    --     69.7413                58.9787                65.8977

 - Thermochemistry -
 -------------------
 Temperature   298.150 Kelvin.  Pressure   1.00000 Atm.
 Atom     1 has atomic number  8 and mass  15.99491

 Molecular mass:   227.11442 amu.
 Principal axes and moments of inertia in atomic units:
                           1         2         3
     Eigenvalues --  3678.466204559.669247417.07302
           X            0.93873   0.32441   0.11636
           Y           -0.32400   0.71559   0.61883
           Z            0.11749  -0.61862   0.77686
 This molecule is an asymmetric top.
 Rotational symmetry number  1.
 Warning -- assumption of classical behavior for rotation
           may cause significant error
 Rotational temperatures (Kelvin)      0.02355     0.01900     0.01168
 Rotational constants (GHZ):           0.49062     0.39581     0.24332
 Zero-point vibrational energy     679456.5 (Joules/Mol)
                                  162.39400 (Kcal/Mol)
 Warning -- explicit consideration of  23 degrees of freedom as
           vibrations may cause significant error
 Vibrational temperatures:      7.55    57.35    71.23    78.69    95.49
          (Kelvin)            106.45   132.40   159.27   195.33   250.13
                              307.40   330.45   365.12   403.61   480.83
                              482.84   540.27   644.08   715.23   759.12
                              771.26   776.33   890.28   945.85   955.00
                              985.27   996.76  1035.83  1130.26  1139.62
                             1208.51  1249.24  1268.20  1292.85  1306.64
                             1321.54  1349.07  1388.75  1418.42  1474.94
                             1507.19  1567.75  1599.15  1603.42  1641.99
                             1652.70  1691.44  1741.60  1786.12  1801.40
                             1846.70  1853.54  1866.13  1907.13  1907.94
                             1943.92  1950.82  1999.94  2024.83  2031.71
                             2058.06  2129.32  2136.09  2162.12  2167.92
                             2176.69  2236.75  2309.55  2395.91  2401.74
                             2523.04  2655.95  4330.58  4358.39  4368.91
                             4439.59  4442.06  4459.56  4546.02  4669.88
                             4679.63  4899.40  5010.63  5014.12  5150.99
                             5239.43  5464.22

 Zero-point correction=                           0.258791 (Hartree/Particle)
 Thermal correction to Energy=                    0.275326
 Thermal correction to Enthalpy=                  0.276270
 Thermal correction to Gibbs Free Energy=         0.210547
 Sum of electronic and zero-point Energies=           -796.460111
 Sum of electronic and thermal Energies=              -796.443577
 Sum of electronic and thermal Enthalpies=            -796.442633
 Sum of electronic and thermal Free Energies=         -796.508356

                     E (Thermal)             CV                S
                      KCal/Mol        Cal/Mol-Kelvin    Cal/Mol-Kelvin
 Total                  172.769             59.270            138.325
 Electronic               0.000              0.000              0.000
 Translational            0.889              2.981             42.163
 Rotational               0.889              2.981             33.186
 Vibrational            170.992             53.309             62.976
 Vibration     1          0.593              1.987              9.292
 Vibration     2          0.594              1.981              5.266
 Vibration     3          0.595              1.978              4.837
 Vibration     4          0.596              1.976              4.640
 Vibration     5          0.598              1.970              4.258
 Vibration     6          0.599              1.966              4.044
 Vibration     7          0.602              1.955              3.617
 Vibration     8          0.607              1.941              3.257
 Vibration     9          0.614              1.918              2.863
 Vibration    10          0.627              1.875              2.393
 Vibration    11          0.644              1.820              2.012
 Vibration    12          0.652              1.796              1.881
 Vibration    13          0.665              1.756              1.704
 Vibration    14          0.680              1.710              1.530
 Vibration    15          0.716              1.607              1.240
 Vibration    16          0.717              1.604              1.233
 Vibration    17          0.746              1.522              1.057
 Vibration    18          0.807              1.366              0.803
 Vibration    19          0.853              1.256              0.665
 Vibration    20          0.883              1.189              0.593
 Vibration    21          0.891              1.170              0.574
 Vibration    22          0.895              1.163              0.566
 Vibration    23          0.979              0.992              0.418

 Optimization completed on the basis of negligible forces.
    -- Stationary point found.
 Normal termination of Gaussian 09 at Sat Jul 31 08:36:37 2021.
