 Gaussian 09, Revision D.01,
 Gaussian 09:  ES64L-G09RevD.01 24-Apr-2013

 ----------------------------------------------------------------------
 # B3LYP/6-311G(2df,2pd) guess=read geom=checkpoint opt=readfc freq=nor
 aman nosymm integral(ultrafinegrid)
 ----------------------------------------------------------------------

 ------------------------------------------------------------
 Candidate Structure: Conf:301 OPT and FREQ calc in gas phase
 ------------------------------------------------------------
 Structure from the checkpoint file:  "conf-301.chk"
 Charge =  1 Multiplicity = 1

 SCF Done:  E(RB3LYP) =  -796.764277788     A.U. after   11 cycles
 SCF Done:  E(RB3LYP) =  -796.764992033     A.U. after   10 cycles
 SCF Done:  E(RB3LYP) =  -796.764994941     A.U. after    8 cycles
 SCF Done:  E(RB3LYP) =  -796.764994979     A.U. after    6 cycles
 Optimization completed.
    -- Stationary point found.
 Normal termination of Gaussian 09 at Thu Jul 29 02:44:58 2021.

 ----------------------------------------------------------------------
 #N Geom=AllCheck Guess=TCheck SCRF=Check GenChk RB3LYP/6-311G(2df,2pd)
  Freq
 ----------------------------------------------------------------------

 Structure from the checkpoint file:  "conf-301.chk"
 ------------------------------------------------------------
 Candidate Structure: Conf:301 OPT and FREQ calc in gas phase
 ------------------------------------------------------------
 Charge =  1 Multiplicity = 1

                          Input orientation:
 ---------------------------------------------------------------------
 Center     Atomic      Atomic             Coordinates (Angstroms)
 Number     Number       Type             X           Y           Z
 ---------------------------------------------------------------------
      1          8           0       -0.023812   -0.217473   -1.688933
      2          6           0        0.417716    0.718490   -1.016593
      3          7           0       -0.357522    1.483192   -0.233206
      4          6           0       -1.721176    1.134833    0.112056
      5          6           0       -2.470615    2.426674    0.402725
      6          8           0       -3.792096    2.232038    0.413086
      7          8           0       -1.924229    3.470342    0.638109
      8          6           0       -1.778245    0.212404    1.385072
      9          6           0       -0.873463   -0.962065    1.264916
     10          6           0        0.474628   -1.068122    1.486365
     11          7           0        0.962368   -2.255631    0.990314
     12          6           0       -0.089562   -2.887585    0.508284
     13          7           0       -1.214837   -2.147233    0.651940
     14          6           0        1.914640    1.028886   -0.976647
     15          6           0        2.766518    0.003400   -1.724602
     16          7           0        2.291352   -1.403415   -1.469858
     17          1           0        0.011874    2.310337    0.214901
     18          1           0       -2.177943    0.621372   -0.730845
     19          1           0       -4.224559    3.068107    0.646415
     20          1           0       -1.476321    0.804723    2.249570
     21          1           0       -2.815604   -0.081771    1.544555
     22          1           0        1.116276   -0.356845    1.978802
     23          1           0       -0.091526   -3.871523    0.069849
     24          1           0       -2.139910   -2.421729    0.363708
     25          1           0        2.227316    1.095323    0.065871
     26          1           0        2.101681    2.009833   -1.417834
     27          1           0        2.695834    0.147075   -2.800185
     28          1           0        3.810126    0.078284   -1.431531
     29          1           0        2.839362   -2.087387   -1.986608
     30          1           0        1.298057   -1.393744   -1.782588
     31          1           0        2.243863   -1.691205   -0.471432
 ---------------------------------------------------------------------

 SCF Done:  E(RB3LYP) =  -796.764994979     A.U. after    1 cycles

 Alpha  occ. eigenvalues --  -19.29086 -19.24133 -19.23540 -14.56152 -14.49883
 Alpha  occ. eigenvalues --  -14.48077 -14.43064 -10.42840 -10.42657 -10.38772
 Alpha  occ. eigenvalues --  -10.36177 -10.35641 -10.34272 -10.33582 -10.32221
 Alpha  occ. eigenvalues --  -10.31158  -1.23693  -1.19631  -1.15259  -1.15030
 Alpha  occ. eigenvalues --   -1.13748  -1.07741  -1.00873  -0.95026  -0.92819
 Alpha  occ. eigenvalues --   -0.88216  -0.82721  -0.80573  -0.75759  -0.74983
 Alpha  occ. eigenvalues --   -0.73583  -0.72748  -0.72501  -0.71612  -0.67962
 Alpha  occ. eigenvalues --   -0.66208  -0.64196  -0.63156  -0.61802  -0.61205
 Alpha  occ. eigenvalues --   -0.60231  -0.59187  -0.58507  -0.57223  -0.56147
 Alpha  occ. eigenvalues --   -0.55513  -0.54789  -0.54346  -0.54113  -0.53429
 Alpha  occ. eigenvalues --   -0.52762  -0.50917  -0.50229  -0.45049  -0.43067
 Alpha  occ. eigenvalues --   -0.42129  -0.41535  -0.40958  -0.40693  -0.36294
 Alpha virt. eigenvalues --   -0.13938  -0.13054  -0.12571  -0.10901  -0.09452
 Alpha virt. eigenvalues --   -0.08858  -0.07732  -0.07059  -0.06592  -0.05983
 Alpha virt. eigenvalues --   -0.04570  -0.03622  -0.03359  -0.02410  -0.01815

 Mulliken charges:
               1
     1  O   -0.471305
     2  C    0.500423
     3  N   -0.283416
     4  C    0.076234
     5  C    0.504311
     6  O   -0.331070
     7  O   -0.356153
     8  C    0.030249
     9  C    0.102101
    10  C    0.054295
    11  N   -0.409943
    12  C    0.238424
    13  N   -0.194857
    14  C   -0.085036
    15  C    0.128162
    16  N    0.068384
    17  H    0.122811
    18  H    0.044598
    19  H    0.244295
    20  H    0.048744
    21  H    0.051738
    22  H    0.045970
    23  H    0.051458
    24  H    0.127340
    25  H    0.054070
    26  H    0.062901
    27  H    0.070014
    28  H    0.068323
    29  H    0.115842
    30  H    0.173944
    31  H    0.147149
 Sum of Mulliken charges =   1.00000

 Dipole moment (field-independent basis, Debye):
    X=              2.7649    Y=             -2.1968    Z=             -3.3228  Tot=              4.8489
 Quadrupole moment (field-independent basis, Debye-Ang):
   XX=            -48.8688   YY=            -73.3975   ZZ=            -83.4474
   XY=             -5.9508   XZ=            -19.8647   YZ=              7.8344

  Exact polarizability: 147.001 -14.228 142.938 -14.874   9.481 103.373
 Approx polarizability: 218.621  -3.588 217.221  -2.517  27.874 164.926

                      1                      2                      3
                      A                      A                      A
 Frequencies --     56.6059                69.3694                98.0594
 Red. masses --     10.9586                 4.7567                 4.7800
 Frc consts  --      0.0207                 0.0135                 0.0271
 IR Inten    --      1.5151                 0.4291                 5.7847

                      4                      5                      6
                      A                      A                      A
 Frequencies --    105.5404               109.7800               116.5654
 Red. masses --      3.9777                 4.3688                 3.9398
 Frc consts  --      0.0261                 0.0310                 0.0315
 IR Inten    --      8.7678                 5.0526                11.5807

                      7                      8                      9
                      A                      A                      A
 Frequencies --    140.7892               154.3246               164.2937
 Red. masses --      3.7237                 4.1637                 5.6287
 Frc consts  --      0.0435                 0.0584                 0.0895
 IR Inten    --     11.7524                 6.3891                 6.4288

                     10                     11                     12
                      A                      A                      A
 Frequencies --    194.0035               258.6226               307.4942
 Red. masses --      2.4346                 4.4644                 5.5713
 Frc consts  --      0.0540                 0.1759                 0.3104
 IR Inten    --     26.9633                48.2708                 0.8123

                     13                     14                     15
                      A                      A                      A
 Frequencies --    313.9030               344.2715               353.8336
 Red. masses --      3.8281                 2.8597                 2.5604
 Frc consts  --      0.2222                 0.1997                 0.1889
 IR Inten    --      1.8701                 6.9466                37.6388

                     16                     17                     18
                      A                      A                      A
 Frequencies --    394.1991               418.0904               444.9620
 Red. masses --      1.8350                 2.6709                 2.2350
 Frc consts  --      0.1680                 0.2751                 0.2607
 IR Inten    --     16.8182                 5.6139                 2.3869

                     19                     20                     21
                      A                      A                      A
 Frequencies --    545.1357               550.5773               596.2535
 Red. masses --      2.0413                 3.4261                 1.5773
 Frc consts  --      0.3574                 0.6119                 0.3304
 IR Inten    --     46.4513                17.8901               137.9452

                     22                     23                     24
                      A                      A                      A
 Frequencies --    611.0387               625.9671               638.3775
 Red. masses --      1.3243                 1.5281                 3.7623
 Frc consts  --      0.2913                 0.3528                 0.9034
 IR Inten    --     11.6791                11.4300                79.4512

                     25                     26                     27
                      A                      A                      A
 Frequencies --    678.0714               691.3521               692.9301
 Red. masses --      2.5281                 2.8680                 3.0490
 Frc consts  --      0.6849                 0.8076                 0.8626
 IR Inten    --     72.3152                10.2346                 1.5027

                     28                     29                     30
                      A                      A                      A
 Frequencies --    725.0019               771.7998               842.3090
 Red. masses --      3.4295                 4.2423                 1.4894
 Frc consts  --      1.0621                 1.4889                 0.6226
 IR Inten    --      1.8042                14.5708                 9.5014

                     31                     32                     33
                      A                      A                      A
 Frequencies --    846.8389               848.2082               864.9489
 Red. masses --      1.8884                 1.9156                 2.1003
 Frc consts  --      0.7979                 0.8120                 0.9258
 IR Inten    --     27.8957                12.8431                21.8537

                     34                     35                     36
                      A                      A                      A
 Frequencies --    879.7735               919.0000               941.6927
 Red. masses --      1.9953                 2.6637                 5.6008
 Frc consts  --      0.9099                 1.3255                 2.9263
 IR Inten    --      5.4950                15.2691                12.7150

                     37                     38                     39
                      A                      A                      A
 Frequencies --    961.7279               973.7470              1001.6227
 Red. masses --      1.6040                 2.9766                 3.1512
 Frc consts  --      0.8741                 1.6629                 1.8626
 IR Inten    --      8.4688                 6.2271                 9.5604

                     40                     41                     42
                      A                      A                      A
 Frequencies --   1028.6132              1040.3609              1093.1029
 Red. masses --      3.7564                 3.0164                 2.2612
 Frc consts  --      2.3417                 1.9236                 1.5919
 IR Inten    --      2.3990                17.4204                 7.1837

                     43                     44                     45
                      A                      A                      A
 Frequencies --   1121.8202              1130.1731              1131.8621
 Red. masses --      1.4698                 1.6402                 1.7799
 Frc consts  --      1.0899                 1.2343                 1.3435
 IR Inten    --     83.0891                18.6530                42.7218

                     46                     47                     48
                      A                      A                      A
 Frequencies --   1143.4941              1170.0132              1205.0340
 Red. masses --      1.7550                 2.0429                 1.7626
 Frc consts  --      1.3521                 1.6477                 1.5080
 IR Inten    --      4.0755               206.9527                 5.9810

                     49                     50                     51
                      A                      A                      A
 Frequencies --   1251.2981              1258.6631              1279.3556
 Red. masses --      1.5974                 1.7066                 1.5362
 Frc consts  --      1.4736                 1.5930                 1.4814
 IR Inten    --      4.9444                30.3393                 0.5849

                     52                     53                     54
                      A                      A                      A
 Frequencies --   1285.4222              1288.3661              1332.6209
 Red. masses --      1.4862                 1.4665                 1.3221
 Frc consts  --      1.4468                 1.4342                 1.3833
 IR Inten    --     14.6025                 1.7819                23.6666

                     55                     56                     57
                      A                      A                      A
 Frequencies --   1342.8967              1352.3964              1386.5294
 Red. masses --      1.4167                 1.2715                 1.6969
 Frc consts  --      1.5053                 1.3701                 1.9220
 IR Inten    --     22.6150                 7.3467                43.9071

                     58                     59                     60
                      A                      A                      A
 Frequencies --   1391.3250              1417.7363              1425.6146
 Red. masses --      2.7290                 2.3139                 1.3494
 Frc consts  --      3.1125                 2.7402                 1.6159
 IR Inten    --      8.5988               129.4222                14.4067

                     61                     62                     63
                      A                      A                      A
 Frequencies --   1434.4616              1470.0972              1479.4554
 Red. masses --      2.6909                 1.1034                 1.2292
 Frc consts  --      3.2623                 1.4050                 1.5852
 IR Inten    --     26.8754                44.1059               161.8986

                     64                     65                     66
                      A                      A                      A
 Frequencies --   1490.3554              1502.5611              1508.4991
 Red. masses --      1.1302                 2.7650                 1.1013
 Frc consts  --      1.4791                 3.6780                 1.4766
 IR Inten    --     16.0632                30.8813                12.6572

                     67                     68                     69
                      A                      A                      A
 Frequencies --   1558.3660              1608.1809              1635.1565
 Red. masses --      2.2570                 4.0366                 1.1423
 Frc consts  --      3.2293                 6.1508                 1.7995
 IR Inten    --    213.5253                 7.2320               123.8437

                     70                     71                     72
                      A                      A                      A
 Frequencies --   1687.5567              1708.2787              1827.6975
 Red. masses --      1.1238                 3.5046                10.2181
 Frc consts  --      1.8856                 6.0257                20.1108
 IR Inten    --    165.9860                86.5312               250.6564

                     73                     74                     75
                      A                      A                      A
 Frequencies --   3057.7157              3058.1600              3088.5244
 Red. masses --      1.0611                 1.0605                 1.0805
 Frc consts  --      5.8453                 5.8433                 6.0724
 IR Inten    --      3.3307                 5.1549                11.2637

                     76                     77                     78
                      A                      A                      A
 Frequencies --   3096.9275              3099.9074              3116.0923
 Red. masses --      1.0809                 1.0994                 1.0902
 Frc consts  --      6.1081                 6.2248                 6.2368
 IR Inten    --     24.3487                 1.2968                17.0002

                     79                     80                     81
                      A                      A                      A
 Frequencies --   3118.7510              3142.9683              3148.2465
 Red. masses --      1.0894                 1.0600                 1.1051
 Frc consts  --      6.2428                 6.1695                 6.4535
 IR Inten    --    216.4331               423.8033                49.5948

                     82                     83                     84
                      A                      A                      A
 Frequencies --   3240.9361              3252.1387              3510.7956
 Red. masses --      1.0963                 1.0989                 1.0784
 Frc consts  --      6.7846                 6.8475                 7.8317
 IR Inten    --      1.9231                 2.4141               104.6610

                     85                     86                     87
                      A                      A                      A
 Frequencies --   3576.1525              3636.9768              3733.5799
 Red. masses --      1.0777                 1.0818                 1.0643
 Frc consts  --      8.1207                 8.4312                 8.7412
 IR Inten    --     93.1857                84.8878               132.7141

 - Thermochemistry -
 -------------------
 Temperature   298.150 Kelvin.  Pressure   1.00000 Atm.
 Atom     1 has atomic number  8 and mass  15.99491

 Molecular mass:   227.11442 amu.
 Principal axes and moments of inertia in atomic units:
                           1         2         3
     Eigenvalues --  2246.349144463.665215916.95616
           X            0.73185   0.47238   0.49118
           Y           -0.65203   0.69494   0.30318
           Z           -0.19812  -0.54214   0.81660
 This molecule is an asymmetric top.
 Rotational symmetry number  1.
 Warning -- assumption of classical behavior for rotation
           may cause significant error
 Rotational temperatures (Kelvin)      0.03856     0.01940     0.01464
 Rotational constants (GHZ):           0.80341     0.40432     0.30501
 Zero-point vibrational energy     682567.2 (Joules/Mol)
                                  163.13747 (Kcal/Mol)
 Warning -- explicit consideration of  22 degrees of freedom as
           vibrations may cause significant error
 Vibrational temperatures:     81.44    99.81   141.09   151.85   157.95
          (Kelvin)            167.71   202.56   222.04   236.38   279.13
                              372.10   442.41   451.64   495.33   509.09
                              567.16   601.54   640.20   784.33   792.16
                              857.87   879.15   900.63   918.48   975.59
                              994.70   996.97  1043.11  1110.45  1211.89
                             1218.41  1220.38  1244.47  1265.80  1322.23
                             1354.88  1383.71  1401.00  1441.11  1479.94
                             1496.85  1572.73  1614.05  1626.07  1628.50
                             1645.23  1683.39  1733.77  1800.34  1810.93
                             1840.71  1849.43  1853.67  1917.34  1932.13
                             1945.79  1994.90  2001.80  2039.80  2051.14
                             2063.87  2115.14  2128.60  2144.29  2161.85
                             2170.39  2242.14  2313.81  2352.62  2428.01
                             2457.83  2629.65  4399.37  4400.00  4443.69
                             4455.78  4460.07  4483.36  4487.18  4522.02
                             4529.62  4662.98  4679.10  5051.25  5145.28
                             5232.79  5371.78

 Zero-point correction=                           0.259976 (Hartree/Particle)
 Thermal correction to Energy=                    0.275123
 Thermal correction to Enthalpy=                  0.276067
 Thermal correction to Gibbs Free Energy=         0.217754
 Sum of electronic and zero-point Energies=           -796.505019
 Sum of electronic and thermal Energies=              -796.489872
 Sum of electronic and thermal Enthalpies=            -796.488928
 Sum of electronic and thermal Free Energies=         -796.547241

                     E (Thermal)             CV                S
                      KCal/Mol        Cal/Mol-Kelvin    Cal/Mol-Kelvin
 Total                  172.642             57.722            122.729
 Electronic               0.000              0.000              0.000
 Translational            0.889              2.981             42.163
 Rotational               0.889              2.981             32.451
 Vibrational            170.865             51.760             48.116
 Vibration     1          0.596              1.975              4.572
 Vibration     2          0.598              1.969              4.171
 Vibration     3          0.604              1.951              3.493
 Vibration     4          0.605              1.945              3.349
 Vibration     5          0.606              1.941              3.273
 Vibration     6          0.608              1.936              3.157
 Vibration     7          0.615              1.912              2.793
 Vibration     8          0.620              1.898              2.618
 Vibration     9          0.623              1.886              2.500
 Vibration    10          0.635              1.848              2.189
 Vibration    11          0.667              1.748              1.671
 Vibration    12          0.697              1.659              1.376
 Vibration    13          0.702              1.647              1.342
 Vibration    14          0.723              1.587              1.192
 Vibration    15          0.730              1.567              1.149
 Vibration    16          0.761              1.483              0.984
 Vibration    17          0.781              1.431              0.898
 Vibration    18          0.804              1.372              0.811
 Vibration    19          0.900              1.150              0.554
 Vibration    20          0.906              1.138              0.543
 Vibration    21          0.954              1.040              0.456
 Vibration    22          0.970              1.008              0.431

 Optimization completed.
    -- Stationary point found.
 Normal termination of Gaussian 09 at Thu Jul 29 07:10:23 2021.
