 Gaussian 09, Revision D.01,
 Gaussian 09:  ES64L-G09RevD.01 24-Apr-2013

 ----------------------------------------------------------------------
 # B3LYP/6-311G(2df,2pd) guess=read geom=checkpoint opt=readfc freq=nor
 aman nosymm integral(ultrafinegrid)
 ----------------------------------------------------------------------

 ------------------------------------------------------------
 Candidate Structure: Conf:715 OPT and FREQ calc in gas phase
 ------------------------------------------------------------
 Structure from the checkpoint file:  "conf-715.chk"
 Charge =  1 Multiplicity = 1

 SCF Done:  E(RB3LYP) =  -796.744075916     A.U. after   11 cycles
 SCF Done:  E(RB3LYP) =  -796.744798054     A.U. after   10 cycles
 SCF Done:  E(RB3LYP) =  -796.744806242     A.U. after   10 cycles
 SCF Done:  E(RB3LYP) =  -796.744807641     A.U. after    9 cycles
 SCF Done:  E(RB3LYP) =  -796.744807822     A.U. after    8 cycles
 SCF Done:  E(RB3LYP) =  -796.744807831     A.U. after    6 cycles
 Optimization completed.
    -- Stationary point found.
 Normal termination of Gaussian 09 at Thu Jul 29 03:12:10 2021.

 ----------------------------------------------------------------------
 #N Geom=AllCheck Guess=TCheck SCRF=Check GenChk RB3LYP/6-311G(2df,2pd)
  Freq
 ----------------------------------------------------------------------

 Structure from the checkpoint file:  "conf-715.chk"
 ------------------------------------------------------------
 Candidate Structure: Conf:715 OPT and FREQ calc in gas phase
 ------------------------------------------------------------
 Charge =  1 Multiplicity = 1

                          Input orientation:
 ---------------------------------------------------------------------
 Center     Atomic      Atomic             Coordinates (Angstroms)
 Number     Number       Type             X           Y           Z
 ---------------------------------------------------------------------
      1          8           0       -2.184503    1.125659   -0.305418
      2          6           0       -1.516558    0.352113    0.402897
      3          7           0       -0.217056    0.533048    0.623164
      4          6           0        0.565414    1.476020   -0.152646
      5          6           0        0.603491    1.009606   -1.621315
      6          8           0        1.107192    1.894248   -2.499718
      7          8           0        0.256231   -0.079248   -1.974914
      8          6           0        1.994211    1.581041    0.455324
      9          6           0        2.650939    0.261551    0.679285
     10          6           0        2.742766   -0.512536    1.811365
     11          7           0        3.388494   -1.692935    1.548778
     12          6           0        3.693907   -1.645311    0.277171
     13          7           0        3.267986   -0.487746   -0.301963
     14          6           0       -2.194515   -0.851489    1.042031
     15          6           0       -3.090203   -1.554609    0.018014
     16          7           0       -4.077981   -0.560907   -0.547508
     17          1           0        0.314768   -0.190727    1.092737
     18          1           0        0.082347    2.453546   -0.113071
     19          1           0        1.271262    2.757736   -2.101749
     20          1           0        2.600928    2.223919   -0.184886
     21          1           0        1.909354    2.091837    1.413877
     22          1           0        2.410835   -0.260435    2.806300
     23          1           0        4.219693   -2.405535   -0.276387
     24          1           0        3.394833   -0.230927   -1.267058
     25          1           0       -1.472891   -1.571887    1.423081
     26          1           0       -2.785356   -0.506118    1.894235
     27          1           0       -3.631124   -2.389359    0.454917
     28          1           0       -2.500132   -1.915242   -0.821755
     29          1           0       -3.495140    0.345845   -0.628869
     30          1           0       -4.444475   -0.850706   -1.451770
     31          1           0       -4.864555   -0.400438    0.079465
 ---------------------------------------------------------------------

 SCF Done:  E(RB3LYP) =  -796.744807831     A.U. after    1 cycles

 Alpha  occ. eigenvalues --  -19.29253 -19.25744 -19.23175 -14.57743 -14.49232
 Alpha  occ. eigenvalues --  -14.47090 -14.38733 -10.43719 -10.42758 -10.40052
 Alpha  occ. eigenvalues --  -10.36752 -10.35401 -10.32300 -10.32173 -10.31473
 Alpha  occ. eigenvalues --  -10.28681  -1.23332  -1.21141  -1.15352  -1.15010
 Alpha  occ. eigenvalues --   -1.12189  -1.08915  -0.97764  -0.96010  -0.92829
 Alpha  occ. eigenvalues --   -0.86472  -0.82946  -0.79076  -0.76792  -0.75003
 Alpha  occ. eigenvalues --   -0.74457  -0.73134  -0.71909  -0.70084  -0.68377
 Alpha  occ. eigenvalues --   -0.67166  -0.65887  -0.64775  -0.61966  -0.60415
 Alpha  occ. eigenvalues --   -0.59051  -0.58444  -0.57026  -0.56722  -0.56522
 Alpha  occ. eigenvalues --   -0.55965  -0.55087  -0.53485  -0.52433  -0.51900
 Alpha  occ. eigenvalues --   -0.51269  -0.51089  -0.50605  -0.45097  -0.43712
 Alpha  occ. eigenvalues --   -0.42806  -0.40414  -0.38944  -0.36957  -0.34003
 Alpha virt. eigenvalues --   -0.15504  -0.14136  -0.12482  -0.10564  -0.09725
 Alpha virt. eigenvalues --   -0.09359  -0.07887  -0.07477  -0.05494  -0.05302
 Alpha virt. eigenvalues --   -0.04573  -0.03783  -0.03218  -0.02537  -0.01492

 Mulliken charges:
               1
     1  O   -0.475202
     2  C    0.524175
     3  N   -0.246421
     4  C   -0.022955
     5  C    0.566992
     6  O   -0.312796
     7  O   -0.363200
     8  C   -0.032727
     9  C    0.084994
    10  C    0.078512
    11  N   -0.333246
    12  C    0.254715
    13  N   -0.234046
    14  C   -0.075662
    15  C    0.103881
    16  N    0.070746
    17  H    0.126404
    18  H    0.052540
    19  H    0.224252
    20  H    0.041727
    21  H    0.054586
    22  H    0.034068
    23  H    0.042450
    24  H    0.120690
    25  H    0.051807
    26  H    0.061794
    27  H    0.070574
    28  H    0.080076
    29  H    0.183402
    30  H    0.130870
    31  H    0.136998
 Sum of Mulliken charges =   1.00000

 Dipole moment (field-independent basis, Debye):
    X=            -10.2161    Y=              0.6189    Z=             -0.6419  Tot=             10.2549
 Quadrupole moment (field-independent basis, Debye-Ang):
   XX=            -24.5154   YY=            -77.8636   ZZ=            -91.7506
   XY=             22.5304   XZ=             -6.9313   YZ=              2.1332

  Exact polarizability: 148.314  -3.546 128.686   2.337  -8.869 119.994
 Approx polarizability: 191.065  -9.900 209.022   0.718 -12.912 196.023

                      1                      2                      3
                      A                      A                      A
 Frequencies --     17.5072                25.4662                53.3254
 Red. masses --      5.3762                 4.5384                 5.7852
 Frc consts  --      0.0010                 0.0017                 0.0097
 IR Inten    --      1.0678                16.4310                 7.2398

                      4                      5                      6
                      A                      A                      A
 Frequencies --     58.6888                66.6881                83.0185
 Red. masses --      4.6290                 4.6303                 4.6511
 Frc consts  --      0.0094                 0.0121                 0.0189
 IR Inten    --     14.7861                 4.7076                 6.2822

                      7                      8                      9
                      A                      A                      A
 Frequencies --    109.4499               130.9400               200.9329
 Red. masses --      7.5929                 4.3389                 4.5693
 Frc consts  --      0.0536                 0.0438                 0.1087
 IR Inten    --      5.0376                 4.1347                 3.9042

                     10                     11                     12
                      A                      A                      A
 Frequencies --    217.2665               243.3158               324.7649
 Red. masses --      2.4486                 5.3518                 3.8231
 Frc consts  --      0.0681                 0.1867                 0.2376
 IR Inten    --     20.5937                16.3007                 6.0341

                     13                     14                     15
                      A                      A                      A
 Frequencies --    331.8233               343.6127               379.5063
 Red. masses --      3.8187                 2.4833                 3.2710
 Frc consts  --      0.2477                 0.1727                 0.2776
 IR Inten    --     10.7445                64.7190                60.9595

                     16                     17                     18
                      A                      A                      A
 Frequencies --    393.1345               455.0066               464.1538
 Red. masses --      1.2679                 2.7927                 2.0267
 Frc consts  --      0.1155                 0.3407                 0.2573
 IR Inten    --      1.5699                18.2261               154.4026

                     19                     20                     21
                      A                      A                      A
 Frequencies --    506.3417               527.0114               557.7767
 Red. masses --      1.5821                 2.7212                 1.4495
 Frc consts  --      0.2390                 0.4453                 0.2657
 IR Inten    --     23.0712                 3.5560                51.2009

                     22                     23                     24
                      A                      A                      A
 Frequencies --    595.1269               636.5614               665.2061
 Red. masses --      3.4040                 3.8437                 1.4549
 Frc consts  --      0.7103                 0.9177                 0.3793
 IR Inten    --      5.8447                 3.7735                65.3872

                     25                     26                     27
                      A                      A                      A
 Frequencies --    678.9770               685.2375               700.9156
 Red. masses --      3.5271                 2.3849                 3.9760
 Frc consts  --      0.9580                 0.6598                 1.1509
 IR Inten    --     19.8948                 2.3541                 5.8024

                     28                     29                     30
                      A                      A                      A
 Frequencies --    740.8952               773.9580               834.3124
 Red. masses --      3.4012                 5.2180                 2.5748
 Frc consts  --      1.1000                 1.8416                 1.0560
 IR Inten    --     18.8777                 2.6480                32.8923

                     31                     32                     33
                      A                      A                      A
 Frequencies --    854.1366               858.4852               876.6605
 Red. masses --      2.8790                 1.3927                 1.5768
 Frc consts  --      1.2375                 0.6047                 0.7140
 IR Inten    --      0.4466                24.6195                 2.4497

                     34                     35                     36
                      A                      A                      A
 Frequencies --    889.2852               931.4857               942.6203
 Red. masses --      2.0391                 4.9605                 2.7457
 Frc consts  --      0.9501                 2.5359                 1.4374
 IR Inten    --     63.5433                16.5854                 7.0710

                     37                     38                     39
                      A                      A                      A
 Frequencies --    953.1540               961.3749               996.9651
 Red. masses --      1.3563                 2.8054                 3.1135
 Frc consts  --      0.7260                 1.5277                 1.8233
 IR Inten    --      5.7486                 2.1612                 3.5154

                     40                     41                     42
                      A                      A                      A
 Frequencies --   1010.9248              1039.5933              1106.1151
 Red. masses --      3.6017                 2.9417                 2.2063
 Frc consts  --      2.1687                 1.8732                 1.5904
 IR Inten    --     16.3452                 7.8596                10.5676

                     43                     44                     45
                      A                      A                      A
 Frequencies --   1111.9555              1129.6710              1135.8932
 Red. masses --      1.7441                 1.4673                 1.4936
 Frc consts  --      1.2706                 1.1033                 1.1354
 IR Inten    --     15.5108                71.3811                29.4234

                     46                     47                     48
                      A                      A                      A
 Frequencies --   1150.2904              1169.6854              1205.8583
 Red. masses --      2.0351                 1.8953                 1.6382
 Frc consts  --      1.5865                 1.5278                 1.4035
 IR Inten    --     16.0328                 4.9603                35.3483

                     49                     50                     51
                      A                      A                      A
 Frequencies --   1236.9453              1264.4510              1266.7870
 Red. masses --      1.4369                 1.7960                 1.6883
 Frc consts  --      1.2953                 1.6918                 1.5963
 IR Inten    --     39.8408                61.4680                12.4364

                     52                     53                     54
                      A                      A                      A
 Frequencies --   1283.4761              1293.0485              1318.7747
 Red. masses --      1.6709                 1.3359                 1.5974
 Frc consts  --      1.6217                 1.3160                 1.6368
 IR Inten    --    273.8513                29.0456                43.9785

                     55                     56                     57
                      A                      A                      A
 Frequencies --   1327.3212              1366.9296              1379.5513
 Red. masses --      1.2987                 1.5126                 1.6982
 Frc consts  --      1.3480                 1.6652                 1.9042
 IR Inten    --     44.9735                14.1801                31.1122

                     58                     59                     60
                      A                      A                      A
 Frequencies --   1391.0989              1399.3452              1411.8158
 Red. masses --      2.5911                 1.3421                 1.5189
 Frc consts  --      2.9543                 1.5484                 1.7837
 IR Inten    --     11.9586                68.6124                45.3048

                     61                     62                     63
                      A                      A                      A
 Frequencies --   1431.4609              1472.7272              1473.6955
 Red. masses --      2.6092                 1.2863                 1.1014
 Frc consts  --      3.1501                 1.6438                 1.4093
 IR Inten    --     29.0157               658.9709                76.7489

                     64                     65                     66
                      A                      A                      A
 Frequencies --   1480.1600              1499.5473              1511.7245
 Red. masses --      1.1534                 3.2542                 1.0755
 Frc consts  --      1.4889                 4.3114                 1.4482
 IR Inten    --      6.4950                19.4516                57.6779

                     67                     68                     69
                      A                      A                      A
 Frequencies --   1573.6267              1599.6014              1630.6433
 Red. masses --      2.3324                 3.9534                 1.1588
 Frc consts  --      3.4030                 5.9600                 1.8155
 IR Inten    --    239.5123                10.0406                 6.3497

                     70                     71                     72
                      A                      A                      A
 Frequencies --   1675.1366              1701.7616              1849.2990
 Red. masses --      1.0450                 3.2166                10.4734
 Frc consts  --      1.7276                 5.4884                21.1033
 IR Inten    --     23.6497               174.7698               178.2081

                     73                     74                     75
                      A                      A                      A
 Frequencies --   2528.8523              3047.7211              3050.9350
 Red. masses --      1.0935                 1.0676                 1.0650
 Frc consts  --      4.1201                 5.8425                 5.8406
 IR Inten    --   1063.6021                 0.8895                11.0804

                     76                     77                     78
                      A                      A                      A
 Frequencies --   3067.4242              3091.6002              3098.8640
 Red. masses --      1.0838                 1.0609                 1.1002
 Frc consts  --      6.0083                 5.9744                 6.2251
 IR Inten    --      9.6387                 1.1672                 3.1756

                     79                     80                     81
                      A                      A                      A
 Frequencies --   3114.2382              3147.8939              3224.0366
 Red. masses --      1.0963                 1.1115                 1.0963
 Frc consts  --      6.2643                 6.4891                 6.7139
 IR Inten    --      0.7589                 0.3272                 3.2462

                     82                     83                     84
                      A                      A                      A
 Frequencies --   3249.8248              3466.1144              3511.4309
 Red. masses --      1.0983                 1.0518                 1.0787
 Frc consts  --      6.8342                 7.4450                 7.8367
 IR Inten    --      0.8333                88.3326               223.0424

                     85                     86                     87
                      A                      A                      A
 Frequencies --   3530.2264              3637.2756              3791.6705
 Red. masses --      1.0945                 1.0816                 1.0662
 Frc consts  --      8.0364                 8.4311                 9.0312
 IR Inten    --     71.6698                61.7144                68.6034

 - Thermochemistry -
 -------------------
 Temperature   298.150 Kelvin.  Pressure   1.00000 Atm.
 Atom     1 has atomic number  8 and mass  15.99491

 Molecular mass:   227.11442 amu.
 Principal axes and moments of inertia in atomic units:
                           1         2         3
     Eigenvalues --  2247.743305449.914886473.43167
           X            0.99314   0.10031  -0.06010
           Y           -0.02829   0.70481   0.70883
           Z            0.11347  -0.70227   0.70281
 This molecule is an asymmetric top.
 Rotational symmetry number  1.
 Warning -- assumption of classical behavior for rotation
           may cause significant error
 Rotational temperatures (Kelvin)      0.03853     0.01589     0.01338
 Rotational constants (GHZ):           0.80291     0.33115     0.27879
 Zero-point vibrational energy     679013.0 (Joules/Mol)
                                  162.28801 (Kcal/Mol)
 Warning -- explicit consideration of  22 degrees of freedom as
           vibrations may cause significant error
 Vibrational temperatures:     25.19    36.64    76.72    84.44    95.95
          (Kelvin)            119.44   157.47   188.39   289.10   312.60
                              350.08   467.26   477.42   494.38   546.02
                              565.63   654.65   667.81   728.51   758.25
                              802.52   856.25   915.87   957.08   976.90
                              985.90  1008.46  1065.98  1113.55  1200.39
                             1228.91  1235.17  1261.32  1279.48  1340.20
                             1356.22  1371.37  1383.20  1434.41  1454.49
                             1495.74  1591.45  1599.85  1625.34  1634.29
                             1655.01  1682.91  1734.96  1779.69  1819.26
                             1822.62  1846.63  1860.41  1897.42  1909.72
                             1966.70  1984.86  2001.48  2013.34  2031.29
                             2059.55  2118.92  2120.32  2129.62  2157.51
                             2175.03  2264.10  2301.47  2346.13  2410.14
                             2448.45  2660.73  3638.45  4384.99  4389.61
                             4413.33  4448.12  4458.57  4480.69  4529.11
                             4638.66  4675.77  4986.96  5052.16  5079.20
                             5233.22  5455.36

 Zero-point correction=                           0.258622 (Hartree/Particle)
 Thermal correction to Energy=                    0.274232
 Thermal correction to Enthalpy=                  0.275176
 Thermal correction to Gibbs Free Energy=         0.212771
 Sum of electronic and zero-point Energies=           -796.486185
 Sum of electronic and thermal Energies=              -796.470576
 Sum of electronic and thermal Enthalpies=            -796.469632
 Sum of electronic and thermal Free Energies=         -796.532036

                     E (Thermal)             CV                S
                      KCal/Mol        Cal/Mol-Kelvin    Cal/Mol-Kelvin
 Total                  172.083             57.767            131.341
 Electronic               0.000              0.000              0.000
 Translational            0.889              2.981             42.163
 Rotational               0.889              2.981             32.739
 Vibrational            170.306             51.805             56.439
 Vibration     1          0.593              1.986              6.899
 Vibration     2          0.593              1.985              6.155
 Vibration     3          0.596              1.976              4.690
 Vibration     4          0.596              1.974              4.501
 Vibration     5          0.598              1.970              4.249
 Vibration     6          0.600              1.961              3.818
 Vibration     7          0.606              1.942              3.279
 Vibration     8          0.612              1.922              2.932
 Vibration     9          0.638              1.839              2.125
 Vibration    10          0.646              1.815              1.982
 Vibration    11          0.659              1.774              1.779
 Vibration    12          0.709              1.626              1.286
 Vibration    13          0.714              1.612              1.251
 Vibration    14          0.722              1.588              1.195
 Vibration    15          0.750              1.514              1.041
 Vibration    16          0.760              1.485              0.988
 Vibration    17          0.813              1.350              0.781
 Vibration    18          0.822              1.330              0.754
 Vibration    19          0.862              1.236              0.642
 Vibration    20          0.882              1.190              0.594
 Vibration    21          0.913              1.123              0.528
 Vibration    22          0.953              1.042              0.458

 Optimization completed.
    -- Stationary point found.
 Normal termination of Gaussian 09 at Thu Jul 29 07:12:08 2021.
