 Gaussian 09, Revision D.01,
 Gaussian 09:  ES64L-G09RevD.01 24-Apr-2013

 ----------------------------------------------------------------------
 # B3LYP/6-311G(2df,2pd) guess=read geom=checkpoint opt=readfc freq=nor
 aman nosymm integral(ultrafinegrid)
 ----------------------------------------------------------------------

 ------------------------------------------------------------
 Candidate Structure: Conf:885 OPT and FREQ calc in gas phase
 ------------------------------------------------------------
 Structure from the checkpoint file:  "conf-885.chk"
 Charge =  1 Multiplicity = 1

 SCF Done:  E(RB3LYP) =  -796.742097375     A.U. after   11 cycles
 SCF Done:  E(RB3LYP) =  -796.742821547     A.U. after   11 cycles
 SCF Done:  E(RB3LYP) =  -796.742829920     A.U. after   11 cycles
 SCF Done:  E(RB3LYP) =  -796.742830426     A.U. after    7 cycles
 SCF Done:  E(RB3LYP) =  -796.742830444     A.U. after    7 cycles
 Optimization completed.
    -- Stationary point found.
 Normal termination of Gaussian 09 at Thu Jul 29 02:51:51 2021.

 ----------------------------------------------------------------------
 #N Geom=AllCheck Guess=TCheck SCRF=Check GenChk RB3LYP/6-311G(2df,2pd)
  Freq
 ----------------------------------------------------------------------

 Structure from the checkpoint file:  "conf-885.chk"
 ------------------------------------------------------------
 Candidate Structure: Conf:885 OPT and FREQ calc in gas phase
 ------------------------------------------------------------
 Charge =  1 Multiplicity = 1

                          Input orientation:
 ---------------------------------------------------------------------
 Center     Atomic      Atomic             Coordinates (Angstroms)
 Number     Number       Type             X           Y           Z
 ---------------------------------------------------------------------
      1          8           0       -1.545763    0.291609   -0.772003
      2          6           0       -1.516898   -0.797626   -0.180005
      3          7           0       -0.408557   -1.319652    0.353463
      4          6           0        0.812423   -0.553308    0.620915
      5          6           0        0.492237    0.493404    1.700569
      6          8           0        1.607832    1.009477    2.211102
      7          8           0       -0.620693    0.784043    2.056194
      8          6           0        1.453764    0.025780   -0.677686
      9          6           0        2.817844    0.596211   -0.522379
     10          6           0        3.260414    1.891182   -0.563721
     11          7           0        4.615978    1.956757   -0.373453
     12          6           0        5.005595    0.717729   -0.219824
     13          7           0        3.957768   -0.152598   -0.295732
     14          6           0       -2.815717   -1.584318   -0.040389
     15          6           0       -3.924162   -0.655977    0.469708
     16          7           0       -4.059921    0.523220   -0.464234
     17          1           0       -0.513382   -2.181560    0.863102
     18          1           0        1.520810   -1.253337    1.063312
     19          1           0        1.369534    1.678118    2.871535
     20          1           0        1.453638   -0.794270   -1.401359
     21          1           0        0.799487    0.793555   -1.080020
     22          1           0        2.669944    2.778878   -0.721704
     23          1           0        6.017951    0.386795   -0.056815
     24          1           0        4.027360   -1.155434   -0.269939
     25          1           0       -3.080492   -1.995742   -1.017296
     26          1           0       -2.726730   -2.421433    0.649618
     27          1           0       -4.880157   -1.166753    0.543768
     28          1           0       -3.660678   -0.248829    1.443365
     29          1           0       -4.609240    0.299185   -1.292194
     30          1           0       -4.481245    1.330415   -0.009428
     31          1           0       -3.038853    0.724560   -0.756471
 ---------------------------------------------------------------------

 SCF Done:  E(RB3LYP) =  -796.742830444     A.U. after    1 cycles

 Alpha  occ. eigenvalues --  -19.28647 -19.25803 -19.23312 -14.57873 -14.49893
 Alpha  occ. eigenvalues --  -14.44962 -14.36412 -10.44088 -10.42674 -10.40296
 Alpha  occ. eigenvalues --  -10.36521 -10.35742 -10.30168 -10.29955 -10.28857
 Alpha  occ. eigenvalues --  -10.25991  -1.23467  -1.21312  -1.15293  -1.14540
 Alpha  occ. eigenvalues --   -1.09872  -1.09057  -0.96200  -0.95428  -0.91898
 Alpha  occ. eigenvalues --   -0.85515  -0.82758  -0.78621  -0.77352  -0.74988
 Alpha  occ. eigenvalues --   -0.73883  -0.72130  -0.69848  -0.68363  -0.67390
 Alpha  occ. eigenvalues --   -0.66126  -0.64082  -0.62812  -0.62220  -0.60702
 Alpha  occ. eigenvalues --   -0.59828  -0.58644  -0.57836  -0.56962  -0.55983
 Alpha  occ. eigenvalues --   -0.54543  -0.53726  -0.52705  -0.52037  -0.51008
 Alpha  occ. eigenvalues --   -0.49760  -0.49005  -0.48547  -0.44884  -0.43374
 Alpha  occ. eigenvalues --   -0.42990  -0.40477  -0.36601  -0.34690  -0.31276
 Alpha virt. eigenvalues --   -0.15722  -0.14386  -0.12070  -0.10712  -0.09822
 Alpha virt. eigenvalues --   -0.08684  -0.07503  -0.06154  -0.05572  -0.05293
 Alpha virt. eigenvalues --   -0.04014  -0.03540  -0.02809  -0.01725  -0.01574

 Mulliken charges:
               1
     1  O   -0.469901
     2  C    0.521809
     3  N   -0.268975
     4  C    0.059994
     5  C    0.546735
     6  O   -0.307248
     7  O   -0.384195
     8  C    0.003919
     9  C    0.068282
    10  C    0.121609
    11  N   -0.338679
    12  C    0.245468
    13  N   -0.247101
    14  C   -0.060163
    15  C    0.110917
    16  N    0.073126
    17  H    0.117840
    18  H    0.040535
    19  H    0.231432
    20  H    0.031241
    21  H    0.046673
    22  H    0.013638
    23  H    0.034723
    24  H    0.107730
    25  H    0.062669
    26  H    0.042017
    27  H    0.069272
    28  H    0.076686
    29  H    0.136394
    30  H    0.131243
    31  H    0.182309
 Sum of Mulliken charges =   1.00000

 Dipole moment (field-independent basis, Debye):
    X=            -13.0192    Y=             -5.1961    Z=              1.0871  Tot=             14.0599
 Quadrupole moment (field-independent basis, Debye-Ang):
   XX=            -23.1616   YY=            -80.4918   ZZ=            -85.7738
   XY=            -14.6250   XZ=              9.3167   YZ=              0.8237

  Exact polarizability: 180.956   9.412 122.855   3.437  -0.927  99.957
 Approx polarizability: 234.062   1.076 206.958   8.878  -7.253 154.316

                      1                      2                      3
                      A                      A                      A
 Frequencies --     18.0317                23.9579                43.5550
 Red. masses --      4.8233                 4.6648                 5.1012
 Frc consts  --      0.0009                 0.0016                 0.0057
 IR Inten    --      3.5804                11.6053                 0.5329

                      4                      5                      6
                      A                      A                      A
 Frequencies --     62.3907                70.6755                81.1195
 Red. masses --      5.6859                 4.0525                 4.7962
 Frc consts  --      0.0130                 0.0119                 0.0186
 IR Inten    --      4.8097                 1.9718                 6.7582

                      7                      8                      9
                      A                      A                      A
 Frequencies --    116.4271               149.4423               182.8154
 Red. masses --      5.4017                 5.9946                 3.0638
 Frc consts  --      0.0431                 0.0789                 0.0603
 IR Inten    --      2.2320                 4.8166                 3.4902

                     10                     11                     12
                      A                      A                      A
 Frequencies --    210.3755               278.3374               310.8412
 Red. masses --      3.7832                 4.7204                 3.9329
 Frc consts  --      0.0986                 0.2155                 0.2239
 IR Inten    --      5.7278                13.5264                45.5555

                     13                     14                     15
                      A                      A                      A
 Frequencies --    321.5373               355.0494               371.6341
 Red. masses --      2.1468                 3.4379                 3.8188
 Frc consts  --      0.1308                 0.2553                 0.3107
 IR Inten    --      3.6767                59.8142                39.2891

                     16                     17                     18
                      A                      A                      A
 Frequencies --    379.6965               396.1149               454.3607
 Red. masses --      2.1165                 1.8581                 3.0335
 Frc consts  --      0.1798                 0.1718                 0.3690
 IR Inten    --     31.1688                20.8588                10.6886

                     19                     20                     21
                      A                      A                      A
 Frequencies --    506.2519               521.4590               564.0871
 Red. masses --      1.3693                 2.8247                 1.8039
 Frc consts  --      0.2068                 0.4525                 0.3382
 IR Inten    --     77.9141                68.7478                12.6301

                     22                     23                     24
                      A                      A                      A
 Frequencies --    597.4227               611.4916               663.1033
 Red. masses --      1.6489                 1.4963                 2.6803
 Frc consts  --      0.3467                 0.3296                 0.6944
 IR Inten    --     60.7790                72.6928                31.3522

                     25                     26                     27
                      A                      A                      A
 Frequencies --    681.1316               697.6189               737.7992
 Red. masses --      3.1032                 4.4058                 3.6629
 Frc consts  --      0.8482                 1.2633                 1.1748
 IR Inten    --     13.0681                 6.4146                23.0690

                     28                     29                     30
                      A                      A                      A
 Frequencies --    745.7135               777.9808               789.0043
 Red. masses --      3.4652                 3.2672                 2.9490
 Frc consts  --      1.1353                 1.1651                 1.0816
 IR Inten    --     35.8237                10.8255                18.9615

                     31                     32                     33
                      A                      A                      A
 Frequencies --    841.4932               844.9068               873.7295
 Red. masses --      1.4095                 2.5963                 1.4551
 Frc consts  --      0.5880                 1.0920                 0.6545
 IR Inten    --     17.6044                28.0449                12.0747

                     34                     35                     36
                      A                      A                      A
 Frequencies --    890.3251               929.8315               932.7548
 Red. masses --      2.6448                 2.2730                 4.0860
 Frc consts  --      1.2352                 1.1579                 2.0945
 IR Inten    --     36.7301                14.2948                16.3963

                     37                     38                     39
                      A                      A                      A
 Frequencies --    955.3571               982.1573               996.4668
 Red. masses --      1.4163                 2.6677                 3.1132
 Frc consts  --      0.7616                 1.5162                 1.8213
 IR Inten    --      3.8088                 2.5781                 5.6729

                     40                     41                     42
                      A                      A                      A
 Frequencies --   1018.8360              1037.9787              1078.6344
 Red. masses --      3.8379                 4.0076                 3.2683
 Frc consts  --      2.3472                 2.5439                 2.2404
 IR Inten    --     10.4750                 2.0733                12.2166

                     43                     44                     45
                      A                      A                      A
 Frequencies --   1104.8991              1127.8239              1135.2636
 Red. masses --      1.6812                 1.3658                 1.4841
 Frc consts  --      1.2092                 1.0236                 1.1269
 IR Inten    --     22.1003               114.2138                16.4853

                     46                     47                     48
                      A                      A                      A
 Frequencies --   1149.9147              1173.2009              1187.9288
 Red. masses --      2.0624                 2.0957                 1.4895
 Frc consts  --      1.6068                 1.6995                 1.2384
 IR Inten    --     16.8539               152.2353                44.9288

                     49                     50                     51
                      A                      A                      A
 Frequencies --   1259.6613              1263.6150              1283.1623
 Red. masses --      1.5010                 2.2042                 1.3551
 Frc consts  --      1.4032                 2.0736                 1.3145
 IR Inten    --      9.6887                13.0362                 1.7669

                     52                     53                     54
                      A                      A                      A
 Frequencies --   1306.5698              1315.8891              1325.1412
 Red. masses --      1.5376                 1.4041                 1.2927
 Frc consts  --      1.5465                 1.4325                 1.3374
 IR Inten    --     20.8183                15.0338                43.6451

                     55                     56                     57
                      A                      A                      A
 Frequencies --   1329.6890              1356.0455              1385.7909
 Red. masses --      1.3248                 1.5088                 1.6780
 Frc consts  --      1.3801                 1.6347                 1.8986
 IR Inten    --     35.9403                28.1915                12.4125

                     58                     59                     60
                      A                      A                      A
 Frequencies --   1387.4317              1403.3128              1418.9341
 Red. masses --      2.6480                 1.2187                 2.2237
 Frc consts  --      3.0033                 1.4140                 2.6378
 IR Inten    --     62.9515                82.8276                29.1866

                     61                     62                     63
                      A                      A                      A
 Frequencies --   1429.1915              1475.0599              1476.9338
 Red. masses --      2.7480                 1.1633                 1.1979
 Frc consts  --      3.3070                 1.4913                 1.5396
 IR Inten    --     27.4024               262.8622               265.5053

                     64                     65                     66
                      A                      A                      A
 Frequencies --   1493.1565              1501.4420              1510.7121
 Red. masses --      1.4122                 2.0926                 1.0763
 Frc consts  --      1.8550                 2.7794                 1.4472
 IR Inten    --      8.1857                14.1935                64.9159

                     67                     68                     69
                      A                      A                      A
 Frequencies --   1575.4979              1609.2562              1631.1636
 Red. masses --      2.0951                 4.3862                 1.1396
 Frc consts  --      3.0640                 6.6925                 1.7864
 IR Inten    --    136.5417                 4.9878                 2.3989

                     70                     71                     72
                      A                      A                      A
 Frequencies --   1672.1047              1708.0145              1809.3944
 Red. masses --      1.0444                 3.3904                10.3702
 Frc consts  --      1.7204                 5.8275                20.0033
 IR Inten    --     20.7080               105.8132               358.1911

                     73                     74                     75
                      A                      A                      A
 Frequencies --   2528.9607              3026.4275              3051.0288
 Red. masses --      1.0938                 1.0722                 1.0665
 Frc consts  --      4.1218                 5.7862                 5.8490
 IR Inten    --   1149.5579                20.2118                 0.8711

                     76                     77                     78
                      A                      A                      A
 Frequencies --   3081.0070              3091.6874              3113.7502
 Red. masses --      1.0849                 1.0609                 1.0972
 Frc consts  --      6.0678                 5.9749                 6.2679
 IR Inten    --      4.1332                 1.3617                 1.8324

                     79                     80                     81
                      A                      A                      A
 Frequencies --   3135.4890              3148.4244              3233.0232
 Red. masses --      1.0905                 1.1117                 1.0963
 Frc consts  --      6.3167                 6.4927                 6.7517
 IR Inten    --      0.8242                 0.3336                 4.8311

                     82                     83                     84
                      A                      A                      A
 Frequencies --   3246.5233              3466.7265              3530.9602
 Red. masses --      1.0981                 1.0518                 1.0945
 Frc consts  --      6.8188                 7.4474                 8.0402
 IR Inten    --      0.5624                82.0247                72.3735

                     85                     86                     87
                      A                      A                      A
 Frequencies --   3622.1685              3646.1784              3735.4787
 Red. masses --      1.0780                 1.0809                 1.0644
 Frc consts  --      8.3333                 8.4668                 8.7504
 IR Inten    --     48.6635                43.2176               103.2108

 - Thermochemistry -
 -------------------
 Temperature   298.150 Kelvin.  Pressure   1.00000 Atm.
 Atom     1 has atomic number  8 and mass  15.99491

 Molecular mass:   227.11442 amu.
 Principal axes and moments of inertia in atomic units:
                           1         2         3
     Eigenvalues --  1407.769997346.590777603.24743
           X            0.97981  -0.03871  -0.19617
           Y            0.19793   0.32720   0.92400
           Z           -0.02842   0.94416  -0.32825
 This molecule is an asymmetric top.
 Rotational symmetry number  1.
 Warning -- assumption of classical behavior for rotation
           may cause significant error
 Rotational temperatures (Kelvin)      0.06153     0.01179     0.01139
 Rotational constants (GHZ):           1.28199     0.24566     0.23736
 Zero-point vibrational energy     679275.1 (Joules/Mol)
                                  162.35065 (Kcal/Mol)
 Warning -- explicit consideration of  23 degrees of freedom as
           vibrations may cause significant error
 Vibrational temperatures:     25.94    34.47    62.67    89.77   101.69
          (Kelvin)            116.71   167.51   215.01   263.03   302.68
                              400.46   447.23   462.62   510.84   534.70
                              546.30   569.92   653.72   728.38   750.26
                              811.59   859.56   879.80   954.06   980.00
                             1003.72  1061.53  1072.91  1119.34  1135.20
                             1210.72  1215.63  1257.10  1280.98  1337.82
                             1342.02  1374.54  1413.10  1433.69  1465.88
                             1493.42  1551.91  1589.70  1622.69  1633.39
                             1654.47  1687.97  1709.16  1812.37  1818.06
                             1846.18  1879.86  1893.27  1906.58  1913.12
                             1951.04  1993.84  1996.20  2019.05  2041.53
                             2056.29  2122.28  2124.98  2148.32  2160.24
                             2173.58  2266.79  2315.36  2346.88  2405.78
                             2457.45  2603.31  3638.61  4354.35  4389.74
                             4432.88  4448.24  4479.99  4511.26  4529.87
                             4651.59  4671.02  4987.84  5080.26  5211.49
                             5246.03  5374.51

 Zero-point correction=                           0.258722 (Hartree/Particle)
 Thermal correction to Energy=                    0.274394
 Thermal correction to Enthalpy=                  0.275338
 Thermal correction to Gibbs Free Energy=         0.212795
 Sum of electronic and zero-point Energies=           -796.484108
 Sum of electronic and thermal Energies=              -796.468437
 Sum of electronic and thermal Enthalpies=            -796.467493
 Sum of electronic and thermal Free Energies=         -796.530035

                     E (Thermal)             CV                S
                      KCal/Mol        Cal/Mol-Kelvin    Cal/Mol-Kelvin
 Total                  172.185             57.961            131.632
 Electronic               0.000              0.000              0.000
 Translational            0.889              2.981             42.163
 Rotational               0.889              2.981             32.731
 Vibrational            170.407             52.000             56.738
 Vibration     1          0.593              1.986              6.840
 Vibration     2          0.593              1.985              6.276
 Vibration     3          0.595              1.980              5.090
 Vibration     4          0.597              1.972              4.380
 Vibration     5          0.598              1.968              4.134
 Vibration     6          0.600              1.962              3.864
 Vibration     7          0.608              1.936              3.159
 Vibration     8          0.618              1.903              2.679
 Vibration     9          0.630              1.863              2.299
 Vibration    10          0.643              1.825              2.040
 Vibration    11          0.679              1.714              1.544
 Vibration    12          0.700              1.653              1.358
 Vibration    13          0.707              1.632              1.302
 Vibration    14          0.731              1.565              1.144
 Vibration    15          0.743              1.530              1.073
 Vibration    16          0.750              1.513              1.040
 Vibration    17          0.763              1.478              0.977
 Vibration    18          0.813              1.351              0.783
 Vibration    19          0.861              1.236              0.643
 Vibration    20          0.876              1.202              0.607
 Vibration    21          0.920              1.109              0.516
 Vibration    22          0.955              1.037              0.454
 Vibration    23          0.971              1.008              0.430

 Optimization completed.
    -- Stationary point found.
 Normal termination of Gaussian 09 at Thu Jul 29 06:40:17 2021.
