 Gaussian 09, Revision D.01,
 Gaussian 09:  ES64L-G09RevD.01 24-Apr-2013

 ----------------------------------------------------------------------
 # B3LYP/6-311G(2df,2pd) guess=read geom=checkpoint opt=readfc freq=nor
 aman nosymm integral(ultrafinegrid)
 ----------------------------------------------------------------------

 ------------------------------------------------------------
 Candidate Structure: Conf:862 OPT and FREQ calc in gas phase
 ------------------------------------------------------------
 Structure from the checkpoint file:  "conf-862.chk"
 Charge =  1 Multiplicity = 1

 SCF Done:  E(RB3LYP) =  -796.760079645     A.U. after   11 cycles
 SCF Done:  E(RB3LYP) =  -796.760794362     A.U. after   10 cycles
 SCF Done:  E(RB3LYP) =  -796.760797402     A.U. after    9 cycles
 SCF Done:  E(RB3LYP) =  -796.760797429     A.U. after    6 cycles
 Optimization completed.
    -- Stationary point found.
 Normal termination of Gaussian 09 at Thu Jul 29 02:46:31 2021.

 ----------------------------------------------------------------------
 #N Geom=AllCheck Guess=TCheck SCRF=Check GenChk RB3LYP/6-311G(2df,2pd)
  Freq
 ----------------------------------------------------------------------

 Structure from the checkpoint file:  "conf-862.chk"
 ------------------------------------------------------------
 Candidate Structure: Conf:862 OPT and FREQ calc in gas phase
 ------------------------------------------------------------
 Charge =  1 Multiplicity = 1

                          Input orientation:
 ---------------------------------------------------------------------
 Center     Atomic      Atomic             Coordinates (Angstroms)
 Number     Number       Type             X           Y           Z
 ---------------------------------------------------------------------
      1          8           0       -0.706359    1.811387   -0.145177
      2          6           0        0.349643    1.270805    0.183403
      3          7           0        0.497535    0.573564    1.323857
      4          6           0       -0.622123    0.163420    2.149408
      5          6           0       -0.183006    0.206762    3.603973
      6          8           0       -1.231907    0.203662    4.430176
      7          8           0        0.968504    0.187038    3.947726
      8          6           0       -1.117283   -1.300157    1.806060
      9          6           0       -0.895080   -1.635343    0.369153
     10          6           0       -1.403375   -1.092452   -0.777211
     11          7           0       -0.669357   -1.486159   -1.875928
     12          6           0        0.247173   -2.311390   -1.409459
     13          7           0        0.155036   -2.424556   -0.062902
     14          6           0        1.556761    1.273618   -0.755521
     15          6           0        1.217772    1.793007   -2.152980
     16          7           0       -0.090002    1.233980   -2.653086
     17          1           0        1.412307    0.269749    1.624513
     18          1           0       -1.436782    0.862213    1.981456
     19          1           0       -0.905885    0.180822    5.343266
     20          1           0       -2.169154   -1.371647    2.076726
     21          1           0       -0.584171   -2.016872    2.432844
     22          1           0       -2.227319   -0.405641   -0.863099
     23          1           0        0.974776   -2.847276   -1.995500
     24          1           0        0.714186   -3.030434    0.516136
     25          1           0        1.959902    0.261988   -0.812322
     26          1           0        2.348892    1.902343   -0.344110
     27          1           0        1.998188    1.530193   -2.861990
     28          1           0        1.098171    2.873530   -2.149681
     29          1           0       -0.155602    0.186832   -2.634112
     30          1           0       -0.309944    1.567807   -3.588863
     31          1           0       -0.791394    1.569415   -1.968559
 ---------------------------------------------------------------------

 SCF Done:  E(RB3LYP) =  -796.760797429     A.U. after    1 cycles

 Alpha  occ. eigenvalues --  -19.28900 -19.23897 -19.23342 -14.56026 -14.50544
 Alpha  occ. eigenvalues --  -14.48095 -14.43808 -10.42662 -10.42503 -10.38684
 Alpha  occ. eigenvalues --  -10.36263 -10.36025 -10.34222 -10.33959 -10.32394
 Alpha  occ. eigenvalues --  -10.31476  -1.23510  -1.19475  -1.15837  -1.14824
 Alpha  occ. eigenvalues --   -1.13607  -1.07640  -1.01427  -0.94965  -0.92788
 Alpha  occ. eigenvalues --   -0.88366  -0.82681  -0.80687  -0.75894  -0.75287
 Alpha  occ. eigenvalues --   -0.73769  -0.73056  -0.72220  -0.71484  -0.68116
 Alpha  occ. eigenvalues --   -0.66316  -0.64105  -0.62943  -0.62044  -0.61234
 Alpha  occ. eigenvalues --   -0.59960  -0.59098  -0.58735  -0.57688  -0.56199
 Alpha  occ. eigenvalues --   -0.55562  -0.54917  -0.54325  -0.54213  -0.53512
 Alpha  occ. eigenvalues --   -0.52627  -0.50724  -0.50224  -0.44903  -0.43525
 Alpha  occ. eigenvalues --   -0.42328  -0.41940  -0.40894  -0.40639  -0.36568
 Alpha virt. eigenvalues --   -0.14084  -0.13110  -0.12470  -0.11373  -0.09513
 Alpha virt. eigenvalues --   -0.08925  -0.08141  -0.06809  -0.06431  -0.06056
 Alpha virt. eigenvalues --   -0.05066  -0.04274  -0.03256  -0.02500  -0.01873

 Mulliken charges:
               1
     1  O   -0.458471
     2  C    0.505782
     3  N   -0.291856
     4  C    0.069250
     5  C    0.510456
     6  O   -0.327111
     7  O   -0.361371
     8  C    0.038634
     9  C    0.066866
    10  C    0.090578
    11  N   -0.417226
    12  C    0.248952
    13  N   -0.205011
    14  C   -0.080564
    15  C    0.119443
    16  N    0.065652
    17  H    0.118189
    18  H    0.052089
    19  H    0.242005
    20  H    0.063553
    21  H    0.032888
    22  H    0.045656
    23  H    0.057715
    24  H    0.133395
    25  H    0.041135
    26  H    0.062558
    27  H    0.065423
    28  H    0.072340
    29  H    0.150677
    30  H    0.116520
    31  H    0.171853
 Sum of Mulliken charges =   1.00000

 Dipole moment (field-independent basis, Debye):
    X=              2.4186    Y=              0.3398    Z=             -3.2164  Tot=              4.0386
 Quadrupole moment (field-independent basis, Debye-Ang):
   XX=            -84.6231   YY=            -73.5140   ZZ=            -51.3310
   XY=             -0.1133   XZ=            -11.4289   YZ=            -16.0387

  Exact polarizability: 115.996  -2.464 114.658  -8.248  -7.424 160.050
 Approx polarizability: 202.629 -22.584 173.034  -0.292 -14.015 222.951

                      1                      2                      3
                      A                      A                      A
 Frequencies --     40.6182                51.9944                82.6999
 Red. masses --      4.7484                 8.8326                 3.9969
 Frc consts  --      0.0046                 0.0141                 0.0161
 IR Inten    --      2.6259                 1.1902                 0.5552

                      4                      5                      6
                      A                      A                      A
 Frequencies --    106.1345               109.5904               120.1142
 Red. masses --      4.3310                 5.9854                 4.0303
 Frc consts  --      0.0287                 0.0424                 0.0343
 IR Inten    --     14.1075                 2.4042                 6.1033

                      7                      8                      9
                      A                      A                      A
 Frequencies --    137.5577               153.6083               171.0376
 Red. masses --      3.6592                 4.7195                 4.7805
 Frc consts  --      0.0408                 0.0656                 0.0824
 IR Inten    --     21.1298                 7.4055                10.6555

                     10                     11                     12
                      A                      A                      A
 Frequencies --    194.4779               258.6936               306.1641
 Red. masses --      2.3594                 4.3388                 5.6767
 Frc consts  --      0.0526                 0.1711                 0.3135
 IR Inten    --     26.1942                42.6742                 1.2194

                     13                     14                     15
                      A                      A                      A
 Frequencies --    313.7200               331.7249               349.7002
 Red. masses --      2.6104                 3.7457                 3.8859
 Frc consts  --      0.1514                 0.2429                 0.2800
 IR Inten    --      5.3893                 9.8623                34.0339

                     16                     17                     18
                      A                      A                      A
 Frequencies --    407.5226               434.9753               457.0729
 Red. masses --      3.0313                 1.8502                 1.6360
 Frc consts  --      0.2966                 0.2063                 0.2014
 IR Inten    --      8.4337                12.3498                 1.9607

                     19                     20                     21
                      A                      A                      A
 Frequencies --    532.3845               549.8720               600.5123
 Red. masses --      1.8298                 3.6463                 1.7204
 Frc consts  --      0.3056                 0.6496                 0.3655
 IR Inten    --     66.0368                21.5485               109.2526

                     22                     23                     24
                      A                      A                      A
 Frequencies --    622.3452               624.5865               637.8332
 Red. masses --      1.3280                 1.7409                 3.4150
 Frc consts  --      0.3031                 0.4001                 0.8186
 IR Inten    --     43.1828                 5.5147                78.9589

                     25                     26                     27
                      A                      A                      A
 Frequencies --    682.1689               688.7260               692.8095
 Red. masses --      2.8081                 2.9936                 2.4817
 Frc consts  --      0.7699                 0.8366                 0.7018
 IR Inten    --     53.0483                 4.3752                 4.3230

                     28                     29                     30
                      A                      A                      A
 Frequencies --    721.9145               771.5922               835.5851
 Red. masses --      3.1523                 4.2525                 1.7763
 Frc consts  --      0.9679                 1.4917                 0.7307
 IR Inten    --      7.7801                20.9116                 3.4396

                     31                     32                     33
                      A                      A                      A
 Frequencies --    843.9261               852.0851               871.0503
 Red. masses --      1.9620                 1.9733                 1.9128
 Frc consts  --      0.8233                 0.8441                 0.8551
 IR Inten    --     15.0380                19.8145                12.5146

                     34                     35                     36
                      A                      A                      A
 Frequencies --    883.3309               925.7719               943.8879
 Red. masses --      1.7866                 2.7706                 5.0848
 Frc consts  --      0.8213                 1.3990                 2.6691
 IR Inten    --     12.1328                13.9831                10.2896

                     37                     38                     39
                      A                      A                      A
 Frequencies --    955.5904               977.1138               998.2727
 Red. masses --      3.5838                 1.5509                 3.1259
 Frc consts  --      1.9281                 0.8724                 1.8354
 IR Inten    --      1.2466                 2.9274                14.9536

                     40                     41                     42
                      A                      A                      A
 Frequencies --   1029.7934              1038.8274              1097.7279
 Red. masses --      3.5033                 3.1607                 2.4713
 Frc consts  --      2.1889                 2.0096                 1.7545
 IR Inten    --      5.3087                10.0323                16.7698

                     43                     44                     45
                      A                      A                      A
 Frequencies --   1122.3281              1130.8729              1133.9624
 Red. masses --      1.4710                 1.9279                 1.8078
 Frc consts  --      1.0917                 1.4526                 1.3696
 IR Inten    --     94.5684                15.8746                11.8911

                     46                     47                     48
                      A                      A                      A
 Frequencies --   1144.3111              1164.8414              1203.6229
 Red. masses --      1.4484                 1.8897                 1.8682
 Frc consts  --      1.1175                 1.5107                 1.5946
 IR Inten    --     34.6424               153.5903                48.8341

                     49                     50                     51
                      A                      A                      A
 Frequencies --   1248.4217              1254.1475              1280.8513
 Red. masses --      1.7589                 1.7587                 1.3488
 Frc consts  --      1.6151                 1.6298                 1.3037
 IR Inten    --      4.7182                10.3938                 0.8401

                     52                     53                     54
                      A                      A                      A
 Frequencies --   1283.0647              1300.5661              1336.7065
 Red. masses --      1.3957                 1.5694                 1.6613
 Frc consts  --      1.3538                 1.5641                 1.7489
 IR Inten    --     23.9541                 8.6500                 1.8166

                     55                     56                     57
                      A                      A                      A
 Frequencies --   1341.5178              1353.6213              1389.1557
 Red. masses --      1.2786                 1.2343                 1.5575
 Frc consts  --      1.3557                 1.3325                 1.7709
 IR Inten    --     12.4140                14.2106                44.2303

                     58                     59                     60
                      A                      A                      A
 Frequencies --   1392.9220              1418.9407              1425.4094
 Red. masses --      2.4586                 2.2489                 1.3773
 Frc consts  --      2.8105                 2.6677                 1.6487
 IR Inten    --      4.3399               142.1287                17.7626

                     61                     62                     63
                      A                      A                      A
 Frequencies --   1436.5103              1468.9141              1487.8628
 Red. masses --      2.6463                 1.0959                 1.2947
 Frc consts  --      3.2174                 1.3932                 1.6887
 IR Inten    --     22.7442                26.0357                14.2757

                     64                     65                     66
                      A                      A                      A
 Frequencies --   1494.3700              1502.4800              1507.2284
 Red. masses --      1.3130                 1.7652                 1.1539
 Frc consts  --      1.7275                 2.3479                 1.5444
 IR Inten    --    100.9006                78.7947                37.7101

                     67                     68                     69
                      A                      A                      A
 Frequencies --   1555.5546              1613.1141              1640.2701
 Red. masses --      2.1483                 4.0534                 1.1184
 Frc consts  --      3.0628                 6.2144                 1.7728
 IR Inten    --    201.7616                14.8297                57.1393

                     70                     71                     72
                      A                      A                      A
 Frequencies --   1696.4700              1714.0376              1825.4155
 Red. masses --      1.1784                 3.2521                10.2246
 Frc consts  --      1.9981                 5.6293                20.0733
 IR Inten    --    211.7108                67.2923               245.9114

                     73                     74                     75
                      A                      A                      A
 Frequencies --   2971.2640              3055.2455              3056.4332
 Red. masses --      1.0802                 1.0654                 1.0608
 Frc consts  --      5.6187                 5.8595                 5.8389
 IR Inten    --    738.5958                 9.4920                 4.7785

                     76                     77                     78
                      A                      A                      A
 Frequencies --   3090.0042              3098.3484              3107.0577
 Red. masses --      1.0883                 1.0736                 1.0977
 Frc consts  --      6.1223                 6.0723                 6.2433
 IR Inten    --      2.7402                 3.5516                 1.5813

                     79                     80                     81
                      A                      A                      A
 Frequencies --   3128.7389              3146.9776              3209.8612
 Red. masses --      1.0872                 1.1098                 1.0683
 Frc consts  --      6.2705                 6.4758                 6.4850
 IR Inten    --      3.2901                 3.8995               219.3220

                     82                     83                     84
                      A                      A                      A
 Frequencies --   3252.4137              3256.0192              3509.1799
 Red. masses --      1.0955                 1.1006                 1.0782
 Frc consts  --      6.8278                 6.8744                 7.8230
 IR Inten    --      0.6670                 3.4925               108.5380

                     85                     86                     87
                      A                      A                      A
 Frequencies --   3588.3246              3631.0340              3732.4059
 Red. masses --      1.0775                 1.0818                 1.0643
 Frc consts  --      8.1745                 8.4032                 8.7354
 IR Inten    --     71.1781                82.7329               128.2278

 - Thermochemistry -
 -------------------
 Temperature   298.150 Kelvin.  Pressure   1.00000 Atm.
 Atom     1 has atomic number  8 and mass  15.99491

 Molecular mass:   227.11442 amu.
 Principal axes and moments of inertia in atomic units:
                           1         2         3
     Eigenvalues --  2231.359544525.073885686.15404
           X           -0.09781   0.30264   0.94807
           Y           -0.03572   0.95096  -0.30724
           Z            0.99456   0.06392   0.08220
 This molecule is an asymmetric top.
 Rotational symmetry number  1.
 Warning -- assumption of classical behavior for rotation
           may cause significant error
 Rotational temperatures (Kelvin)      0.03882     0.01914     0.01523
 Rotational constants (GHZ):           0.80881     0.39883     0.31739
 Zero-point vibrational energy     682504.9 (Joules/Mol)
                                  163.12259 (Kcal/Mol)
 Warning -- explicit consideration of  21 degrees of freedom as
           vibrations may cause significant error
 Vibrational temperatures:     58.44    74.81   118.99   152.70   157.68
          (Kelvin)            172.82   197.91   221.01   246.08   279.81
                              372.20   440.50   451.37   477.28   503.14
                              586.33   625.83   657.63   765.98   791.14
                              864.00   895.41   898.64   917.70   981.49
                              990.92   996.80  1038.67  1110.15  1202.22
                             1214.22  1225.96  1253.25  1270.91  1331.98
                             1358.04  1374.88  1405.85  1436.29  1481.64
                             1494.64  1579.38  1614.78  1627.07  1631.52
                             1646.41  1675.94  1731.74  1796.20  1804.44
                             1842.86  1846.04  1871.22  1923.22  1930.14
                             1947.56  1998.68  2004.10  2041.54  2050.84
                             2066.82  2113.44  2140.70  2150.06  2161.73
                             2168.56  2238.09  2320.91  2359.98  2440.84
                             2466.11  2626.36  4274.98  4395.81  4397.52
                             4445.82  4457.83  4470.36  4501.55  4527.79
                             4618.27  4679.49  4684.68  5048.92  5162.79
                             5224.24  5370.09

 Zero-point correction=                           0.259952 (Hartree/Particle)
 Thermal correction to Energy=                    0.275168
 Thermal correction to Enthalpy=                  0.276112
 Thermal correction to Gibbs Free Energy=         0.217144
 Sum of electronic and zero-point Energies=           -796.500845
 Sum of electronic and thermal Energies=              -796.485630
 Sum of electronic and thermal Enthalpies=            -796.484686
 Sum of electronic and thermal Free Energies=         -796.543654

                     E (Thermal)             CV                S
                      KCal/Mol        Cal/Mol-Kelvin    Cal/Mol-Kelvin
 Total                  172.670             57.663            124.109
 Electronic               0.000              0.000              0.000
 Translational            0.889              2.981             42.163
 Rotational               0.889              2.981             32.418
 Vibrational            170.893             51.702             49.527
 Vibration     1          0.594              1.981              5.229
 Vibration     2          0.596              1.977              4.740
 Vibration     3          0.600              1.961              3.826
 Vibration     4          0.605              1.944              3.338
 Vibration     5          0.606              1.942              3.276
 Vibration     6          0.609              1.932              3.099
 Vibration     7          0.614              1.916              2.838
 Vibration     8          0.619              1.899              2.627
 Vibration     9          0.626              1.878              2.424
 Vibration    10          0.635              1.848              2.185
 Vibration    11          0.668              1.748              1.671
 Vibration    12          0.697              1.662              1.383
 Vibration    13          0.702              1.647              1.343
 Vibration    14          0.714              1.612              1.252
 Vibration    15          0.727              1.576              1.168
 Vibration    16          0.772              1.454              0.935
 Vibration    17          0.796              1.394              0.843
 Vibration    18          0.815              1.345              0.775
 Vibration    19          0.887              1.178              0.582
 Vibration    20          0.905              1.140              0.544
 Vibration    21          0.959              1.031              0.449

 Optimization completed.
    -- Stationary point found.
 Normal termination of Gaussian 09 at Thu Jul 29 07:18:17 2021.
