 Gaussian 09, Revision D.01,
 Gaussian 09:  ES64L-G09RevD.01 24-Apr-2013

 ----------------------------------------------------------------------
 # B3LYP/6-311G(2df,2pd) guess=read geom=checkpoint opt=readfc freq=nor
 aman nosymm integral(ultrafinegrid)
 ----------------------------------------------------------------------

 ------------------------------------------------------------
 Candidate Structure: Conf:628 OPT and FREQ calc in gas phase
 ------------------------------------------------------------
 Structure from the checkpoint file:  "conf-628.chk"
 Charge =  1 Multiplicity = 1

 SCF Done:  E(RB3LYP) =  -796.749499383     A.U. after   11 cycles
 SCF Done:  E(RB3LYP) =  -796.750215676     A.U. after   10 cycles
 SCF Done:  E(RB3LYP) =  -796.750224653     A.U. after   10 cycles
 SCF Done:  E(RB3LYP) =  -796.750226070     A.U. after    9 cycles
 SCF Done:  E(RB3LYP) =  -796.750226232     A.U. after    7 cycles
 SCF Done:  E(RB3LYP) =  -796.750226241     A.U. after    6 cycles
 Optimization completed.
    -- Stationary point found.
 Normal termination of Gaussian 09 at Thu Jul 29 03:03:22 2021.

 ----------------------------------------------------------------------
 #N Geom=AllCheck Guess=TCheck SCRF=Check GenChk RB3LYP/6-311G(2df,2pd)
  Freq
 ----------------------------------------------------------------------

 Structure from the checkpoint file:  "conf-628.chk"
 ------------------------------------------------------------
 Candidate Structure: Conf:628 OPT and FREQ calc in gas phase
 ------------------------------------------------------------
 Charge =  1 Multiplicity = 1

                          Input orientation:
 ---------------------------------------------------------------------
 Center     Atomic      Atomic             Coordinates (Angstroms)
 Number     Number       Type             X           Y           Z
 ---------------------------------------------------------------------
      1          8           0       -1.454236   -0.092912   -0.871321
      2          6           0       -1.550204   -0.202380    0.366549
      3          7           0       -0.493448   -0.344014    1.153365
      4          6           0        0.879646   -0.423061    0.659074
      5          6           0        1.676843   -1.037009    1.802253
      6          8           0        2.956900   -1.253009    1.479742
      7          8           0        1.208713   -1.281274    2.883565
      8          6           0        1.437219    0.966810    0.206307
      9          6           0        2.395003    0.924944   -0.933223
     10          6           0        2.214679    1.258065   -2.251134
     11          7           0        3.370685    1.087218   -2.965011
     12          6           0        4.251774    0.654282   -2.098107
     13          7           0        3.717779    0.540812   -0.850843
     14          6           0       -2.923800   -0.136179    1.029890
     15          6           0       -4.016543   -0.723307    0.135170
     16          7           0       -3.961702   -0.067433   -1.223068
     17          1           0       -0.598687   -0.517697    2.146122
     18          1           0        0.908377   -1.094304   -0.199796
     19          1           0        3.396449   -1.641058    2.252700
     20          1           0        0.581358    1.551945   -0.123630
     21          1           0        1.854981    1.486116    1.072374
     22          1           0        1.312609    1.621441   -2.715693
     23          1           0        5.279731    0.410164   -2.309228
     24          1           0        4.179577    0.188084   -0.030871
     25          1           0       -2.932192   -0.665791    1.981525
     26          1           0       -3.139188    0.912185    1.255354
     27          1           0       -3.852562   -1.785622   -0.032411
     28          1           0       -5.005978   -0.588032    0.563262
     29          1           0       -4.360762    0.869744   -1.216209
     30          1           0       -2.892875   -0.006964   -1.407414
     31          1           0       -4.440126   -0.611481   -1.937897
 ---------------------------------------------------------------------

 SCF Done:  E(RB3LYP) =  -796.750226241     A.U. after    1 cycles

 Alpha  occ. eigenvalues --  -19.30279 -19.26232 -19.24680 -14.57990 -14.49683
 Alpha  occ. eigenvalues --  -14.44690 -14.36418 -10.44230 -10.43900 -10.40592
 Alpha  occ. eigenvalues --  -10.36318 -10.36066 -10.30601 -10.29882 -10.28925
 Alpha  occ. eigenvalues --  -10.26122  -1.24892  -1.21547  -1.16145  -1.15409
 Alpha  occ. eigenvalues --   -1.09844  -1.09011  -0.96445  -0.95377  -0.92241
 Alpha  occ. eigenvalues --   -0.85938  -0.83206  -0.78768  -0.77366  -0.75329
 Alpha  occ. eigenvalues --   -0.74254  -0.72804  -0.69818  -0.68338  -0.67560
 Alpha  occ. eigenvalues --   -0.66216  -0.64619  -0.63116  -0.62288  -0.61490
 Alpha  occ. eigenvalues --   -0.60753  -0.59406  -0.58379  -0.56658  -0.56373
 Alpha  occ. eigenvalues --   -0.55420  -0.54685  -0.52964  -0.52104  -0.50776
 Alpha  occ. eigenvalues --   -0.49928  -0.49734  -0.48815  -0.46210  -0.43979
 Alpha  occ. eigenvalues --   -0.42668  -0.42079  -0.36555  -0.34727  -0.31418
 Alpha virt. eigenvalues --   -0.15898  -0.14448  -0.12798  -0.10274  -0.10123
 Alpha virt. eigenvalues --   -0.08428  -0.07581  -0.06795  -0.05441  -0.05034
 Alpha virt. eigenvalues --   -0.03761  -0.03030  -0.02681  -0.02279  -0.01845

 Mulliken charges:
               1
     1  O   -0.464233
     2  C    0.532151
     3  N   -0.307181
     4  C    0.112441
     5  C    0.552464
     6  O   -0.346569
     7  O   -0.362108
     8  C   -0.023940
     9  C    0.086691
    10  C    0.123481
    11  N   -0.338820
    12  C    0.245384
    13  N   -0.228498
    14  C   -0.101128
    15  C    0.109282
    16  N    0.066320
    17  H    0.124993
    18  H    0.041459
    19  H    0.250998
    20  H    0.021968
    21  H    0.035661
    22  H    0.006866
    23  H    0.033610
    24  H    0.103777
    25  H    0.056772
    26  H    0.065380
    27  H    0.073955
    28  H    0.073683
    29  H    0.137494
    30  H    0.188270
    31  H    0.129376
 Sum of Mulliken charges =   1.00000

 Dipole moment (field-independent basis, Debye):
    X=            -11.9071    Y=             -2.1108    Z=              2.7070  Tot=             12.3920
 Quadrupole moment (field-independent basis, Debye-Ang):
   XX=             -4.2157   YY=            -88.1071   ZZ=            -94.8930
   XY=             -4.9770   XZ=             24.5693   YZ=              2.3832

  Exact polarizability: 171.405  -3.096  93.793  -6.332 -15.417 140.382
 Approx polarizability: 219.553 -11.875 146.628  -4.396 -18.783 227.898

                      1                      2                      3
                      A                      A                      A
 Frequencies --     20.6205                33.1096                49.2401
 Red. masses --      4.6910                 4.1353                 4.7124
 Frc consts  --      0.0012                 0.0027                 0.0067
 IR Inten    --      3.5723                 9.4672                 2.6028

                      4                      5                      6
                      A                      A                      A
 Frequencies --     59.1812                72.5738                96.1240
 Red. masses --      6.0162                 4.7514                 5.2566
 Frc consts  --      0.0124                 0.0147                 0.0286
 IR Inten    --      4.9526                 3.6784                 7.1156

                      7                      8                      9
                      A                      A                      A
 Frequencies --    112.4326               132.6603               187.2815
 Red. masses --      5.0488                 5.4664                 4.8957
 Frc consts  --      0.0376                 0.0567                 0.1012
 IR Inten    --      2.1872                 0.4288                 6.4772

                     10                     11                     12
                      A                      A                      A
 Frequencies --    205.2568               264.1011               288.3214
 Red. masses --      2.1580                 5.4181                 4.1375
 Frc consts  --      0.0536                 0.2227                 0.2026
 IR Inten    --     22.9666                57.2856                 6.0842

                     13                     14                     15
                      A                      A                      A
 Frequencies --    320.6207               345.1826               386.8105
 Red. masses --      2.0583                 6.1244                 3.7447
 Frc consts  --      0.1247                 0.4299                 0.3301
 IR Inten    --      7.4904                 0.9641                 1.1134

                     16                     17                     18
                      A                      A                      A
 Frequencies --    398.1662               405.5085               454.5129
 Red. masses --      2.9290                 1.7080                 2.0107
 Frc consts  --      0.2736                 0.1655                 0.2447
 IR Inten    --    152.4848                24.1761                 4.0865

                     19                     20                     21
                      A                      A                      A
 Frequencies --    536.3081               544.6630               590.4967
 Red. masses --      1.5444                 2.5374                 2.3280
 Frc consts  --      0.2617                 0.4435                 0.4783
 IR Inten    --     61.5875                62.2788                 9.3728

                     22                     23                     24
                      A                      A                      A
 Frequencies --    608.2262               644.5187               667.8125
 Red. masses --      2.2051                 2.8746                 2.1381
 Frc consts  --      0.4806                 0.7036                 0.5618
 IR Inten    --     30.5331                71.6172                62.8349

                     25                     26                     27
                      A                      A                      A
 Frequencies --    677.6210               682.9328               732.5500
 Red. masses --      1.2426                 2.8967                 3.0611
 Frc consts  --      0.3362                 0.7960                 0.9678
 IR Inten    --     35.7749                14.1491                13.0154

                     28                     29                     30
                      A                      A                      A
 Frequencies --    741.8184               770.4746               817.0205
 Red. masses --      3.1096                 4.0700                 2.6087
 Frc consts  --      1.0082                 1.4235                 1.0260
 IR Inten    --     28.4790                 8.9264                 6.9726

                     31                     32                     33
                      A                      A                      A
 Frequencies --    844.9044               849.5710               866.8850
 Red. masses --      1.4032                 2.5816                 1.4659
 Frc consts  --      0.5902                 1.0978                 0.6491
 IR Inten    --     19.4846                39.1954                11.2212

                     34                     35                     36
                      A                      A                      A
 Frequencies --    886.3884               934.2149               946.5482
 Red. masses --      2.0957                 5.7069                 2.3736
 Frc consts  --      0.9701                 2.9346                 1.2530
 IR Inten    --     87.7485                14.4331                 2.5607

                     37                     38                     39
                      A                      A                      A
 Frequencies --    951.2281               996.3017              1002.9324
 Red. masses --      1.4123                 3.9668                 3.4461
 Frc consts  --      0.7529                 2.3199                 2.0423
 IR Inten    --      4.1703                 1.1699                 3.1334

                     40                     41                     42
                      A                      A                      A
 Frequencies --   1021.7213              1029.3765              1093.5871
 Red. masses --      3.7089                 3.4598                 3.2879
 Frc consts  --      2.2812                 2.1600                 2.3167
 IR Inten    --     31.0279                13.3478                12.9857

                     43                     44                     45
                      A                      A                      A
 Frequencies --   1111.0748              1128.6621              1137.1340
 Red. masses --      1.6413                 1.4093                 1.5272
 Frc consts  --      1.1938                 1.0578                 1.1635
 IR Inten    --     32.0007               145.5910                31.7854

                     46                     47                     48
                      A                      A                      A
 Frequencies --   1151.5046              1186.8218              1192.4252
 Red. masses --      2.0194                 1.3802                 2.2227
 Frc consts  --      1.5776                 1.1454                 1.8621
 IR Inten    --     17.0268                 6.8668               175.6134

                     49                     50                     51
                      A                      A                      A
 Frequencies --   1252.8078              1267.6542              1280.2196
 Red. masses --      1.5303                 2.0152                 1.4379
 Frc consts  --      1.4151                 1.9079                 1.3885
 IR Inten    --      7.2125                 9.9799                 1.8629

                     52                     53                     54
                      A                      A                      A
 Frequencies --   1291.9913              1312.2311              1321.1573
 Red. masses --      1.3089                 1.3281                 1.2541
 Frc consts  --      1.2873                 1.3474                 1.2897
 IR Inten    --     15.0789                 0.7879                93.7731

                     55                     56                     57
                      A                      A                      A
 Frequencies --   1327.3660              1358.2833              1381.9872
 Red. masses --      1.3346                 1.4530                 1.6358
 Frc consts  --      1.3854                 1.5794                 1.8407
 IR Inten    --      9.9063                43.1232                 3.5150

                     58                     59                     60
                      A                      A                      A
 Frequencies --   1392.0004              1396.4020              1428.5607
 Red. masses --      3.3224                 1.2417                 2.2730
 Frc consts  --      3.7930                 1.4266                 2.7331
 IR Inten    --     38.4636               119.9058                84.1821

                     61                     62                     63
                      A                      A                      A
 Frequencies --   1432.3150              1458.2482              1468.9874
 Red. masses --      2.8127                 1.3193                 1.0815
 Frc consts  --      3.3998                 1.6529                 1.3750
 IR Inten    --     31.3938               526.5384                17.8237

                     64                     65                     66
                      A                      A                      A
 Frequencies --   1478.7727              1498.5427              1511.5855
 Red. masses --      1.1379                 3.3153                 1.0758
 Frc consts  --      1.4661                 4.3865                 1.4483
 IR Inten    --     10.1980                20.5278                29.6987

                     67                     68                     69
                      A                      A                      A
 Frequencies --   1567.1019              1602.8740              1630.3702
 Red. masses --      2.6878                 4.2107                 1.1670
 Frc consts  --      3.8890                 6.3738                 1.8277
 IR Inten    --    239.6770                 3.6451                32.0756

                     70                     71                     72
                      A                      A                      A
 Frequencies --   1676.2115              1702.1671              1816.0226
 Red. masses --      1.0985                 2.8959                 9.6884
 Frc consts  --      1.8184                 4.9435                18.8254
 IR Inten    --     70.7498               123.7750               288.8327

                     73                     74                     75
                      A                      A                      A
 Frequencies --   2471.2555              3035.4489              3041.0190
 Red. masses --      1.0949                 1.0694                 1.0688
 Frc consts  --      3.9395                 5.8056                 5.8237
 IR Inten    --   1241.3297                17.5374                 0.8470

                     76                     77                     78
                      A                      A                      A
 Frequencies --   3076.2485              3090.9001              3107.3773
 Red. masses --      1.0836                 1.0622                 1.0933
 Frc consts  --      6.0418                 5.9791                 6.2197
 IR Inten    --      3.9134                 1.8585                 0.4687

                     79                     80                     81
                      A                      A                      A
 Frequencies --   3108.2655              3145.0616              3232.3762
 Red. masses --      1.0942                 1.1108                 1.0961
 Frc consts  --      6.2285                 6.4734                 6.7474
 IR Inten    --      4.6775                 0.5057                 6.1001

                     82                     83                     84
                      A                      A                      A
 Frequencies --   3247.0389              3465.7715              3530.1085
 Red. masses --      1.0980                 1.0518                 1.0945
 Frc consts  --      6.8208                 7.4433                 8.0359
 IR Inten    --      0.4388                80.4749                74.2577

                     85                     86                     87
                      A                      A                      A
 Frequencies --   3534.5442              3660.2379              3727.8633
 Red. masses --      1.0782                 1.0809                 1.0643
 Frc consts  --      7.9363                 8.5323                 8.7140
 IR Inten    --    137.2888                67.7603               128.3079

 - Thermochemistry -
 -------------------
 Temperature   298.150 Kelvin.  Pressure   1.00000 Atm.
 Atom     1 has atomic number  8 and mass  15.99491

 Molecular mass:   227.11442 amu.
 Principal axes and moments of inertia in atomic units:
                           1         2         3
     Eigenvalues --  2432.822416106.396338213.65046
           X            0.97584   0.21442  -0.04199
           Y            0.12428  -0.38669   0.91380
           Z           -0.17970   0.89694   0.40400
 This molecule is an asymmetric top.
 Rotational symmetry number  1.
 Warning -- assumption of classical behavior for rotation
           may cause significant error
 Rotational temperatures (Kelvin)      0.03560     0.01418     0.01055
 Rotational constants (GHZ):           0.74183     0.29555     0.21972
 Zero-point vibrational energy     678909.5 (Joules/Mol)
                                  162.26326 (Kcal/Mol)
 Warning -- explicit consideration of  22 degrees of freedom as
           vibrations may cause significant error
 Vibrational temperatures:     29.67    47.64    70.85    85.15   104.42
          (Kelvin)            138.30   161.77   190.87   269.46   295.32
                              379.98   414.83   461.30   496.64   556.53
                              572.87   583.44   653.94   771.63   783.65
                              849.59   875.10   927.32   960.83   974.94
                              982.59  1053.97  1067.31  1108.54  1175.51
                             1215.63  1222.34  1247.25  1275.31  1344.13
                             1361.87  1368.60  1433.45  1442.99  1470.03
                             1481.04  1573.43  1598.59  1623.89  1636.08
                             1656.76  1707.57  1715.63  1802.51  1823.87
                             1841.95  1858.89  1888.01  1900.85  1909.78
                             1954.26  1988.37  2002.78  2009.11  2055.38
                             2060.78  2098.09  2113.54  2127.62  2156.07
                             2174.83  2254.71  2306.18  2345.74  2411.69
                             2449.04  2612.85  3555.58  4367.33  4375.34
                             4426.03  4447.11  4470.82  4472.10  4525.04
                             4650.66  4671.76  4986.47  5079.03  5085.41
                             5266.26  5363.56

 Zero-point correction=                           0.258583 (Hartree/Particle)
 Thermal correction to Energy=                    0.274166
 Thermal correction to Enthalpy=                  0.275111
 Thermal correction to Gibbs Free Energy=         0.212970
 Sum of electronic and zero-point Energies=           -796.491643
 Sum of electronic and thermal Energies=              -796.476060
 Sum of electronic and thermal Enthalpies=            -796.475116
 Sum of electronic and thermal Free Energies=         -796.537256

                     E (Thermal)             CV                S
                      KCal/Mol        Cal/Mol-Kelvin    Cal/Mol-Kelvin
 Total                  172.042             57.671            130.786
 Electronic               0.000              0.000              0.000
 Translational            0.889              2.981             42.163
 Rotational               0.889              2.981             33.167
 Vibrational            170.265             51.710             55.456
 Vibration     1          0.593              1.986              6.574
 Vibration     2          0.594              1.983              5.634
 Vibration     3          0.595              1.978              4.848
 Vibration     4          0.597              1.974              4.484
 Vibration     5          0.599              1.967              4.082
 Vibration     6          0.603              1.952              3.531
 Vibration     7          0.607              1.939              3.226
 Vibration     8          0.613              1.921              2.907
 Vibration     9          0.632              1.857              2.255
 Vibration    10          0.640              1.832              2.085
 Vibration    11          0.671              1.739              1.635
 Vibration    12          0.685              1.695              1.484
 Vibration    13          0.706              1.634              1.307
 Vibration    14          0.724              1.585              1.188
 Vibration    15          0.755              1.498              1.012
 Vibration    16          0.764              1.474              0.969
 Vibration    17          0.770              1.458              0.943
 Vibration    18          0.813              1.351              0.782
 Vibration    19          0.891              1.170              0.573
 Vibration    20          0.900              1.151              0.555
 Vibration    21          0.948              1.052              0.466
 Vibration    22          0.967              1.014              0.436

 Optimization completed.
    -- Stationary point found.
 Normal termination of Gaussian 09 at Thu Jul 29 06:46:03 2021.
