 Gaussian 09, Revision D.01,
 Gaussian 09:  ES64L-G09RevD.01 24-Apr-2013

 ----------------------------------------------------------------------
 # B3LYP/6-311G(2df,2pd) guess=read geom=checkpoint opt=readfc freq=nor
 aman nosymm integral(ultrafinegrid)
 ----------------------------------------------------------------------

 ------------------------------------------------------------
 Candidate Structure: Conf:719 OPT and FREQ calc in gas phase
 ------------------------------------------------------------
 Structure from the checkpoint file:  "conf-719.chk"
 Charge =  1 Multiplicity = 1

 SCF Done:  E(RB3LYP) =  -796.726247522     A.U. after    1 cycles
 SCF Done:  E(RB3LYP) =  -796.687350979     A.U. after   12 cycles
 SCF Done:  E(RB3LYP) =  -796.726247607     A.U. after    7 cycles
 SCF Done:  E(RB3LYP) =  -796.713873777     A.U. after   12 cycles
 SCF Done:  E(RB3LYP) =  -796.726251975     A.U. after    8 cycles
 SCF Done:  E(RB3LYP) =  -796.689756412     A.U. after   12 cycles
 SCF Done:  E(RB3LYP) =  -796.726541817     A.U. after    8 cycles
 SCF Done:  E(RB3LYP) =  -796.726473283     A.U. after   13 cycles
 SCF Done:  E(RB3LYP) =  -796.696577393     A.U. after   14 cycles
 SCF Done:  E(RB3LYP) =  -796.726549524     A.U. after    9 cycles
 SCF Done:  E(RB3LYP) =  -796.718582920     A.U. after   14 cycles
 SCF Done:  E(RB3LYP) =  -796.726607263     A.U. after    8 cycles
 SCF Done:  E(RB3LYP) =  -796.726613224     A.U. after    9 cycles
 SCF Done:  E(RB3LYP) =  -796.726615747     A.U. after    9 cycles
 SCF Done:  E(RB3LYP) =  -796.726616954     A.U. after    9 cycles
 SCF Done:  E(RB3LYP) =  -796.726617839     A.U. after    9 cycles
 SCF Done:  E(RB3LYP) =  -796.726618531     A.U. after    8 cycles
 SCF Done:  E(RB3LYP) =  -796.726618678     A.U. after    7 cycles
 SCF Done:  E(RB3LYP) =  -796.726618699     A.U. after    6 cycles
 Optimization completed.
    -- Stationary point found.
 Normal termination of Gaussian 09 at Sat Jul 31 02:09:08 2021.

 ----------------------------------------------------------------------
 #N Geom=AllCheck Guess=TCheck SCRF=Check GenChk RB3LYP/6-311G(2df,2pd)
  Freq
 ----------------------------------------------------------------------

 Structure from the checkpoint file:  "conf-719.chk"
 ------------------------------------------------------------
 Candidate Structure: Conf:719 OPT and FREQ calc in gas phase
 ------------------------------------------------------------
 Charge =  1 Multiplicity = 1

                          Input orientation:
 ---------------------------------------------------------------------
 Center     Atomic      Atomic             Coordinates (Angstroms)
 Number     Number       Type             X           Y           Z
 ---------------------------------------------------------------------
      1          8           0       -0.959040    0.313646    1.315169
      2          6           0       -1.364120    0.321524    0.165093
      3          7           0       -0.581421    0.289493   -0.924339
      4          6           0        0.873036    0.343436   -0.842466
      5          6           0        1.340354    0.787322   -2.220509
      6          8           0        2.669604    0.936223   -2.296169
      7          8           0        0.600454    0.971502   -3.152624
      8          6           0        1.495834   -1.017670   -0.391100
      9          6           0        2.759912   -0.919735    0.390949
     10          6           0        2.977403   -1.051200    1.738504
     11          7           0        4.306587   -0.909602    2.039554
     12          6           0        4.899598   -0.693445    0.892047
     13          7           0        4.012998   -0.694198   -0.141107
     14          6           0       -2.880240    0.358296   -0.105459
     15          6           0       -3.578111    0.394700    1.242681
     16          7           0       -5.092325    0.434826    1.071819
     17          1           0       -0.962190    0.402250   -1.854567
     18          1           0        1.162994    1.099173   -0.110240
     19          1           0        2.880497    1.223948   -3.197941
     20          1           0        0.759593   -1.483204    0.260453
     21          1           0        1.604532   -1.670933   -1.260749
     22          1           0        2.242103   -1.246396    2.501768
     23          1           0        5.954985   -0.533182    0.745611
     24          1           0        4.215556   -0.495750   -1.104985
     25          1           0       -3.171096   -0.524318   -0.680800
     26          1           0       -3.126180    1.239061   -0.704474
     27          1           0       -3.304243    1.273730    1.818239
     28          1           0       -3.352922   -0.483383    1.840251
     29          1           0       -5.433261   -0.386022    0.567636
     30          1           0       -5.563431    0.459312    1.978325
     31          1           0       -5.387241    1.260651    0.547143
 ---------------------------------------------------------------------

 SCF Done:  E(RB3LYP) =  -796.726618699     A.U. after    1 cycles

 Alpha  occ. eigenvalues --  -19.28755 -19.23130 -19.22018 -14.63793 -14.46453
 Alpha  occ. eigenvalues --  -14.43310 -14.35071 -10.42291 -10.41361 -10.41082
 Alpha  occ. eigenvalues --  -10.35475 -10.34248 -10.28743 -10.28541 -10.27424
 Alpha  occ. eigenvalues --  -10.24619  -1.23338  -1.20471  -1.17766  -1.14468
 Alpha  occ. eigenvalues --   -1.08435  -1.06033  -0.96570  -0.94021  -0.90621
 Alpha  occ. eigenvalues --   -0.85152  -0.82859  -0.79016  -0.78466  -0.77106
 Alpha  occ. eigenvalues --   -0.74225  -0.70996  -0.69126  -0.68423  -0.66168
 Alpha  occ. eigenvalues --   -0.64864  -0.64501  -0.62693  -0.60950  -0.59861
 Alpha  occ. eigenvalues --   -0.59374  -0.57631  -0.56752  -0.56289  -0.54210
 Alpha  occ. eigenvalues --   -0.53658  -0.53127  -0.51397  -0.50277  -0.49100
 Alpha  occ. eigenvalues --   -0.48168  -0.47927  -0.47369  -0.44694  -0.40749
 Alpha  occ. eigenvalues --   -0.39665  -0.39326  -0.35163  -0.33394  -0.29962
 Alpha virt. eigenvalues --   -0.18939  -0.13130  -0.12406  -0.11524  -0.10671
 Alpha virt. eigenvalues --   -0.10224  -0.07528  -0.06826  -0.05554  -0.05215
 Alpha virt. eigenvalues --   -0.04693  -0.02562  -0.02292  -0.01621  -0.01371

 Mulliken charges:
               1
     1  O   -0.408851
     2  C    0.503407
     3  N   -0.338575
     4  C    0.115171
     5  C    0.552950
     6  O   -0.347218
     7  O   -0.370045
     8  C   -0.021218
     9  C    0.085254
    10  C    0.122648
    11  N   -0.341438
    12  C    0.241430
    13  N   -0.226463
    14  C   -0.133621
    15  C    0.154494
    16  N    0.086983
    17  H    0.110382
    18  H    0.037762
    19  H    0.245382
    20  H    0.022519
    21  H    0.026144
    22  H    0.011819
    23  H    0.029163
    24  H    0.100321
    25  H    0.051780
    26  H    0.051810
    27  H    0.086019
    28  H    0.085632
    29  H    0.159285
    30  H    0.147611
    31  H    0.159464
 Sum of Mulliken charges =   1.00000

 Dipole moment (field-independent basis, Debye):
    X=            -19.4800    Y=              2.4391    Z=             -1.7948  Tot=             19.7140
 Quadrupole moment (field-independent basis, Debye-Ang):
   XX=             30.3660   YY=            -88.1486   ZZ=            -89.3672
   XY=             -4.4720   XZ=            -43.5935   YZ=              2.4228

  Exact polarizability: 178.361  -3.992  90.048  -0.060 -10.136 137.609
 Approx polarizability: 224.694   2.408 141.555   8.744 -10.555 227.760

                      1                      2                      3
                      A                      A                      A
 Frequencies --     20.7159                25.6386                38.0271
 Red. masses --      4.5679                 1.9005                 5.2658
 Frc consts  --      0.0012                 0.0007                 0.0045
 IR Inten    --      5.2217                 1.3345                 4.1374

                      4                      5                      6
                      A                      A                      A
 Frequencies --     43.5779                58.4539                76.0018
 Red. masses --      3.6109                 6.3082                 8.8491
 Frc consts  --      0.0040                 0.0127                 0.0301
 IR Inten    --     16.2030                 4.8082                 9.5128

                      7                      8                      9
                      A                      A                      A
 Frequencies --     99.4863               104.7994               128.8292
 Red. masses --      3.6139                 5.1404                 4.4140
 Frc consts  --      0.0211                 0.0333                 0.0432
 IR Inten    --      1.1138                 9.4551                 2.3205

                     10                     11                     12
                      A                      A                      A
 Frequencies --    185.0821               212.4911               225.9812
 Red. masses --      4.8513                 4.9561                 1.0648
 Frc consts  --      0.0979                 0.1318                 0.0320
 IR Inten    --      2.2095                15.7722                 0.0376

                     13                     14                     15
                      A                      A                      A
 Frequencies --    272.2931               310.1382               331.9233
 Red. masses --      5.8110                 2.6074                 3.9320
 Frc consts  --      0.2539                 0.1478                 0.2552
 IR Inten    --     21.0353                 1.5316                 2.1901

                     16                     17                     18
                      A                      A                      A
 Frequencies --    343.3355               369.8336               381.0710
 Red. masses --      6.2208                 4.0093                 4.1108
 Frc consts  --      0.4321                 0.3231                 0.3517
 IR Inten    --     19.7095                 5.0391                 7.5407

                     19                     20                     21
                      A                      A                      A
 Frequencies --    530.3570               545.6554               548.4552
 Red. masses --      1.5052                 1.7108                 3.2619
 Frc consts  --      0.2495                 0.3001                 0.5781
 IR Inten    --     67.7293                21.4346                62.8110

                     22                     23                     24
                      A                      A                      A
 Frequencies --    602.5251               639.2896               642.1796
 Red. masses --      1.8548                 1.5127                 2.5760
 Frc consts  --      0.3967                 0.3642                 0.6259
 IR Inten    --     27.7822                32.0832                30.2515

                     25                     26                     27
                      A                      A                      A
 Frequencies --    668.1103               683.4575               706.0246
 Red. masses --      2.2575                 2.9839                 4.2169
 Frc consts  --      0.5937                 0.8212                 1.2385
 IR Inten    --     59.3116                11.8349                 2.6010

                     28                     29                     30
                      A                      A                      A
 Frequencies --    742.0638               772.2671               791.3687
 Red. masses --      3.1580                 3.9940                 1.2361
 Frc consts  --      1.0246                 1.4034                 0.4561
 IR Inten    --     25.5061                 7.3386                 9.9389

                     31                     32                     33
                      A                      A                      A
 Frequencies --    816.8910               840.2546               869.7160
 Red. masses --      2.5806                 1.4073                 1.4782
 Frc consts  --      1.0146                 0.5854                 0.6588
 IR Inten    --     13.9021                17.6617                13.3504

                     34                     35                     36
                      A                      A                      A
 Frequencies --    877.3567               919.0670               924.3870
 Red. masses --      3.0461                 1.2676                 3.5524
 Frc consts  --      1.3815                 0.6309                 1.7885
 IR Inten    --     35.2163                 3.7359                22.8936

                     37                     38                     39
                      A                      A                      A
 Frequencies --    935.2866               973.1594              1003.2820
 Red. masses --      5.7023                 2.0224                 4.8221
 Frc consts  --      2.9389                 1.1284                 2.8598
 IR Inten    --     13.4198                16.8752                 2.7657

                     40                     41                     42
                      A                      A                      A
 Frequencies --   1008.1270              1028.0727              1088.7960
 Red. masses --      3.0834                 3.6638                 3.5510
 Frc consts  --      1.8464                 2.2815                 2.4803
 IR Inten    --     35.7892                14.5138                57.3282

                     43                     44                     45
                      A                      A                      A
 Frequencies --   1100.7807              1111.4385              1142.3713
 Red. masses --      1.5231                 1.6284                 2.2813
 Frc consts  --      1.0874                 1.1852                 1.7541
 IR Inten    --      4.3319                28.0044                 4.8424

                     46                     47                     48
                      A                      A                      A
 Frequencies --   1150.1577              1185.4586              1191.5910
 Red. masses --      2.0761                 1.3562                 2.3852
 Frc consts  --      1.6181                 1.1229                 1.9954
 IR Inten    --     19.3272                 2.1031               175.3189

                     49                     50                     51
                      A                      A                      A
 Frequencies --   1238.7151              1265.4083              1281.3636
 Red. masses --      1.5987                 2.2927                 1.4454
 Frc consts  --      1.4453                 2.1631                 1.3982
 IR Inten    --     22.7525                 7.2174                 4.6016

                     52                     53                     54
                      A                      A                      A
 Frequencies --   1285.4775              1307.3156              1322.7290
 Red. masses --      1.3314                 1.3743                 1.2233
 Frc consts  --      1.2963                 1.3838                 1.2610
 IR Inten    --      1.4000                 8.1477                 2.7476

                     55                     56                     57
                      A                      A                      A
 Frequencies --   1338.9119              1342.5252              1358.7278
 Red. masses --      1.1171                 1.5418                 1.4848
 Frc consts  --      1.1799                 1.6372                 1.6150
 IR Inten    --      4.4783                 9.2234                33.7537

                     58                     59                     60
                      A                      A                      A
 Frequencies --   1392.3010              1404.7235              1420.0971
 Red. masses --      3.2714                 1.3286                 2.4735
 Frc consts  --      3.7364                 1.5446                 2.9390
 IR Inten    --     40.4878                18.8225                97.1324

                     61                     62                     63
                      A                      A                      A
 Frequencies --   1431.7276              1477.3738              1484.4519
 Red. masses --      2.8353                 1.1403                 1.1238
 Frc consts  --      3.4243                 1.4663                 1.4591
 IR Inten    --     27.4614                21.8691                 2.3995

                     64                     65                     66
                      A                      A                      A
 Frequencies --   1496.3112              1498.7410              1512.1053
 Red. masses --      1.0798                 3.2909                 1.1778
 Frc consts  --      1.4244                 4.3553                 1.5867
 IR Inten    --      9.1727                23.7619               184.4707

                     67                     68                     69
                      A                      A                      A
 Frequencies --   1540.0765              1603.0735              1666.2842
 Red. masses --      2.2740                 4.2173                 1.0423
 Frc consts  --      3.1778                 6.3854                 1.7051
 IR Inten    --    315.9298                 4.5403                47.1854

                     70                     71                     72
                      A                      A                      A
 Frequencies --   1669.0744              1749.6835              1811.6758
 Red. masses --      1.0451                10.0655                 9.5860
 Frc consts  --      1.7154                18.1553                18.5374
 IR Inten    --     37.7293               250.5304               274.5109

                     73                     74                     75
                      A                      A                      A
 Frequencies --   3030.2713              3031.8810              3063.5537
 Red. masses --      1.0588                 1.0700                 1.0831
 Frc consts  --      5.7282                 5.7949                 5.9893
 IR Inten    --      4.7575                19.4723                 6.7619

                     76                     77                     78
                      A                      A                      A
 Frequencies --   3071.2922              3110.6387              3115.5453
 Red. masses --      1.1047                 1.0936                 1.0594
 Frc consts  --      6.1397                 6.2345                 6.0588
 IR Inten    --      3.5686                 3.8989                 0.6963

                     79                     80                     81
                      A                      A                      A
 Frequencies --   3170.5764              3234.6259              3245.3628
 Red. masses --      1.1121                 1.0960                 1.0980
 Frc consts  --      6.5865                 6.7563                 6.8136
 IR Inten    --      0.0538                 5.2250                 0.4715

                     82                     83                     84
                      A                      A                      A
 Frequencies --   3406.7443              3484.5224              3485.2057
 Red. masses --      1.0297                 1.0929                 1.0931
 Frc consts  --      7.0409                 7.8187                 7.8225
 IR Inten    --     54.2176                84.8718                91.3570

                     85                     86                     87
                      A                      A                      A
 Frequencies --   3555.2868              3663.0737              3731.8461
 Red. masses --      1.0778                 1.0808                 1.0642
 Frc consts  --      8.0267                 8.5446                 8.7321
 IR Inten    --    114.9165                63.2219               115.6786

 - Thermochemistry -
 -------------------
 Temperature   298.150 Kelvin.  Pressure   1.00000 Atm.
 Atom     1 has atomic number  8 and mass  15.99491

 Molecular mass:   227.11442 amu.
 Principal axes and moments of inertia in atomic units:
                           1         2         3
     Eigenvalues --  2186.255977137.808149063.24078
           X            0.99010   0.00584   0.14027
           Y           -0.13126  -0.31589   0.93967
           Z           -0.04980   0.94878   0.31200
 This molecule is an asymmetric top.
 Rotational symmetry number  1.
 Warning -- assumption of classical behavior for rotation
           may cause significant error
 Rotational temperatures (Kelvin)      0.03962     0.01213     0.00956
 Rotational constants (GHZ):           0.82549     0.25284     0.19913
 Zero-point vibrational energy     679269.1 (Joules/Mol)
                                  162.34921 (Kcal/Mol)
 Warning -- explicit consideration of  22 degrees of freedom as
           vibrations may cause significant error
 Vibrational temperatures:     29.81    36.89    54.71    62.70    84.10
          (Kelvin)            109.35   143.14   150.78   185.36   266.29
                              305.73   325.14   391.77   446.22   477.56
                              493.98   532.11   548.28   763.06   785.08
                              789.10   866.90   919.79   923.95   961.26
                              983.34  1015.81  1067.66  1111.12  1138.60
                             1175.32  1208.94  1251.33  1262.32  1322.33
                             1329.99  1345.67  1400.16  1443.50  1450.47
                             1479.17  1566.53  1583.78  1599.11  1643.62
                             1654.82  1705.61  1714.43  1782.23  1820.64
                             1843.59  1849.51  1880.93  1903.11  1926.39
                             1931.59  1954.90  2003.21  2021.08  2043.20
                             2059.93  2125.61  2135.79  2152.86  2156.35
                             2175.58  2215.82  2306.46  2397.41  2401.42
                             2517.40  2606.59  4359.88  4362.20  4407.77
                             4418.90  4475.51  4482.57  4561.75  4653.90
                             4669.35  4901.54  5013.44  5014.43  5115.26
                             5270.34  5369.29

 Zero-point correction=                           0.258720 (Hartree/Particle)
 Thermal correction to Energy=                    0.275232
 Thermal correction to Enthalpy=                  0.276176
 Thermal correction to Gibbs Free Energy=         0.210878
 Sum of electronic and zero-point Energies=           -796.467899
 Sum of electronic and thermal Energies=              -796.451387
 Sum of electronic and thermal Enthalpies=            -796.450443
 Sum of electronic and thermal Free Energies=         -796.515741

                     E (Thermal)             CV                S
                      KCal/Mol        Cal/Mol-Kelvin    Cal/Mol-Kelvin
 Total                  172.711             59.132            137.432
 Electronic               0.000              0.000              0.000
 Translational            0.889              2.981             42.163
 Rotational               0.889              2.981             33.314
 Vibrational            170.933             53.171             61.955
 Vibration     1          0.593              1.986              6.564
 Vibration     2          0.593              1.985              6.141
 Vibration     3          0.594              1.982              5.359
 Vibration     4          0.595              1.980              5.089
 Vibration     5          0.596              1.974              4.509
 Vibration     6          0.599              1.965              3.992
 Vibration     7          0.604              1.949              3.464
 Vibration     8          0.605              1.945              3.363
 Vibration     9          0.611              1.924              2.963
 Vibration    10          0.631              1.860              2.277
 Vibration    11          0.644              1.822              2.022
 Vibration    12          0.650              1.801              1.911
 Vibration    13          0.675              1.724              1.582
 Vibration    14          0.699              1.654              1.362
 Vibration    15          0.714              1.612              1.251
 Vibration    16          0.722              1.589              1.197
 Vibration    17          0.742              1.534              1.080
 Vibration    18          0.751              1.511              1.035
 Vibration    19          0.885              1.183              0.586
 Vibration    20          0.901              1.149              0.553
 Vibration    21          0.904              1.143              0.547
 Vibration    22          0.961              1.026              0.445

 Optimization completed.
    -- Stationary point found.
 Normal termination of Gaussian 09 at Sat Jul 31 05:41:45 2021.
