 Gaussian 09, Revision D.01,
 Gaussian 09:  ES64L-G09RevD.01 24-Apr-2013

 ----------------------------------------------------------------------
 # B3LYP/6-311G(2df,2pd) guess=read geom=checkpoint opt=readfc freq=nor
 aman nosymm integral(ultrafinegrid)
 ----------------------------------------------------------------------

 ------------------------------------------------------------
 Candidate Structure: Conf:318 OPT and FREQ calc in gas phase
 ------------------------------------------------------------
 Structure from the checkpoint file:  "conf-318.chk"
 Charge =  1 Multiplicity = 1

 SCF Done:  E(RB3LYP) =  -796.717877164     A.U. after   11 cycles
 SCF Done:  E(RB3LYP) =  -796.718588047     A.U. after   11 cycles
 SCF Done:  E(RB3LYP) =  -796.718631336     A.U. after   11 cycles
 SCF Done:  E(RB3LYP) =  -796.718664796     A.U. after   11 cycles
 SCF Done:  E(RB3LYP) =  -796.718678217     A.U. after   10 cycles
 SCF Done:  E(RB3LYP) =  -796.718679272     A.U. after    9 cycles
 SCF Done:  E(RB3LYP) =  -796.718681044     A.U. after    9 cycles
 SCF Done:  E(RB3LYP) =  -796.718681714     A.U. after    9 cycles
 SCF Done:  E(RB3LYP) =  -796.718681723     A.U. after    6 cycles
 SCF Done:  E(RB3LYP) =  -796.718681724     A.U. after    5 cycles
 Optimization completed.
    -- Stationary point found.
 Normal termination of Gaussian 09 at Thu Jul 29 04:13:47 2021.

 ----------------------------------------------------------------------
 #N Geom=AllCheck Guess=TCheck SCRF=Check GenChk RB3LYP/6-311G(2df,2pd)
  Freq
 ----------------------------------------------------------------------

 Structure from the checkpoint file:  "conf-318.chk"
 ------------------------------------------------------------
 Candidate Structure: Conf:318 OPT and FREQ calc in gas phase
 ------------------------------------------------------------
 Charge =  1 Multiplicity = 1

                          Input orientation:
 ---------------------------------------------------------------------
 Center     Atomic      Atomic             Coordinates (Angstroms)
 Number     Number       Type             X           Y           Z
 ---------------------------------------------------------------------
      1          8           0        1.153798    0.458256    1.627089
      2          6           0        1.104057   -0.309761    0.679565
      3          7           0        0.096635   -1.150318    0.414665
      4          6           0       -1.135662   -1.224529    1.178527
      5          6           0       -1.910937   -2.418158    0.595341
      6          8           0       -3.033794   -2.770467    1.226647
      7          8           0       -1.527586   -3.019905   -0.369837
      8          6           0       -1.942197    0.094193    1.193558
      9          6           0       -2.216880    0.693888   -0.148709
     10          6           0       -2.162568    0.229176   -1.438832
     11          7           0       -2.511621    1.213925   -2.331168
     12          6           0       -2.785413    2.264305   -1.602372
     13          7           0       -2.617941    2.008845   -0.273924
     14          6           0        2.258086   -0.349147   -0.338323
     15          6           0        3.330642    0.614255    0.133934
     16          7           0        4.471969    0.682504   -0.873729
     17          1           0        0.117807   -1.774040   -0.382675
     18          1           0       -0.898065   -1.463607    2.219680
     19          1           0       -3.211822   -2.218328    1.997049
     20          1           0       -2.877090   -0.087234    1.735908
     21          1           0       -1.375811    0.800163    1.802655
     22          1           0       -1.910147   -0.760769   -1.778069
     23          1           0       -3.106974    3.225185   -1.968742
     24          1           0       -2.784603    2.653894    0.479984
     25          1           0        1.870481   -0.058479   -1.318582
     26          1           0        2.645522   -1.367382   -0.423490
     27          1           0        3.767179    0.312698    1.081636
     28          1           0        2.945737    1.623545    0.243074
     29          1           0        4.910053   -0.231403   -1.004775
     30          1           0        5.197602    1.333491   -0.567658
     31          1           0        4.139495    0.995443   -1.788230
 ---------------------------------------------------------------------

 SCF Done:  E(RB3LYP) =  -796.718681724     A.U. after    1 cycles

 Alpha  occ. eigenvalues --  -19.27838 -19.22027 -19.21977 -14.63656 -14.46357
 Alpha  occ. eigenvalues --  -14.45319 -14.37038 -10.41642 -10.41262 -10.41076
 Alpha  occ. eigenvalues --  -10.35201 -10.35173 -10.30427 -10.30219 -10.29598
 Alpha  occ. eigenvalues --  -10.26551  -1.22124  -1.20341  -1.17681  -1.14080
 Alpha  occ. eigenvalues --   -1.10384  -1.06179  -0.96488  -0.95923  -0.91402
 Alpha  occ. eigenvalues --   -0.85572  -0.83033  -0.78863  -0.78857  -0.77693
 Alpha  occ. eigenvalues --   -0.74170  -0.71076  -0.70244  -0.69051  -0.68020
 Alpha  occ. eigenvalues --   -0.67423  -0.64625  -0.63694  -0.60827  -0.60206
 Alpha  occ. eigenvalues --   -0.58360  -0.57398  -0.56547  -0.55375  -0.55036
 Alpha  occ. eigenvalues --   -0.54252  -0.53392  -0.51986  -0.50989  -0.50146
 Alpha  occ. eigenvalues --   -0.49572  -0.49196  -0.48891  -0.43499  -0.40001
 Alpha  occ. eigenvalues --   -0.39474  -0.39317  -0.37076  -0.35362  -0.31804
 Alpha virt. eigenvalues --   -0.18762  -0.12957  -0.12243  -0.11307  -0.10403
 Alpha virt. eigenvalues --   -0.09995  -0.08714  -0.07286  -0.06162  -0.05470
 Alpha virt. eigenvalues --   -0.05042  -0.04398  -0.02863  -0.02430  -0.01710

 Mulliken charges:
               1
     1  O   -0.421499
     2  C    0.523827
     3  N   -0.309005
     4  C   -0.016776
     5  C    0.560410
     6  O   -0.283673
     7  O   -0.353156
     8  C   -0.041357
     9  C    0.134375
    10  C    0.063977
    11  N   -0.347897
    12  C    0.237381
    13  N   -0.235218
    14  C   -0.132433
    15  C    0.151443
    16  N    0.089464
    17  H    0.113528
    18  H    0.049582
    19  H    0.222239
    20  H    0.026259
    21  H    0.046332
    22  H    0.029224
    23  H    0.034581
    24  H    0.112646
    25  H    0.058097
    26  H    0.053862
    27  H    0.082667
    28  H    0.084038
    29  H    0.159834
    30  H    0.145489
    31  H    0.161760
 Sum of Mulliken charges =   1.00000

 Dipole moment (field-independent basis, Debye):
    X=             15.7590    Y=              4.0619    Z=              0.8831  Tot=             16.2980
 Quadrupole moment (field-independent basis, Debye-Ang):
   XX=              1.9201   YY=            -84.4389   ZZ=            -90.1753
   XY=              1.8345   XZ=            -34.4139   YZ=             -7.2065

  Exact polarizability: 136.255   1.307 130.305  -5.534  -3.928 127.378
 Approx polarizability: 173.165  -2.728 201.734  -8.926  16.234 218.714

                      1                      2                      3
                      A                      A                      A
 Frequencies --     11.0638                24.2472                38.5064
 Red. masses --      5.1747                 1.7268                 4.0256
 Frc consts  --      0.0004                 0.0006                 0.0035
 IR Inten    --      6.8785                 0.8412                 9.3918

                      4                      5                      6
                      A                      A                      A
 Frequencies --     53.0607                60.4784                89.4124
 Red. masses --      5.7392                 5.1514                 5.4289
 Frc consts  --      0.0095                 0.0111                 0.0256
 IR Inten    --     15.0785                 4.1716                14.5160

                      7                      8                      9
                      A                      A                      A
 Frequencies --     93.2719               101.1876               152.4036
 Red. masses --      7.0429                 3.9049                 5.3930
 Frc consts  --      0.0361                 0.0236                 0.0738
 IR Inten    --      8.1376                 9.6673                 1.5372

                     10                     11                     12
                      A                      A                      A
 Frequencies --    200.8252               215.7904               226.4941
 Red. masses --      5.5223                 4.7889                 1.0715
 Frc consts  --      0.1312                 0.1314                 0.0324
 IR Inten    --     17.4472                14.9555                 0.1709

                     13                     14                     15
                      A                      A                      A
 Frequencies --    268.9995               270.4748               330.1206
 Red. masses --      3.3056                 5.3288                 3.3329
 Frc consts  --      0.1409                 0.2297                 0.2140
 IR Inten    --      0.1622                15.1785                 3.2830

                     16                     17                     18
                      A                      A                      A
 Frequencies --    337.0801               371.8833               452.9798
 Red. masses --      5.2772                 3.6306                 1.6152
 Frc consts  --      0.3533                 0.2958                 0.1953
 IR Inten    --      7.1065                26.5881                83.9830

                     19                     20                     21
                      A                      A                      A
 Frequencies --    508.9090               530.3888               549.7758
 Red. masses --      2.0567                 1.4483                 2.8846
 Frc consts  --      0.3138                 0.2400                 0.5137
 IR Inten    --     31.2947                64.7034                 8.8053

                     22                     23                     24
                      A                      A                      A
 Frequencies --    579.7270               618.2209               656.1843
 Red. masses --      2.8538                 6.2156                 2.2315
 Frc consts  --      0.5651                 1.3996                 0.5661
 IR Inten    --     35.0920                 7.5697                16.5188

                     25                     26                     27
                      A                      A                      A
 Frequencies --    658.5998               679.4976               685.4425
 Red. masses --      1.3542                 3.7427                 3.2538
 Frc consts  --      0.3461                 1.0181                 0.9007
 IR Inten    --     42.6876                 4.5141                 6.5705

                     28                     29                     30
                      A                      A                      A
 Frequencies --    717.7903               784.3502               795.5273
 Red. masses --      4.6673                 2.8439                 1.4930
 Frc consts  --      1.4168                 1.0308                 0.5567
 IR Inten    --      4.5617                 6.6732                 6.6402

                     31                     32                     33
                      A                      A                      A
 Frequencies --    840.6324               850.9017               876.9569
 Red. masses --      1.4162                 2.6953                 2.3836
 Frc consts  --      0.5897                 1.1498                 1.0801
 IR Inten    --     14.1254                10.3707                48.5641

                     34                     35                     36
                      A                      A                      A
 Frequencies --    881.5915               919.1133               925.0527
 Red. masses --      1.7949                 1.2721                 4.5712
 Frc consts  --      0.8219                 0.6331                 2.3047
 IR Inten    --      2.3372                 3.4304                 5.7383

                     37                     38                     39
                      A                      A                      A
 Frequencies --    940.1460               955.6931               982.5544
 Red. masses --      3.2772                 4.2646                 2.0106
 Frc consts  --      1.7066                 2.2949                 1.1436
 IR Inten    --     21.7533                10.9578                26.0395

                     40                     41                     42
                      A                      A                      A
 Frequencies --   1022.4618              1040.3127              1103.3428
 Red. masses --      3.7980                 2.3856                 1.5476
 Frc consts  --      2.3394                 1.5212                 1.1100
 IR Inten    --      6.5891                13.9232                 3.8230

                     43                     44                     45
                      A                      A                      A
 Frequencies --   1110.0510              1112.2294              1150.3353
 Red. masses --      2.2626                 1.7921                 2.3496
 Frc consts  --      1.6426                 1.3062                 1.8319
 IR Inten    --     18.9266                15.5330                 6.7213

                     46                     47                     48
                      A                      A                      A
 Frequencies --   1153.0121              1192.7974              1211.4999
 Red. masses --      2.6113                 1.7514                 1.8782
 Frc consts  --      2.0454                 1.4681                 1.6242
 IR Inten    --     13.3983                16.8216                11.7455

                     49                     50                     51
                      A                      A                      A
 Frequencies --   1235.8232              1257.4081              1273.5329
 Red. masses --      1.3345                 1.3656                 1.8226
 Frc consts  --      1.2008                 1.2721                 1.7416
 IR Inten    --      8.6336                45.1187                34.1600

                     52                     53                     54
                      A                      A                      A
 Frequencies --   1289.2414              1292.7731              1308.8071
 Red. masses --      1.3276                 1.4973                 1.6512
 Frc consts  --      1.3001                 1.4743                 1.6665
 IR Inten    --      1.5804                46.2613               224.7869

                     55                     56                     57
                      A                      A                      A
 Frequencies --   1332.4528              1339.2276              1363.2429
 Red. masses --      1.4876                 1.1274                 2.6256
 Frc consts  --      1.5561                 1.1913                 2.8750
 IR Inten    --     50.3962                11.5478                60.3722

                     58                     59                     60
                      A                      A                      A
 Frequencies --   1396.3703              1404.2051              1421.3034
 Red. masses --      1.9013                 1.3482                 1.9345
 Frc consts  --      2.1843                 1.5663                 2.3025
 IR Inten    --    136.9630                32.5216                18.1082

                     61                     62                     63
                      A                      A                      A
 Frequencies --   1428.6704              1485.0366              1486.2090
 Red. masses --      2.5666                 1.1255                 1.3325
 Frc consts  --      3.0866                 1.4624                 1.7341
 IR Inten    --     24.1855                 1.3191                26.0817

                     64                     65                     66
                      A                      A                      A
 Frequencies --   1497.9252              1505.2046              1512.7719
 Red. masses --      1.0783                 2.4289                 1.1770
 Frc consts  --      1.4255                 3.2423                 1.5869
 IR Inten    --     10.7421                 4.0573               173.9326

                     67                     68                     69
                      A                      A                      A
 Frequencies --   1546.1122              1604.5362              1665.7763
 Red. masses --      2.3293                 3.9938                 1.0421
 Frc consts  --      3.2806                 6.0581                 1.7037
 IR Inten    --    319.1659                11.2268                46.2539

                     70                     71                     72
                      A                      A                      A
 Frequencies --   1669.3425              1749.8627              1836.7982
 Red. masses --      1.0452                 9.9808                 9.6463
 Frc consts  --      1.7160                18.0062                19.1750
 IR Inten    --     37.8221               276.3988               156.2594

                     73                     74                     75
                      A                      A                      A
 Frequencies --   2998.0516              3027.0949              3030.1642
 Red. masses --      1.0722                 1.0831                 1.0593
 Frc consts  --      5.6781                 5.8474                 5.7307
 IR Inten    --     35.1755                18.8297                 4.1208

                     76                     77                     78
                      A                      A                      A
 Frequencies --   3069.1849              3072.2206              3113.5388
 Red. masses --      1.0882                 1.1046                 1.0594
 Frc consts  --      6.0394                 6.1426                 6.0509
 IR Inten    --      2.5294                 2.5886                 0.8052

                     79                     80                     81
                      A                      A                      A
 Frequencies --   3169.0214              3245.0863              3249.1061
 Red. masses --      1.1119                 1.0951                 1.0991
 Frc consts  --      6.5789                 6.7947                 6.8362
 IR Inten    --      0.0746                 1.0028                 1.8755

                     82                     83                     84
                      A                      A                      A
 Frequencies --   3406.0490              3482.3539              3486.1210
 Red. masses --      1.0297                 1.0929                 1.0931
 Frc consts  --      7.0383                 7.8087                 7.8269
 IR Inten    --     48.9440                85.2676                90.1398

                     85                     86                     87
                      A                      A                      A
 Frequencies --   3537.5548              3642.2079              3797.7017
 Red. masses --      1.0778                 1.0812                 1.0660
 Frc consts  --      7.9468                 8.4506                 9.0586
 IR Inten    --    131.1268                55.0048                57.9194

 - Thermochemistry -
 -------------------
 Temperature   298.150 Kelvin.  Pressure   1.00000 Atm.
 Atom     1 has atomic number  8 and mass  15.99491

 Molecular mass:   227.11442 amu.
 Principal axes and moments of inertia in atomic units:
                           1         2         3
     Eigenvalues --  2999.788375304.039456905.85481
           X            0.99088  -0.11289  -0.07353
           Y            0.13404   0.88127   0.45322
           Z            0.01364  -0.45894   0.88836
 This molecule is an asymmetric top.
 Rotational symmetry number  1.
 Warning -- assumption of classical behavior for rotation
           may cause significant error
 Rotational temperatures (Kelvin)      0.02887     0.01633     0.01254
 Rotational constants (GHZ):           0.60162     0.34026     0.26133
 Zero-point vibrational energy     679236.5 (Joules/Mol)
                                  162.34141 (Kcal/Mol)
 Warning -- explicit consideration of  23 degrees of freedom as
           vibrations may cause significant error
 Vibrational temperatures:     15.92    34.89    55.40    76.34    87.01
          (Kelvin)            128.64   134.20   145.59   219.27   288.94
                              310.47   325.87   387.03   389.15   474.97
                              484.98   535.06   651.74   732.21   763.11
                              791.00   834.10   889.48   944.10   947.58
                              977.64   986.20  1032.74  1128.50  1144.58
                             1209.48  1224.26  1261.74  1268.41  1322.40
                             1330.94  1352.66  1375.03  1413.67  1471.09
                             1496.78  1587.46  1597.11  1600.25  1655.07
                             1658.93  1716.17  1743.08  1778.07  1809.13
                             1832.33  1854.93  1860.01  1883.08  1917.10
                             1926.85  1961.40  2009.06  2020.34  2044.94
                             2055.54  2136.63  2138.32  2155.18  2165.65
                             2176.54  2224.51  2308.57  2396.68  2401.81
                             2517.66  2642.74  4313.52  4355.31  4359.73
                             4415.87  4420.23  4479.68  4559.51  4668.95
                             4674.73  4900.54  5010.32  5015.74  5089.75
                             5240.32  5464.04

 Zero-point correction=                           0.258708 (Hartree/Particle)
 Thermal correction to Energy=                    0.275180
 Thermal correction to Enthalpy=                  0.276124
 Thermal correction to Gibbs Free Energy=         0.210740
 Sum of electronic and zero-point Energies=           -796.459974
 Sum of electronic and thermal Energies=              -796.443502
 Sum of electronic and thermal Enthalpies=            -796.442558
 Sum of electronic and thermal Free Energies=         -796.507941

                     E (Thermal)             CV                S
                      KCal/Mol        Cal/Mol-Kelvin    Cal/Mol-Kelvin
 Total                  172.678             59.144            137.611
 Electronic               0.000              0.000              0.000
 Translational            0.889              2.981             42.163
 Rotational               0.889              2.981             33.063
 Vibrational            170.900             53.182             62.385
 Vibration     1          0.593              1.987              7.810
 Vibration     2          0.593              1.985              6.252
 Vibration     3          0.594              1.981              5.334
 Vibration     4          0.596              1.976              4.700
 Vibration     5          0.597              1.973              4.442
 Vibration     6          0.602              1.957              3.673
 Vibration     7          0.602              1.954              3.590
 Vibration     8          0.604              1.948              3.431
 Vibration     9          0.619              1.900              2.642
 Vibration    10          0.638              1.839              2.126
 Vibration    11          0.645              1.817              1.994
 Vibration    12          0.650              1.801              1.907
 Vibration    13          0.673              1.730              1.603
 Vibration    14          0.674              1.728              1.593
 Vibration    15          0.713              1.615              1.259
 Vibration    16          0.718              1.601              1.226
 Vibration    17          0.744              1.530              1.072
 Vibration    18          0.812              1.354              0.787
 Vibration    19          0.864              1.230              0.636
 Vibration    20          0.885              1.183              0.586
 Vibration    21          0.905              1.140              0.545
 Vibration    22          0.936              1.075              0.486
 Vibration    23          0.978              0.993              0.419

 Optimization completed.
    -- Stationary point found.
 Normal termination of Gaussian 09 at Thu Jul 29 08:04:50 2021.
