 Gaussian 09, Revision D.01,
 Gaussian 09:  ES64L-G09RevD.01 24-Apr-2013

 ----------------------------------------------------------------------
 # B3LYP/6-311++G(d,p) EmpiricalDispersion=GD3BJ opt=calcfc freq=norama
 n nosymm integral(ultrafinegrid)
 ----------------------------------------------------------------------

 ------------------------------------------------------------
 Candidate Structure: Conf:318 OPT and FREQ calc in gas phase
 ------------------------------------------------------------
 Symbolic Z-matrix:
 Charge =  1 Multiplicity = 1

 SCF Done:  E(RB3LYP) =  -796.730670610     A.U. after   17 cycles
 SCF Done:  E(RB3LYP) =  -796.736791644     A.U. after   17 cycles
 SCF Done:  E(RB3LYP) =  -796.738020358     A.U. after   17 cycles
 SCF Done:  E(RB3LYP) =  -796.739990970     A.U. after   16 cycles
 SCF Done:  E(RB3LYP) =  -796.724390360     A.U. after   16 cycles
 SCF Done:  E(RB3LYP) =  -796.741924039     A.U. after   13 cycles
 SCF Done:  E(RB3LYP) =  -796.735116790     A.U. after   14 cycles
 SCF Done:  E(RB3LYP) =  -796.741929307     A.U. after   10 cycles
 SCF Done:  E(RB3LYP) =  -796.741510544     A.U. after   15 cycles
 SCF Done:  E(RB3LYP) =  -796.742794213     A.U. after   12 cycles
 SCF Done:  E(RB3LYP) =  -796.773481527     A.U. after   13 cycles
 SCF Done:  E(RB3LYP) =  -796.774068067     A.U. after   13 cycles
 SCF Done:  E(RB3LYP) =  -796.774219128     A.U. after   12 cycles
 SCF Done:  E(RB3LYP) =  -796.774228162     A.U. after   12 cycles
 SCF Done:  E(RB3LYP) =  -796.774247477     A.U. after   12 cycles
 SCF Done:  E(RB3LYP) =  -796.774273452     A.U. after   11 cycles
 SCF Done:  E(RB3LYP) =  -796.774277092     A.U. after   10 cycles
 SCF Done:  E(RB3LYP) =  -796.774278490     A.U. after   10 cycles
 SCF Done:  E(RB3LYP) =  -796.774278675     A.U. after    8 cycles
 Optimization completed.
    -- Stationary point found.
 Normal termination of Gaussian 09 at Sat Jul 24 11:21:22 2021.

 ----------------------------------------------------------------------
 #N Geom=AllCheck Guess=TCheck SCRF=Check GenChk RB3LYP/6-311++G(d,p) F
 req
 ----------------------------------------------------------------------

 Structure from the checkpoint file:  "conf-318.chk"
 ------------------------------------------------------------
 Candidate Structure: Conf:318 OPT and FREQ calc in gas phase
 ------------------------------------------------------------
 Charge =  1 Multiplicity = 1

                          Input orientation:
 ---------------------------------------------------------------------
 Center     Atomic      Atomic             Coordinates (Angstroms)
 Number     Number       Type             X           Y           Z
 ---------------------------------------------------------------------
      1          8           0        0.647660    0.628578    1.358510
      2          6           0        0.862486   -0.405127    0.742673
      3          7           0       -0.050803   -1.396790    0.601492
      4          6           0       -1.415848   -1.263633    1.059781
      5          6           0       -1.949001   -2.675535    1.323387
      6          8           0       -3.029911   -2.776721    2.113209
      7          8           0       -1.467116   -3.638325    0.794771
      8          6           0       -2.341374   -0.579314   -0.023179
      9          6           0       -1.679010    0.621135   -0.593067
     10          6           0       -0.693397    0.686909   -1.542069
     11          7           0       -0.074357    1.921857   -1.506568
     12          6           0       -0.704641    2.616441   -0.571251
     13          7           0       -1.685377    1.874895   -0.008988
     14          6           0        2.225073   -0.661013    0.088961
     15          6           0        2.998105    0.631217   -0.146559
     16          7           0        2.579080    1.353202   -1.408939
     17          1           0        0.181286   -2.278935    0.161039
     18          1           0       -1.412869   -0.656191    1.967714
     19          1           0       -3.252425   -1.939296    2.539342
     20          1           0       -2.522760   -1.300427   -0.822675
     21          1           0       -3.310153   -0.343879    0.424548
     22          1           0       -0.380903   -0.089832   -2.221894
     23          1           0       -0.486485    3.630162   -0.276730
     24          1           0       -2.275581    2.173885    0.753170
     25          1           0        2.126080   -1.251277   -0.827264
     26          1           0        2.812431   -1.271141    0.782467
     27          1           0        4.065952    0.435396   -0.236863
     28          1           0        2.820938    1.318098    0.679846
     29          1           0        2.746116    0.774342   -2.234368
     30          1           0        3.136383    2.201265   -1.528203
     31          1           0        1.530374    1.660295   -1.442093
 ---------------------------------------------------------------------

 SCF Done:  E(RB3LYP) =  -796.774278675     A.U. after    3 cycles

 Alpha  occ. eigenvalues --  -19.29715 -19.23791 -19.23075 -14.56938 -14.51319
 Alpha  occ. eigenvalues --  -14.47840 -14.45371 -10.43448 -10.41883 -10.38564
 Alpha  occ. eigenvalues --  -10.37626 -10.37080 -10.35014 -10.34192 -10.33315
 Alpha  occ. eigenvalues --  -10.32914  -1.23735  -1.18799  -1.16722  -1.15786
 Alpha  occ. eigenvalues --   -1.14164  -1.07354  -1.02512  -0.95112  -0.93390
 Alpha  occ. eigenvalues --   -0.88764  -0.83001  -0.80392  -0.76798  -0.75594
 Alpha  occ. eigenvalues --   -0.74204  -0.73279  -0.73050  -0.71653  -0.69747
 Alpha  occ. eigenvalues --   -0.67474  -0.65136  -0.63956  -0.62679  -0.61513
 Alpha  occ. eigenvalues --   -0.59701  -0.58991  -0.58130  -0.57697  -0.56405
 Alpha  occ. eigenvalues --   -0.56251  -0.55737  -0.54871  -0.53876  -0.53384
 Alpha  occ. eigenvalues --   -0.52325  -0.50967  -0.50186  -0.45060  -0.44971
 Alpha  occ. eigenvalues --   -0.43550  -0.41752  -0.40311  -0.40098  -0.37441
 Alpha virt. eigenvalues --   -0.15817  -0.14288  -0.13613  -0.12714  -0.12433
 Alpha virt. eigenvalues --   -0.12062  -0.10637  -0.10532  -0.10117  -0.09537
 Alpha virt. eigenvalues --   -0.08632  -0.08124  -0.07276  -0.07131  -0.06377

 Mulliken charges:
               1
     1  O   -0.235065
     2  C   -0.255814
     3  N    0.046937
     4  C    0.013031
     5  C   -0.130691
     6  O   -0.086634
     7  O   -0.193994
     8  C   -0.965115
     9  C    0.631119
    10  C   -0.493991
    11  N   -0.204174
    12  C    0.010931
    13  N   -0.107632
    14  C   -0.192872
    15  C   -0.509006
    16  N   -0.411213
    17  H    0.319002
    18  H    0.283538
    19  H    0.274761
    20  H    0.240716
    21  H    0.189972
    22  H    0.193452
    23  H    0.193796
    24  H    0.333527
    25  H    0.179052
    26  H    0.250999
    27  H    0.239644
    28  H    0.243605
    29  H    0.326812
    30  H    0.335499
    31  H    0.479808
 Sum of Mulliken charges =   1.00000

 Dipole moment (field-independent basis, Debye):
    X=              4.6291    Y=              5.5562    Z=             -2.0470  Tot=              7.5160
 Quadrupole moment (field-independent basis, Debye-Ang):
   XX=            -47.1516   YY=            -90.5307   ZZ=            -82.4403
   XY=             -0.2416   XZ=            -20.5758   YZ=             -0.6376

  Exact polarizability: 147.122  12.421 147.284 -18.142  -5.694 113.950
 Approx polarizability: 204.004   8.720 226.453 -30.405  18.597 183.806

                      1                      2                      3
                      A                      A                      A
 Frequencies --     49.3841                52.9425                84.9609
 Red. masses --      4.4821                 5.6272                 3.1073
 Frc consts  --      0.0064                 0.0093                 0.0132
 IR Inten    --      4.0783                 2.5374                 7.7834

                      4                      5                      6
                      A                      A                      A
 Frequencies --    101.1873               120.3583               125.7314
 Red. masses --      4.3988                 4.6374                 5.1802
 Frc consts  --      0.0265                 0.0396                 0.0482
 IR Inten    --     10.3238                 3.4312                 5.1742

                      7                      8                      9
                      A                      A                      A
 Frequencies --    141.2944               159.9687               163.2864
 Red. masses --      5.2287                 6.1735                 7.0169
 Frc consts  --      0.0615                 0.0931                 0.1102
 IR Inten    --     32.9484                 4.9626                 0.7933

                     10                     11                     12
                      A                      A                      A
 Frequencies --    262.9906               271.8090               299.9287
 Red. masses --      2.4840                 4.5517                 4.6124
 Frc consts  --      0.1012                 0.1981                 0.2445
 IR Inten    --     37.6951                73.7824                16.7748

                     13                     14                     15
                      A                      A                      A
 Frequencies --    319.5646               333.8749               351.6219
 Red. masses --      3.0122                 3.6802                 3.4368
 Frc consts  --      0.1812                 0.2417                 0.2504
 IR Inten    --      5.6292                16.1056                 0.4950

                     16                     17                     18
                      A                      A                      A
 Frequencies --    389.3746               433.1538               466.3300
 Red. masses --      2.0863                 2.1398                 1.2673
 Frc consts  --      0.1864                 0.2365                 0.1624
 IR Inten    --      1.6668                18.4236                67.2899

                     19                     20                     21
                      A                      A                      A
 Frequencies --    482.5044               523.6020               559.6581
 Red. masses --      1.5204                 1.8391                 2.7092
 Frc consts  --      0.2085                 0.2971                 0.5000
 IR Inten    --      8.9742                79.6212                12.4073

                     22                     23                     24
                      A                      A                      A
 Frequencies --    595.7466               612.5811               648.0030
 Red. masses --      1.3977                 2.0923                 3.6594
 Frc consts  --      0.2923                 0.4626                 0.9054
 IR Inten    --     95.5813                17.2255                12.8377

                     25                     26                     27
                      A                      A                      A
 Frequencies --    672.9060               682.5911               686.4129
 Red. masses --      4.2762                 2.7357                 3.2564
 Frc consts  --      1.1408                 0.7510                 0.9040
 IR Inten    --      8.5925                 3.9472                 6.0045

                     28                     29                     30
                      A                      A                      A
 Frequencies --    714.4973               771.0422               827.8998
 Red. masses --      3.5220                 5.1671                 1.7511
 Frc consts  --      1.0593                 1.8099                 0.7072
 IR Inten    --     21.3040                 6.1888                11.0791

                     31                     32                     33
                      A                      A                      A
 Frequencies --    839.8289               840.6273               867.5822
 Red. masses --      1.4180                 2.5511                 2.2618
 Frc consts  --      0.5893                 1.0622                 1.0031
 IR Inten    --     16.3007                10.3978                 1.9371

                     34                     35                     36
                      A                      A                      A
 Frequencies --    872.1447               926.3982               951.1589
 Red. masses --      2.4677                 2.0036                 1.8672
 Frc consts  --      1.1059                 1.0131                 0.9953
 IR Inten    --     17.3936                 0.2889                 9.8604

                     37                     38                     39
                      A                      A                      A
 Frequencies --    964.0296               970.2776               999.4261
 Red. masses --      3.9541                 3.7288                 2.9978
 Frc consts  --      2.1651                 2.0683                 1.7642
 IR Inten    --     11.8788                 4.2651                 3.5879

                     40                     41                     42
                      A                      A                      A
 Frequencies --   1029.0356              1037.8219              1093.8592
 Red. masses --      3.0699                 3.0242                 1.9562
 Frc consts  --      1.9153                 1.9191                 1.3791
 IR Inten    --      3.4663                16.6234                 8.2639

                     43                     44                     45
                      A                      A                      A
 Frequencies --   1119.2377              1134.3658              1143.9385
 Red. masses --      1.5352                 2.1266                 1.5659
 Frc consts  --      1.1331                 1.6123                 1.2073
 IR Inten    --      5.2699                23.0289                17.7299

                     46                     47                     48
                      A                      A                      A
 Frequencies --   1148.2747              1154.9018              1202.7023
 Red. masses --      1.4677                 1.6898                 1.6757
 Frc consts  --      1.1402                 1.3279                 1.4281
 IR Inten    --     11.1601                 3.0233                16.3799

                     49                     50                     51
                      A                      A                      A
 Frequencies --   1232.1120              1253.7531              1275.9037
 Red. masses --      1.6214                 1.6094                 1.4075
 Frc consts  --      1.4503                 1.4906                 1.3500
 IR Inten    --     79.1795                28.6471                 9.5851

                     52                     53                     54
                      A                      A                      A
 Frequencies --   1282.0366              1291.4817              1318.1989
 Red. masses --      1.8386                 1.5141                 2.0101
 Frc consts  --      1.7805                 1.4879                 2.0579
 IR Inten    --     67.2169                 3.8582               253.0470

                     55                     56                     57
                      A                      A                      A
 Frequencies --   1339.8605              1347.5177              1366.6086
 Red. masses --      1.3256                 1.3073                 1.3897
 Frc consts  --      1.4021                 1.3986                 1.5292
 IR Inten    --     47.9318                47.0682                77.0202

                     58                     59                     60
                      A                      A                      A
 Frequencies --   1391.0140              1403.7177              1424.0185
 Red. masses --      3.0885                 1.6994                 1.3835
 Frc consts  --      3.5209                 1.9729                 1.6529
 IR Inten    --     33.9277                75.9510                 8.3754

                     61                     62                     63
                      A                      A                      A
 Frequencies --   1442.9156              1460.9352              1483.6963
 Red. masses --      2.5049                 1.0890                 1.1738
 Frc consts  --      3.0727                 1.3695                 1.5224
 IR Inten    --     34.5488                17.0315                11.8874

                     64                     65                     66
                      A                      A                      A
 Frequencies --   1492.2528              1508.2553              1536.0672
 Red. masses --      1.1021                 2.9648                 2.1349
 Frc consts  --      1.4460                 3.9738                 2.9679
 IR Inten    --     21.5493                52.4550               206.0917

                     67                     68                     69
                      A                      A                      A
 Frequencies --   1575.1879              1619.8847              1660.3214
 Red. masses --      1.1707                 4.2876                 1.0390
 Frc consts  --      1.7114                 6.6287                 1.6876
 IR Inten    --    100.4793                14.3000                56.7545

                     70                     71                     72
                      A                      A                      A
 Frequencies --   1720.8294              1737.2386              1841.6744
 Red. masses --      1.0553                 8.7184                10.0956
 Frc consts  --      1.8413                15.5027                20.1748
 IR Inten    --     11.3641               221.4889               228.5562

                     73                     74                     75
                      A                      A                      A
 Frequencies --   2308.0867              3041.9836              3056.3088
 Red. masses --      1.1102                 1.0616                 1.0607
 Frc consts  --      3.4846                 5.7877                 5.8379
 IR Inten    --   2142.7832                 4.7206                10.4113

                     76                     77                     78
                      A                      A                      A
 Frequencies --   3071.5276              3078.1120              3092.9935
 Red. masses --      1.0863                 1.0975                 1.0642
 Frc consts  --      6.0384                 6.1269                 5.9981
 IR Inten    --      5.4469                 3.9184                 6.6721

                     79                     80                     81
                      A                      A                      A
 Frequencies --   3105.7435              3147.4839              3241.7067
 Red. masses --      1.1036                 1.1095                 1.0979
 Frc consts  --      6.2716                 6.4761                 6.7979
 IR Inten    --      5.7772                 0.2572                 1.0496

                     82                     83                     84
                      A                      A                      A
 Frequencies --   3263.1466              3449.3281              3506.8921
 Red. masses --      1.1006                 1.0521                 1.0922
 Frc consts  --      6.9049                 7.3749                 7.9143
 IR Inten    --      4.6061                58.9964                55.0908

                     85                     86                     87
                      A                      A                      A
 Frequencies --   3571.2825              3640.8384              3803.6290
 Red. masses --      1.0782                 1.0823                 1.0666
 Frc consts  --      8.1018                 8.4524                 9.0917
 IR Inten    --     99.4576                93.1432                63.6719

 - Thermochemistry -
 -------------------
 Temperature   298.150 Kelvin.  Pressure   1.00000 Atm.
 Atom     1 has atomic number  8 and mass  15.99491

 Molecular mass:   227.11442 amu.
 Principal axes and moments of inertia in atomic units:
                           1         2         3
     Eigenvalues --  2119.850904599.732955860.90600
           X            0.62694   0.77607   0.06834
           Y            0.68842  -0.59292   0.41775
           Z           -0.36472   0.21486   0.90599
 This molecule is an asymmetric top.
 Rotational symmetry number  1.
 Warning -- assumption of classical behavior for rotation
           may cause significant error
 Rotational temperatures (Kelvin)      0.04086     0.01883     0.01478
 Rotational constants (GHZ):           0.85135     0.39236     0.30793
 Zero-point vibrational energy     679391.3 (Joules/Mol)
                                  162.37843 (Kcal/Mol)
 Warning -- explicit consideration of  23 degrees of freedom as
           vibrations may cause significant error
 Vibrational temperatures:     71.05    76.17   122.24   145.59   173.17
          (Kelvin)            180.90   203.29   230.16   234.93   378.38
                              391.07   431.53   459.78   480.37   505.90
                              560.22   623.21   670.94   694.22   753.35
                              805.22   857.15   881.37   932.33   968.16
                              982.10   987.59  1028.00  1109.36  1191.16
                             1208.32  1209.47  1248.26  1254.82  1332.88
                             1368.50  1387.02  1396.01  1437.95  1480.55
                             1493.19  1573.82  1610.33  1632.10  1645.87
                             1652.11  1661.64  1730.42  1772.73  1803.87
                             1835.74  1844.56  1858.15  1896.59  1927.76
                             1938.78  1966.24  2001.36  2019.63  2048.84
                             2076.03  2101.96  2134.71  2147.02  2170.04
                             2210.06  2266.34  2330.65  2388.83  2475.89
                             2499.50  2649.76  3320.82  4376.73  4397.34
                             4419.24  4428.71  4450.12  4468.47  4528.52
                             4664.09  4694.93  4962.81  5045.63  5138.27
                             5238.35  5472.57

 Zero-point correction=                           0.258766 (Hartree/Particle)
 Thermal correction to Energy=                    0.273936
 Thermal correction to Enthalpy=                  0.274880
 Thermal correction to Gibbs Free Energy=         0.216353
 Sum of electronic and zero-point Energies=           -796.515512
 Sum of electronic and thermal Energies=              -796.500343
 Sum of electronic and thermal Enthalpies=            -796.499399
 Sum of electronic and thermal Free Energies=         -796.557925

                     E (Thermal)             CV                S
                      KCal/Mol        Cal/Mol-Kelvin    Cal/Mol-Kelvin
 Total                  171.897             57.976            123.180
 Electronic               0.000              0.000              0.000
 Translational            0.889              2.981             42.163
 Rotational               0.889              2.981             32.413
 Vibrational            170.120             52.014             48.603
 Vibration     1          0.595              1.978              4.842
 Vibration     2          0.596              1.976              4.704
 Vibration     3          0.601              1.960              3.773
 Vibration     4          0.604              1.948              3.431
 Vibration     5          0.609              1.932              3.095
 Vibration     6          0.611              1.927              3.010
 Vibration     7          0.615              1.912              2.786
 Vibration     8          0.622              1.891              2.550
 Vibration     9          0.623              1.888              2.511
 Vibration    10          0.670              1.741              1.642
 Vibration    11          0.675              1.725              1.585
 Vibration    12          0.692              1.674              1.417
 Vibration    13          0.705              1.636              1.312
 Vibration    14          0.715              1.608              1.241
 Vibration    15          0.728              1.572              1.159
 Vibration    16          0.757              1.493              1.003
 Vibration    17          0.794              1.398              0.848
 Vibration    18          0.824              1.325              0.748
 Vibration    19          0.839              1.289              0.703
 Vibration    20          0.879              1.198              0.602
 Vibration    21          0.915              1.119              0.525
 Vibration    22          0.954              1.041              0.457
 Vibration    23          0.972              1.005              0.429

 Optimization completed.
    -- Stationary point found.
 Normal termination of Gaussian 09 at Sat Jul 24 12:45:31 2021.
