 Gaussian 09, Revision D.01,
 Gaussian 09:  ES64L-G09RevD.01 24-Apr-2013

 ----------------------------------------------------------------------
 # B3LYP/6-311++G(d,p) EmpiricalDispersion=GD3BJ opt=calcfc freq=norama
 n nosymm integral(ultrafinegrid)
 ----------------------------------------------------------------------

 -----------------------------------------------------------
 Candidate Structure: Conf:55 OPT and FREQ calc in gas phase
 -----------------------------------------------------------
 Symbolic Z-matrix:
 Charge =  1 Multiplicity = 1

 SCF Done:  E(RB3LYP) =  -796.733712940     A.U. after   18 cycles
 SCF Done:  E(RB3LYP) =  -796.739602323     A.U. after   15 cycles
 SCF Done:  E(RB3LYP) =  -796.740387625     A.U. after   16 cycles
 SCF Done:  E(RB3LYP) =  -796.739732002     A.U. after   16 cycles
 SCF Done:  E(RB3LYP) =  -796.740726473     A.U. after   12 cycles
 SCF Done:  E(RB3LYP) =  -796.738590155     A.U. after   16 cycles
 SCF Done:  E(RB3LYP) =  -796.741308057     A.U. after   12 cycles
 SCF Done:  E(RB3LYP) =  -796.741602334     A.U. after   12 cycles
 SCF Done:  E(RB3LYP) =  -796.741896473     A.U. after   13 cycles
 SCF Done:  E(RB3LYP) =  -796.741983074     A.U. after   13 cycles
 SCF Done:  E(RB3LYP) =  -796.742010340     A.U. after   13 cycles
 SCF Done:  E(RB3LYP) =  -796.742017543     A.U. after   11 cycles
 SCF Done:  E(RB3LYP) =  -796.742018981     A.U. after   11 cycles
 SCF Done:  E(RB3LYP) =  -796.742020567     A.U. after   12 cycles
 SCF Done:  E(RB3LYP) =  -796.742021371     A.U. after   10 cycles
 SCF Done:  E(RB3LYP) =  -796.742021515     A.U. after   10 cycles
 Optimization completed.
    -- Stationary point found.
 Normal termination of Gaussian 09 at Sat Jul 24 03:51:07 2021.

 ----------------------------------------------------------------------
 #N Geom=AllCheck Guess=TCheck SCRF=Check GenChk RB3LYP/6-311++G(d,p) F
 req
 ----------------------------------------------------------------------

 Structure from the checkpoint file:  "conf-55.chk"
 -----------------------------------------------------------
 Candidate Structure: Conf:55 OPT and FREQ calc in gas phase
 -----------------------------------------------------------
 Charge =  1 Multiplicity = 1

                          Input orientation:
 ---------------------------------------------------------------------
 Center     Atomic      Atomic             Coordinates (Angstroms)
 Number     Number       Type             X           Y           Z
 ---------------------------------------------------------------------
      1          8           0        1.417189    0.683745    1.094284
      2          6           0        1.528581    0.120996    0.014843
      3          7           0        0.528465   -0.496610   -0.634077
      4          6           0       -0.801721   -0.639501   -0.062758
      5          6           0       -1.453160   -1.824644   -0.794689
      6          8           0       -2.633718   -2.235250   -0.338935
      7          8           0       -0.917318   -2.348322   -1.739532
      8          6           0       -1.628885    0.665788   -0.191383
      9          6           0       -2.942182    0.575733    0.519089
     10          6           0       -3.270866    0.200844    1.805071
     11          7           0       -4.634571    0.248784    1.993334
     12          6           0       -5.137529    0.645739    0.849189
     13          7           0       -4.155673    0.853777   -0.081786
     14          6           0        2.888351    0.115411   -0.711983
     15          6           0        3.978203    0.158098    0.346618
     16          7           0        5.330113    0.500049   -0.269908
     17          1           0        0.685971   -1.054143   -1.467862
     18          1           0       -0.701544   -0.881205    0.999075
     19          1           0       -2.950108   -1.667265    0.389166
     20          1           0       -1.779566    0.885131   -1.252090
     21          1           0       -1.021591    1.472133    0.226431
     22          1           0       -2.603926   -0.071374    2.609460
     23          1           0       -6.183707    0.795017    0.631738
     24          1           0       -4.293700    1.147248   -1.037159
     25          1           0        2.990261   -0.752811   -1.368059
     26          1           0        2.920448    1.016664   -1.335657
     27          1           0        3.758563    0.924840    1.088112
     28          1           0        4.104899   -0.798495    0.852671
     29          1           0        5.610923   -0.189409   -0.973575
     30          1           0        5.302427    1.415252   -0.729888
     31          1           0        6.065210    0.533781    0.443031
 ---------------------------------------------------------------------

 SCF Done:  E(RB3LYP) =  -796.742021516     A.U. after    1 cycles

 Alpha  occ. eigenvalues --  -19.27277 -19.23160 -19.22243 -14.64266 -14.47575
 Alpha  occ. eigenvalues --  -14.46733 -14.38567 -10.42206 -10.41896 -10.41819
 Alpha  occ. eigenvalues --  -10.36063 -10.35298 -10.31733 -10.31188 -10.30651
 Alpha  occ. eigenvalues --  -10.28174  -1.21895  -1.20816  -1.18701  -1.13942
 Alpha  occ. eigenvalues --   -1.11539  -1.06914  -0.97189  -0.96971  -0.92036
 Alpha  occ. eigenvalues --   -0.86364  -0.83540  -0.79333  -0.79213  -0.78030
 Alpha  occ. eigenvalues --   -0.73790  -0.72045  -0.71300  -0.69714  -0.68787
 Alpha  occ. eigenvalues --   -0.67959  -0.65476  -0.63993  -0.61116  -0.60842
 Alpha  occ. eigenvalues --   -0.58945  -0.58118  -0.56877  -0.56023  -0.54972
 Alpha  occ. eigenvalues --   -0.54553  -0.53657  -0.52869  -0.51627  -0.51360
 Alpha  occ. eigenvalues --   -0.50608  -0.49286  -0.48591  -0.43280  -0.40855
 Alpha  occ. eigenvalues --   -0.40238  -0.39477  -0.38260  -0.36265  -0.33077
 Alpha virt. eigenvalues --   -0.20283  -0.14886  -0.14339  -0.13697  -0.12265
 Alpha virt. eigenvalues --   -0.11262  -0.10774  -0.09512  -0.09231  -0.08432
 Alpha virt. eigenvalues --   -0.08355  -0.08049  -0.07288  -0.06387  -0.06113

 Mulliken charges:
               1
     1  O   -0.281635
     2  C   -0.130671
     3  N    0.042542
     4  C   -0.076420
     5  C   -0.158359
     6  O   -0.098183
     7  O   -0.249349
     8  C   -0.793984
     9  C    0.417136
    10  C   -0.440000
    11  N   -0.080132
    12  C    0.096539
    13  N   -0.099275
    14  C   -0.342853
    15  C   -0.561309
    16  N   -0.218843
    17  H    0.286568
    18  H    0.294536
    19  H    0.374215
    20  H    0.157654
    21  H    0.263099
    22  H    0.160288
    23  H    0.194555
    24  H    0.314929
    25  H    0.180267
    26  H    0.205979
    27  H    0.281833
    28  H    0.235272
    29  H    0.340986
    30  H    0.337645
    31  H    0.346969
 Sum of Mulliken charges =   1.00000

 Dipole moment (field-independent basis, Debye):
    X=             19.9973    Y=              4.1109    Z=             -3.9769  Tot=             20.7992
 Quadrupole moment (field-independent basis, Debye-Ang):
   XX=             40.9495   YY=            -97.5392   ZZ=            -98.4267
   XY=             -0.8744   XZ=              2.8522   YZ=            -11.3127

  Exact polarizability: 186.979   1.280 109.919 -12.792   6.427 128.047
 Approx polarizability: 224.202   1.518 166.844 -13.062   7.297 218.286

                      1                      2                      3
                      A                      A                      A
 Frequencies --     20.3864                27.9864                39.1891
 Red. masses --      3.5860                 4.1988                 2.0482
 Frc consts  --      0.0009                 0.0019                 0.0019
 IR Inten    --      7.0031                 4.7013                 9.0842

                      4                      5                      6
                      A                      A                      A
 Frequencies --     45.6464                65.5722                81.5832
 Red. masses --      4.3764                 7.1887                 5.0451
 Frc consts  --      0.0054                 0.0182                 0.0198
 IR Inten    --      2.5323                15.0532                 8.8487

                      7                      8                      9
                      A                      A                      A
 Frequencies --     91.9218               114.4262               120.9529
 Red. masses --      5.5845                 5.3035                 4.6878
 Frc consts  --      0.0278                 0.0409                 0.0404
 IR Inten    --      3.8716                 5.7116                 8.5345

                     10                     11                     12
                      A                      A                      A
 Frequencies --    194.6779               220.7738               240.7488
 Red. masses --      5.1680                 1.5768                 1.9703
 Frc consts  --      0.1154                 0.0453                 0.0673
 IR Inten    --      4.8952                15.7812                16.7561

                     13                     14                     15
                      A                      A                      A
 Frequencies --    271.5289               319.3341               326.6248
 Red. masses --      5.4989                 2.3314                 7.2835
 Frc consts  --      0.2389                 0.1401                 0.4578
 IR Inten    --      7.6222                 5.5480                 1.6280

                     16                     17                     18
                      A                      A                      A
 Frequencies --    349.0199               376.9621               401.2343
 Red. masses --      5.3233                 3.6547                 4.3763
 Frc consts  --      0.3821                 0.3060                 0.4151
 IR Inten    --     13.2518                13.1129                15.2700

                     19                     20                     21
                      A                      A                      A
 Frequencies --    539.6466               546.4244               583.0685
 Red. masses --      1.4119                 3.5492                 2.1592
 Frc consts  --      0.2423                 0.6244                 0.4325
 IR Inten    --     80.5929                15.1747                48.9917

                     22                     23                     24
                      A                      A                      A
 Frequencies --    618.0241               648.0465               663.0905
 Red. masses --      2.6007                 1.6750                 2.9376
 Frc consts  --      0.5853                 0.4145                 0.7610
 IR Inten    --     36.7663                 6.8807                19.1029

                     25                     26                     27
                      A                      A                      A
 Frequencies --    667.7796               678.2953               720.3205
 Red. masses --      1.4933                 2.5496                 3.9091
 Frc consts  --      0.3923                 0.6911                 1.1950
 IR Inten    --     34.2449                32.5580                 4.8866

                     28                     29                     30
                      A                      A                      A
 Frequencies --    741.7850               761.2434               795.4289
 Red. masses --      3.3835                 3.2967                 1.3972
 Frc consts  --      1.0969                 1.1256                 0.5209
 IR Inten    --      0.7069                 0.4256                10.6908

                     31                     32                     33
                      A                      A                      A
 Frequencies --    821.2281               834.5506               854.3777
 Red. masses --      2.6688                 1.4037                 1.4229
 Frc consts  --      1.0605                 0.5760                 0.6120
 IR Inten    --      1.5740                27.3912                28.0726

                     34                     35                     36
                      A                      A                      A
 Frequencies --    887.0189               918.9361               937.3995
 Red. masses --      2.6908                 1.2833                 3.5938
 Frc consts  --      1.2474                 0.6385                 1.8606
 IR Inten    --     32.9431                 4.5627                37.2240

                     37                     38                     39
                      A                      A                      A
 Frequencies --    941.9188               984.9624              1014.7349
 Red. masses --      5.6699                 2.1365                 3.0922
 Frc consts  --      2.9638                 1.2212                 1.8760
 IR Inten    --      8.3193                31.3944                 7.1218

                     40                     41                     42
                      A                      A                      A
 Frequencies --   1027.6094              1037.6998              1090.6190
 Red. masses --      3.1664                 4.0444                 1.7119
 Frc consts  --      1.9701                 2.5659                 1.1997
 IR Inten    --     14.5823                 3.2332                12.9606

                     43                     44                     45
                      A                      A                      A
 Frequencies --   1105.9541              1118.6144              1148.5355
 Red. masses --      1.6562                 2.2476                 2.2790
 Frc consts  --      1.1935                 1.6570                 1.7713
 IR Inten    --     16.0014                41.2737                18.1599

                     46                     47                     48
                      A                      A                      A
 Frequencies --   1151.9788              1173.4747              1222.0668
 Red. masses --      2.6797                 1.3797                 2.0686
 Frc consts  --      2.0952                 1.1194                 1.8202
 IR Inten    --      0.2440                 1.8730                13.2991

                     49                     50                     51
                      A                      A                      A
 Frequencies --   1235.3372              1253.0903              1277.8560
 Red. masses --      1.5485                 1.9278                 1.4457
 Frc consts  --      1.3923                 1.7836                 1.3909
 IR Inten    --     10.5088                15.3956                 0.7633

                     52                     53                     54
                      A                      A                      A
 Frequencies --   1289.2599              1311.0912              1327.9849
 Red. masses --      1.2964                 1.3615                 1.3883
 Frc consts  --      1.2696                 1.3789                 1.4425
 IR Inten    --      1.3357                17.0307                22.3504

                     55                     56                     57
                      A                      A                      A
 Frequencies --   1328.5475              1354.7845              1363.9162
 Red. masses --      1.3674                 1.3376                 1.4345
 Frc consts  --      1.4220                 1.4465                 1.5723
 IR Inten    --     52.4818                25.4095               113.6290

                     58                     59                     60
                      A                      A                      A
 Frequencies --   1399.5844              1407.5365              1415.6825
 Red. masses --      2.5195                 1.3455                 2.0535
 Frc consts  --      2.9078                 1.5706                 2.4248
 IR Inten    --     94.5899                21.4758               146.5701

                     61                     62                     63
                      A                      A                      A
 Frequencies --   1427.5199              1478.3661              1482.4136
 Red. masses --      3.2023                 1.1129                 1.9129
 Frc consts  --      3.8448                 1.4330                 2.4767
 IR Inten    --     17.2068                 1.7136                20.0827

                     64                     65                     66
                      A                      A                      A
 Frequencies --   1492.6673              1506.7767              1516.4400
 Red. masses --      1.6210                 1.0733                 1.1839
 Frc consts  --      2.1280                 1.4358                 1.6040
 IR Inten    --     16.9119                15.6145               212.7021

                     67                     68                     69
                      A                      A                      A
 Frequencies --   1538.4560              1594.8980              1664.0622
 Red. masses --      2.3804                 4.0758                 1.0419
 Frc consts  --      3.3195                 6.1084                 1.6999
 IR Inten    --    312.6158                 9.8883                47.4873

                     70                     71                     72
                      A                      A                      A
 Frequencies --   1668.0347              1743.2096              1815.9323
 Red. masses --      1.0437                 9.9211                 9.3359
 Frc consts  --      1.7110                17.7627                18.1387
 IR Inten    --     38.8856               319.5261               330.2922

                     73                     74                     75
                      A                      A                      A
 Frequencies --   3026.8769              3043.9807              3061.0085
 Red. masses --      1.0629                 1.0612                 1.0822
 Frc consts  --      5.7376                 5.7933                 5.9745
 IR Inten    --      4.0280                 8.0156                10.6523

                     76                     77                     78
                      A                      A                      A
 Frequencies --   3083.0711              3088.4999              3096.5442
 Red. masses --      1.1008                 1.1045                 1.0596
 Frc consts  --      6.1648                 6.2076                 5.9860
 IR Inten    --      5.2864                 2.8910                 4.5235

                     79                     80                     81
                      A                      A                      A
 Frequencies --   3156.9073              3228.6720              3251.2228
 Red. masses --      1.1118                 1.0968                 1.0993
 Frc consts  --      6.5283                 6.7362                 6.8465
 IR Inten    --      2.6337                 4.2332                 2.1190

                     82                     83                     84
                      A                      A                      A
 Frequencies --   3399.2782              3477.3327              3478.9093
 Red. masses --      1.0300                 1.0932                 1.0934
 Frc consts  --      7.0122                 7.7881                 7.7970
 IR Inten    --     54.3569                89.8366                90.1665

                     85                     86                     87
                      A                      A                      A
 Frequencies --   3531.5998              3588.3385              3639.4448
 Red. masses --      1.0781                 1.0674                 1.0817
 Frc consts  --      7.9222                 8.0976                 8.4420
 IR Inten    --    128.6163               421.0944                68.8969

 - Thermochemistry -
 -------------------
 Temperature   298.150 Kelvin.  Pressure   1.00000 Atm.
 Atom     1 has atomic number  8 and mass  15.99491

 Molecular mass:   227.11442 amu.
 Principal axes and moments of inertia in atomic units:
                           1         2         3
     Eigenvalues --  1617.074708127.910499122.95557
           X            0.99384   0.04967   0.09908
           Y            0.02221   0.78661  -0.61705
           Z           -0.10859   0.61545   0.78066
 This molecule is an asymmetric top.
 Rotational symmetry number  1.
 Warning -- assumption of classical behavior for rotation
           may cause significant error
 Rotational temperatures (Kelvin)      0.05356     0.01066     0.00949
 Rotational constants (GHZ):           1.11605     0.22204     0.19782
 Zero-point vibrational energy     679410.3 (Joules/Mol)
                                  162.38296 (Kcal/Mol)
 Warning -- explicit consideration of  22 degrees of freedom as
           vibrations may cause significant error
 Vibrational temperatures:     29.33    40.27    56.38    65.67    94.34
          (Kelvin)            117.38   132.25   164.63   174.02   280.10
                              317.64   346.38   390.67   459.45   469.94
                              502.16   542.36   577.29   776.43   786.18
                              838.90   889.20   932.39   954.04   960.78
                              975.91  1036.38  1067.26  1095.26  1144.44
                             1181.56  1200.73  1229.26  1276.22  1322.14
                             1348.71  1355.21  1417.14  1459.98  1478.50
                             1493.02  1569.16  1591.22  1609.43  1652.48
                             1657.44  1688.37  1758.28  1777.37  1802.92
                             1838.55  1854.96  1886.37  1910.67  1911.48
                             1949.23  1962.37  2013.69  2025.13  2036.85
                             2053.88  2127.04  2132.86  2147.61  2167.91
                             2181.82  2213.49  2294.70  2394.21  2399.93
                             2508.09  2612.72  4355.00  4379.60  4404.10
                             4435.85  4443.66  4455.23  4542.08  4645.33
                             4677.78  4890.80  5003.10  5005.37  5081.18
                             5162.81  5236.34

 Zero-point correction=                           0.258774 (Hartree/Particle)
 Thermal correction to Energy=                    0.275110
 Thermal correction to Enthalpy=                  0.276054
 Thermal correction to Gibbs Free Energy=         0.211390
 Sum of electronic and zero-point Energies=           -796.483248
 Sum of electronic and thermal Energies=              -796.466912
 Sum of electronic and thermal Enthalpies=            -796.465968
 Sum of electronic and thermal Free Energies=         -796.530632

                     E (Thermal)             CV                S
                      KCal/Mol        Cal/Mol-Kelvin    Cal/Mol-Kelvin
 Total                  172.634             58.714            136.097
 Electronic               0.000              0.000              0.000
 Translational            0.889              2.981             42.163
 Rotational               0.889              2.981             33.150
 Vibrational            170.856             52.752             60.784
 Vibration     1          0.593              1.986              6.596
 Vibration     2          0.593              1.984              5.967
 Vibration     3          0.594              1.981              5.300
 Vibration     4          0.595              1.979              4.998
 Vibration     5          0.597              1.971              4.282
 Vibration     6          0.600              1.962              3.852
 Vibration     7          0.602              1.955              3.619
 Vibration     8          0.607              1.937              3.192
 Vibration     9          0.609              1.932              3.085
 Vibration    10          0.635              1.847              2.183
 Vibration    11          0.647              1.809              1.953
 Vibration    12          0.658              1.778              1.797
 Vibration    13          0.675              1.726              1.586
 Vibration    14          0.705              1.637              1.314
 Vibration    15          0.710              1.622              1.277
 Vibration    16          0.726              1.577              1.171
 Vibration    17          0.748              1.519              1.051
 Vibration    18          0.767              1.467              0.958
 Vibration    19          0.895              1.162              0.566
 Vibration    20          0.902              1.148              0.552
 Vibration    21          0.940              1.068              0.480
 Vibration    22          0.978              0.994              0.420

 Optimization completed.
    -- Stationary point found.
 Normal termination of Gaussian 09 at Sat Jul 24 05:07:16 2021.
