 Gaussian 09, Revision D.01,
 Gaussian 09:  ES64L-G09RevD.01 24-Apr-2013

 ----------------------------------------------------------------------
 # B3LYP/6-311++G(d,p) EmpiricalDispersion=GD3BJ opt=calcfc freq=norama
 n nosymm integral(ultrafinegrid)
 ----------------------------------------------------------------------

 ------------------------------------------------------------
 Candidate Structure: Conf:885 OPT and FREQ calc in gas phase
 ------------------------------------------------------------
 Symbolic Z-matrix:
 Charge =  1 Multiplicity = 1

 SCF Done:  E(RB3LYP) =  -796.753002103     A.U. after   15 cycles
 SCF Done:  E(RB3LYP) =  -796.758359923     A.U. after   16 cycles
 SCF Done:  E(RB3LYP) =  -796.758558058     A.U. after   15 cycles
 SCF Done:  E(RB3LYP) =  -796.760354465     A.U. after   16 cycles
 SCF Done:  E(RB3LYP) =  -795.862267344     A.U. after   17 cycles
 SCF Done:  E(RB3LYP) =  -796.719617178     A.U. after   13 cycles
 SCF Done:  E(RB3LYP) =  -796.760594110     A.U. after   11 cycles
 SCF Done:  E(RB3LYP) =  -796.761042405     A.U. after   13 cycles
 SCF Done:  E(RB3LYP) =  -796.761133528     A.U. after   13 cycles
 SCF Done:  E(RB3LYP) =  -796.761400275     A.U. after   12 cycles
 SCF Done:  E(RB3LYP) =  -796.764975775     A.U. after   13 cycles
 SCF Done:  E(RB3LYP) =  -796.765403922     A.U. after    9 cycles
 SCF Done:  E(RB3LYP) =  -796.765444436     A.U. after   13 cycles
 SCF Done:  E(RB3LYP) =  -796.765499419     A.U. after   12 cycles
 SCF Done:  E(RB3LYP) =  -796.765502056     A.U. after   10 cycles
 SCF Done:  E(RB3LYP) =  -796.765503253     A.U. after   10 cycles
 SCF Done:  E(RB3LYP) =  -796.765503820     A.U. after   10 cycles
 SCF Done:  E(RB3LYP) =  -796.765503977     A.U. after   10 cycles
 SCF Done:  E(RB3LYP) =  -796.765504005     A.U. after    9 cycles
 Optimization completed.
    -- Stationary point found.
 Normal termination of Gaussian 09 at Sat Jul 24 08:37:07 2021.

 ----------------------------------------------------------------------
 #N Geom=AllCheck Guess=TCheck SCRF=Check GenChk RB3LYP/6-311++G(d,p) F
 req
 ----------------------------------------------------------------------

 Structure from the checkpoint file:  "conf-885.chk"
 ------------------------------------------------------------
 Candidate Structure: Conf:885 OPT and FREQ calc in gas phase
 ------------------------------------------------------------
 Charge =  1 Multiplicity = 1

                          Input orientation:
 ---------------------------------------------------------------------
 Center     Atomic      Atomic             Coordinates (Angstroms)
 Number     Number       Type             X           Y           Z
 ---------------------------------------------------------------------
      1          8           0       -1.428215   -0.070402   -1.389778
      2          6           0       -1.532295   -1.014965   -0.617175
      3          7           0       -0.529877   -1.458612    0.184108
      4          6           0        0.662550   -0.671313    0.483340
      5          6           0        0.271956    0.562566    1.302086
      6          8           0        1.311376    1.065594    1.942852
      7          8           0       -0.852372    1.029698    1.390332
      8          6           0        1.493927   -0.324119   -0.797340
      9          6           0        2.724640    0.467775   -0.545580
     10          6           0        2.990408    1.798715   -0.755238
     11          7           0        4.246766    2.125899   -0.303243
     12          6           0        4.751340    1.013400    0.175299
     13          7           0        3.867954   -0.026584    0.061193
     14          6           0       -2.910364   -1.623701   -0.398870
     15          6           0       -3.706090   -0.693324    0.538302
     16          7           0       -3.372536    0.761517    0.279638
     17          1           0       -0.734466   -2.228482    0.803223
     18          1           0        1.290378   -1.280625    1.135898
     19          1           0        1.057079    1.882124    2.404040
     20          1           0        1.716349   -1.284398   -1.273253
     21          1           0        0.854823    0.228632   -1.481536
     22          1           0        2.344906    2.533844   -1.212070
     23          1           0        5.735198    0.893243    0.602030
     24          1           0        4.057536   -0.987167    0.302129
     25          1           0       -3.397342   -1.687754   -1.372269
     26          1           0       -2.891790   -2.621853    0.042196
     27          1           0       -4.777817   -0.823697    0.398542
     28          1           0       -3.462598   -0.872338    1.584956
     29          1           0       -4.067440    1.386096    0.690385
     30          1           0       -2.429877    0.974423    0.684358
     31          1           0       -3.284020    0.945886   -0.726557
 ---------------------------------------------------------------------

 SCF Done:  E(RB3LYP) =  -796.765504005     A.U. after    2 cycles

 Alpha  occ. eigenvalues --  -19.32281 -19.27930 -19.24905 -14.58578 -14.50226
 Alpha  occ. eigenvalues --  -14.46404 -14.38173 -10.46884 -10.43682 -10.40700
 Alpha  occ. eigenvalues --  -10.38222 -10.35215 -10.31549 -10.31208 -10.30393
 Alpha  occ. eigenvalues --  -10.27577  -1.27362  -1.20864  -1.18242  -1.15757
 Alpha  occ. eigenvalues --   -1.11107  -1.09226  -0.96907  -0.95994  -0.92915
 Alpha  occ. eigenvalues --   -0.86673  -0.83413  -0.80430  -0.78059  -0.75429
 Alpha  occ. eigenvalues --   -0.74342  -0.73444  -0.71084  -0.69208  -0.68534
 Alpha  occ. eigenvalues --   -0.66852  -0.66271  -0.64237  -0.63273  -0.61630
 Alpha  occ. eigenvalues --   -0.61416  -0.60810  -0.58608  -0.57069  -0.56332
 Alpha  occ. eigenvalues --   -0.55512  -0.54223  -0.53791  -0.53437  -0.51745
 Alpha  occ. eigenvalues --   -0.50980  -0.50421  -0.49911  -0.48353  -0.45493
 Alpha  occ. eigenvalues --   -0.42821  -0.41538  -0.37834  -0.36000  -0.32569
 Alpha virt. eigenvalues --   -0.16999  -0.15988  -0.14745  -0.13657  -0.11743
 Alpha virt. eigenvalues --   -0.11279  -0.10428  -0.10040  -0.09119  -0.08728
 Alpha virt. eigenvalues --   -0.08109  -0.07097  -0.06673  -0.06270  -0.05618

 Mulliken charges:
               1
     1  O   -0.243619
     2  C   -0.190893
     3  N    0.079868
     4  C   -0.373462
     5  C    0.070206
     6  O   -0.056700
     7  O   -0.356551
     8  C   -0.745520
     9  C    0.514322
    10  C   -0.463747
    11  N   -0.104146
    12  C    0.089427
    13  N   -0.135520
    14  C   -0.396711
    15  C   -0.436737
    16  N   -0.391279
    17  H    0.319221
    18  H    0.269694
    19  H    0.308654
    20  H    0.221555
    21  H    0.244829
    22  H    0.154379
    23  H    0.180926
    24  H    0.302723
    25  H    0.241914
    26  H    0.208294
    27  H    0.257160
    28  H    0.231825
    29  H    0.351304
    30  H    0.503332
    31  H    0.345253
 Sum of Mulliken charges =   1.00000

 Dipole moment (field-independent basis, Debye):
    X=            -10.4897    Y=             -4.0905    Z=              4.7681  Tot=             12.2270
 Quadrupole moment (field-independent basis, Debye-Ang):
   XX=            -36.8324   YY=            -81.8223   ZZ=            -88.6576
   XY=            -14.9862   XZ=              1.5022   YZ=              2.1461

  Exact polarizability: 178.107  13.612 130.098   7.584  -0.961 109.465
 Approx polarizability: 225.966   4.338 211.340  19.016 -14.080 171.798

                      1                      2                      3
                      A                      A                      A
 Frequencies --     11.0851                38.4551                61.8850
 Red. masses --      5.3446                 4.1597                 5.0444
 Frc consts  --      0.0004                 0.0036                 0.0114
 IR Inten    --      2.6458                 3.6165                 1.9537

                      4                      5                      6
                      A                      A                      A
 Frequencies --     83.5816                89.9741               115.3579
 Red. masses --      4.2692                 5.9427                 3.7259
 Frc consts  --      0.0176                 0.0283                 0.0292
 IR Inten    --      4.3670                 8.1559                 2.4844

                      7                      8                      9
                      A                      A                      A
 Frequencies --    139.1405               168.7576               199.5599
 Red. masses --      5.4080                 4.6465                 3.6215
 Frc consts  --      0.0617                 0.0780                 0.0850
 IR Inten    --      9.9077                 8.2075                 7.3703

                     10                     11                     12
                      A                      A                      A
 Frequencies --    214.4374               245.1015               294.6045
 Red. masses --      4.1758                 3.2642                 4.8651
 Frc consts  --      0.1131                 0.1155                 0.2488
 IR Inten    --     12.8308                81.4839                 3.0823

                     13                     14                     15
                      A                      A                      A
 Frequencies --    314.6514               322.5557               332.1974
 Red. masses --      1.2973                 2.1779                 4.7780
 Frc consts  --      0.0757                 0.1335                 0.3107
 IR Inten    --      1.4578                 4.9021                 5.1468

                     16                     17                     18
                      A                      A                      A
 Frequencies --    373.3870               389.0585               443.5029
 Red. masses --      4.2282                 4.2292                 3.5378
 Frc consts  --      0.3473                 0.3772                 0.4100
 IR Inten    --      2.1640                10.9172                 3.7980

                     19                     20                     21
                      A                      A                      A
 Frequencies --    505.9617               509.0594               531.4228
 Red. masses --      1.5550                 1.5738                 1.7974
 Frc consts  --      0.2345                 0.2403                 0.2991
 IR Inten    --     53.6309                94.3490                40.5485

                     22                     23                     24
                      A                      A                      A
 Frequencies --    604.8908               613.1767               662.9608
 Red. masses --      1.9269                 1.8713                 2.7261
 Frc consts  --      0.4154                 0.4145                 0.7060
 IR Inten    --     67.4379                55.5054                32.9646

                     25                     26                     27
                      A                      A                      A
 Frequencies --    674.0729               706.1417               745.2709
 Red. masses --      3.2090                 4.0435                 3.3627
 Frc consts  --      0.8591                 1.1879                 1.1004
 IR Inten    --     14.1728                 1.9206                31.7987

                     28                     29                     30
                      A                      A                      A
 Frequencies --    759.0743               783.7618               790.8525
 Red. masses --      3.1251                 3.0177                 3.2112
 Frc consts  --      1.0609                 1.0922                 1.1833
 IR Inten    --      2.8836                25.6825                14.3982

                     31                     32                     33
                      A                      A                      A
 Frequencies --    827.6637               843.0705               856.3184
 Red. masses --      1.4003                 2.3007                 1.4489
 Frc consts  --      0.5652                 0.9635                 0.6260
 IR Inten    --     21.8494                10.8833                12.1655

                     34                     35                     36
                      A                      A                      A
 Frequencies --    868.3047               923.7696               937.9902
 Red. masses --      2.7604                 2.1374                 5.7625
 Frc consts  --      1.2262                 1.0747                 2.9872
 IR Inten    --     16.6961                 9.1626                 8.5814

                     37                     38                     39
                      A                      A                      A
 Frequencies --    972.1482               982.5457              1008.0781
 Red. masses --      1.4969                 2.6827                 3.3411
 Frc consts  --      0.8335                 1.5259                 2.0004
 IR Inten    --     16.2803                 1.6869                 5.5341

                     40                     41                     42
                      A                      A                      A
 Frequencies --   1016.7975              1035.0837              1072.2967
 Red. masses --      3.7431                 3.5038                 1.8417
 Frc consts  --      2.2801                 2.2118                 1.2476
 IR Inten    --      4.9575                 4.1216                14.4557

                     43                     44                     45
                      A                      A                      A
 Frequencies --   1104.2201              1121.6887              1141.7556
 Red. masses --      1.6577                 1.4547                 1.7394
 Frc consts  --      1.1908                 1.0784                 1.3360
 IR Inten    --     21.5258                33.4328                 4.7957

                     46                     47                     48
                      A                      A                      A
 Frequencies --   1149.4277              1181.1539              1198.0591
 Red. masses --      2.0904                 1.4141                 2.1063
 Frc consts  --      1.6272                 1.1623                 1.7812
 IR Inten    --     25.1152                27.5171               141.1418

                     49                     50                     51
                      A                      A                      A
 Frequencies --   1239.9267              1265.3960              1276.3061
 Red. masses --      1.5641                 2.2710                 1.3577
 Frc consts  --      1.4168                 2.1425                 1.3031
 IR Inten    --     16.5218                15.8861                 2.1268

                     52                     53                     54
                      A                      A                      A
 Frequencies --   1309.3071              1314.5614              1324.6104
 Red. masses --      1.5873                 1.3939                 1.3689
 Frc consts  --      1.6032                 1.4192                 1.4152
 IR Inten    --     67.7951                 3.8145                18.3800

                     55                     56                     57
                      A                      A                      A
 Frequencies --   1329.4590              1352.8330              1367.8011
 Red. masses --      1.3552                 1.5324                 1.2753
 Frc consts  --      1.4112                 1.6524                 1.4057
 IR Inten    --     41.3618                17.1135                10.8400

                     58                     59                     60
                      A                      A                      A
 Frequencies --   1391.1275              1415.7403              1425.5950
 Red. masses --      3.1749                 1.3055                 2.7939
 Frc consts  --      3.6200                 1.5417                 3.3454
 IR Inten    --     21.6443                 3.3743                25.8273

                     61                     62                     63
                      A                      A                      A
 Frequencies --   1434.8458              1489.1300              1490.1635
 Red. masses --      2.3477                 1.9348                 1.1008
 Frc consts  --      2.8478                 2.5278                 1.4402
 IR Inten    --     28.4525                26.7748                17.0673

                     64                     65                     66
                      A                      A                      A
 Frequencies --   1503.0646              1509.6314              1549.9957
 Red. masses --      1.5128                 1.0814                 1.8618
 Frc consts  --      2.0137                 1.4521                 2.6354
 IR Inten    --     11.0055                11.7963               218.7014

                     67                     68                     69
                      A                      A                      A
 Frequencies --   1563.8609              1609.1203              1622.0768
 Red. masses --      1.1681                 4.5535                 1.1006
 Frc consts  --      1.6831                 6.9467                 1.7062
 IR Inten    --    111.3385                 3.7138                25.0970

                     70                     71                     72
                      A                      A                      A
 Frequencies --   1682.9896              1727.8914              1757.3798
 Red. masses --      1.1427                 5.3025                 5.5166
 Frc consts  --      1.9071                 9.3275                10.0381
 IR Inten    --     79.8037               359.0195               393.2807

                     73                     74                     75
                      A                      A                      A
 Frequencies --   3041.1723              3042.5458              3073.4668
 Red. masses --      1.0743                 1.0739                 1.0603
 Frc consts  --      5.8542                 5.8571                 5.9011
 IR Inten    --    386.0692               565.2390                 1.5243

                     76                     77                     78
                      A                      A                      A
 Frequencies --   3086.0632              3093.1301              3123.6412
 Red. masses --      1.0851                 1.0609                 1.1062
 Frc consts  --      6.0888                 5.9805                 6.3593
 IR Inten    --      3.7349                 7.0797                 1.4856

                     79                     80                     81
                      A                      A                      A
 Frequencies --   3146.5363              3149.9974              3229.5522
 Red. masses --      1.0921                 1.1107                 1.0971
 Frc consts  --      6.3706                 6.4931                 6.7421
 IR Inten    --      2.4717                 0.5167                 4.0058

                     82                     83                     84
                      A                      A                      A
 Frequencies --   3247.4094              3403.6967              3508.3350
 Red. masses --      1.0990                 1.0603                 1.0869
 Frc consts  --      6.8287                 7.2376                 7.8819
 IR Inten    --      1.4253                62.3247               103.1118

                     85                     86                     87
                      A                      A                      A
 Frequencies --   3620.9511              3643.0081              3730.3883
 Red. masses --      1.0784                 1.0813                 1.0648
 Frc consts  --      8.3304                 8.4550                 8.7306
 IR Inten    --     43.4728                53.0000               120.6788

 - Thermochemistry -
 -------------------
 Temperature   298.150 Kelvin.  Pressure   1.00000 Atm.
 Atom     1 has atomic number  8 and mass  15.99491

 Molecular mass:   227.11442 amu.
 Principal axes and moments of inertia in atomic units:
                           1         2         3
     Eigenvalues --  1379.362526539.085636902.54896
           X            0.97173  -0.15948   0.17407
           Y            0.23573   0.69557  -0.67869
           Z           -0.01285   0.70054   0.71350
 This molecule is an asymmetric top.
 Rotational symmetry number  1.
 Warning -- assumption of classical behavior for rotation
           may cause significant error
 Rotational temperatures (Kelvin)      0.06279     0.01325     0.01255
 Rotational constants (GHZ):           1.30839     0.27599     0.26146
 Zero-point vibrational energy     682212.5 (Joules/Mol)
                                  163.05269 (Kcal/Mol)
 Warning -- explicit consideration of  23 degrees of freedom as
           vibrations may cause significant error
 Vibrational temperatures:     15.95    55.33    89.04   120.26   129.45
          (Kelvin)            165.97   200.19   242.80   287.12   308.53
                              352.65   423.87   452.71   464.09   477.96
                              537.22   559.77   638.10   727.97   732.42
                              764.60   870.30   882.22   953.85   969.84
                             1015.98  1072.28  1092.14  1127.66  1137.86
                             1190.82  1212.99  1232.05  1249.30  1329.10
                             1349.56  1398.70  1413.66  1450.40  1462.94
                             1489.25  1542.79  1588.72  1613.86  1642.73
                             1653.77  1699.41  1723.74  1783.98  1820.62
                             1836.32  1883.80  1891.36  1905.82  1912.79
                             1946.42  1967.96  2001.52  2036.93  2051.11
                             2064.42  2142.52  2144.01  2162.57  2172.02
                             2230.10  2250.04  2315.16  2333.80  2421.44
                             2486.05  2528.47  4375.56  4377.54  4422.03
                             4440.15  4450.32  4494.22  4527.16  4532.14
                             4646.60  4672.29  4897.15  5047.71  5209.73
                             5241.47  5367.19

 Zero-point correction=                           0.259841 (Hartree/Particle)
 Thermal correction to Energy=                    0.275405
 Thermal correction to Enthalpy=                  0.276350
 Thermal correction to Gibbs Free Energy=         0.215025
 Sum of electronic and zero-point Energies=           -796.505663
 Sum of electronic and thermal Energies=              -796.490099
 Sum of electronic and thermal Enthalpies=            -796.489154
 Sum of electronic and thermal Free Energies=         -796.550479

                     E (Thermal)             CV                S
                      KCal/Mol        Cal/Mol-Kelvin    Cal/Mol-Kelvin
 Total                  172.819             58.200            129.068
 Electronic               0.000              0.000              0.000
 Translational            0.889              2.981             42.163
 Rotational               0.889              2.981             32.498
 Vibrational            171.042             52.239             54.406
 Vibration     1          0.593              1.987              7.806
 Vibration     2          0.594              1.982              5.337
 Vibration     3          0.597              1.973              4.396
 Vibration     4          0.600              1.960              3.805
 Vibration     5          0.602              1.956              3.661
 Vibration     6          0.608              1.937              3.177
 Vibration     7          0.615              1.914              2.816
 Vibration     8          0.625              1.881              2.449
 Vibration     9          0.638              1.840              2.137
 Vibration    10          0.644              1.819              2.006
 Vibration    11          0.660              1.771              1.766
 Vibration    12          0.689              1.684              1.447
 Vibration    13          0.702              1.646              1.338
 Vibration    14          0.708              1.630              1.297
 Vibration    15          0.714              1.611              1.249
 Vibration    16          0.745              1.527              1.066
 Vibration    17          0.757              1.494              1.004
 Vibration    18          0.803              1.375              0.816
 Vibration    19          0.861              1.237              0.643
 Vibration    20          0.864              1.230              0.636
 Vibration    21          0.886              1.180              0.584
 Vibration    22          0.963              1.021              0.441
 Vibration    23          0.972              1.004              0.428

 Optimization completed.
    -- Stationary point found.
 Normal termination of Gaussian 09 at Sat Jul 24 09:54:56 2021.
