 Gaussian 09, Revision D.01,
 Gaussian 09:  ES64L-G09RevD.01 24-Apr-2013

 ----------------------------------------------------------------------
 # B3LYP/6-311++G(d,p) EmpiricalDispersion=GD3BJ opt=calcfc freq=norama
 n nosymm integral(ultrafinegrid)
 ----------------------------------------------------------------------

 ------------------------------------------------------------
 Candidate Structure: Conf:719 OPT and FREQ calc in gas phase
 ------------------------------------------------------------
 Symbolic Z-matrix:
 Charge =  1 Multiplicity = 1

 SCF Done:  E(RB3LYP) =  -796.734363065     A.U. after   17 cycles
 SCF Done:  E(RB3LYP) =  -796.741889560     A.U. after   15 cycles
 SCF Done:  E(RB3LYP) =  -796.742826686     A.U. after   15 cycles
 SCF Done:  E(RB3LYP) =  -796.744097247     A.U. after   12 cycles
 SCF Done:  E(RB3LYP) =  -796.744234173     A.U. after   11 cycles
 SCF Done:  E(RB3LYP) =  -796.744247717     A.U. after   11 cycles
 SCF Done:  E(RB3LYP) =  -796.744249253     A.U. after   10 cycles
 SCF Done:  E(RB3LYP) =  -796.744249828     A.U. after   10 cycles
 SCF Done:  E(RB3LYP) =  -796.744249992     A.U. after    9 cycles
 SCF Done:  E(RB3LYP) =  -796.744250015     A.U. after    8 cycles
 Optimization completed.
    -- Stationary point found.
 Normal termination of Gaussian 09 at Sat Jul 24 03:11:45 2021.

 ----------------------------------------------------------------------
 #N Geom=AllCheck Guess=TCheck SCRF=Check GenChk RB3LYP/6-311++G(d,p) F
 req
 ----------------------------------------------------------------------

 Structure from the checkpoint file:  "conf-719.chk"
 ------------------------------------------------------------
 Candidate Structure: Conf:719 OPT and FREQ calc in gas phase
 ------------------------------------------------------------
 Charge =  1 Multiplicity = 1

                          Input orientation:
 ---------------------------------------------------------------------
 Center     Atomic      Atomic             Coordinates (Angstroms)
 Number     Number       Type             X           Y           Z
 ---------------------------------------------------------------------
      1          8           0       -0.919393    0.093686    1.303404
      2          6           0       -1.344637    0.210394    0.164829
      3          7           0       -0.574861    0.323421   -0.930993
      4          6           0        0.881224    0.360035   -0.850447
      5          6           0        1.353458    0.901357   -2.189880
      6          8           0        2.688935    1.034281   -2.253349
      7          8           0        0.616694    1.164073   -3.108133
      8          6           0        1.497658   -1.037194   -0.516237
      9          6           0        2.718959   -0.990681    0.334703
     10          6           0        2.897053   -1.338361    1.652397
     11          7           0        4.200408   -1.135847    2.040355
     12          6           0        4.815108   -0.666822    0.979111
     13          7           0        3.965513   -0.562911   -0.087101
     14          6           0       -2.865893    0.193895   -0.092850
     15          6           0       -3.550573    0.728690    1.154638
     16          7           0       -5.033323    0.374473    1.166154
     17          1           0       -0.971189    0.507654   -1.845050
     18          1           0        1.177590    1.055947   -0.060824
     19          1           0        2.913430    1.378213   -3.133253
     20          1           0        0.741817   -1.583031    0.047489
     21          1           0        1.665716   -1.592425   -1.444992
     22          1           0        2.156063   -1.725603    2.334725
     23          1           0        5.856457   -0.390347    0.918996
     24          1           0        4.175548   -0.174819   -0.992991
     25          1           0       -3.145326   -0.851885   -0.268744
     26          1           0       -3.132380    0.767759   -0.983989
     27          1           0       -3.493093    1.814072    1.230104
     28          1           0       -3.107079    0.287583    2.046384
     29          1           0       -5.166933   -0.641288    1.146849
     30          1           0       -5.492507    0.730763    2.009969
     31          1           0       -5.524224    0.764976    0.356436
 ---------------------------------------------------------------------

 SCF Done:  E(RB3LYP) =  -796.744250015     A.U. after    1 cycles

 Alpha  occ. eigenvalues --  -19.29954 -19.24455 -19.23007 -14.64171 -14.47643
 Alpha  occ. eigenvalues --  -14.44003 -14.36088 -10.43560 -10.42063 -10.41749
 Alpha  occ. eigenvalues --  -10.36011 -10.35132 -10.29403 -10.29388 -10.28248
 Alpha  occ. eigenvalues --  -10.25431  -1.24392  -1.20721  -1.18643  -1.15593
 Alpha  occ. eigenvalues --   -1.08941  -1.06902  -0.96994  -0.94595  -0.91308
 Alpha  occ. eigenvalues --   -0.85599  -0.83470  -0.79233  -0.78779  -0.77761
 Alpha  occ. eigenvalues --   -0.75088  -0.71820  -0.69542  -0.68974  -0.66712
 Alpha  occ. eigenvalues --   -0.65737  -0.64786  -0.63206  -0.61698  -0.60255
 Alpha  occ. eigenvalues --   -0.59988  -0.58497  -0.58030  -0.56065  -0.55096
 Alpha  occ. eigenvalues --   -0.54181  -0.53664  -0.52040  -0.50716  -0.49656
 Alpha  occ. eigenvalues --   -0.48735  -0.48555  -0.48011  -0.45628  -0.41605
 Alpha  occ. eigenvalues --   -0.40393  -0.40118  -0.35645  -0.33971  -0.30461
 Alpha virt. eigenvalues --   -0.20204  -0.14775  -0.14306  -0.13622  -0.12701
 Alpha virt. eigenvalues --   -0.12168  -0.10869  -0.09985  -0.09403  -0.08389
 Alpha virt. eigenvalues --   -0.07894  -0.07439  -0.06658  -0.05973  -0.05845

 Mulliken charges:
               1
     1  O   -0.270477
     2  C   -0.178160
     3  N    0.043567
     4  C   -0.358445
     5  C    0.145643
     6  O   -0.189866
     7  O   -0.252789
     8  C   -0.335907
     9  C    0.173748
    10  C   -0.367611
    11  N   -0.130167
    12  C    0.061393
    13  N   -0.145802
    14  C   -0.343269
    15  C   -0.567961
    16  N   -0.220442
    17  H    0.289954
    18  H    0.310200
    19  H    0.327676
    20  H    0.235574
    21  H    0.210517
    22  H    0.139983
    23  H    0.176559
    24  H    0.324992
    25  H    0.201465
    26  H    0.176629
    27  H    0.235625
    28  H    0.281198
    29  H    0.339074
    30  H    0.346247
    31  H    0.340854
 Sum of Mulliken charges =   1.00000

 Dipole moment (field-independent basis, Debye):
    X=            -19.5400    Y=              3.0957    Z=             -1.5295  Tot=             19.8427
 Quadrupole moment (field-independent basis, Debye-Ang):
   XX=             27.5490   YY=            -90.0169   ZZ=            -91.6300
   XY=              0.1571   XZ=            -44.9365   YZ=              3.6103

  Exact polarizability: 180.531  -1.883 100.985   2.739 -14.359 144.586
 Approx polarizability: 224.690   6.297 152.810  11.559 -20.002 231.358

                      1                      2                      3
                      A                      A                      A
 Frequencies --     24.8721                28.0295                35.4981
 Red. masses --      4.2014                 3.0537                 2.5040
 Frc consts  --      0.0015                 0.0014                 0.0019
 IR Inten    --      7.6408                 4.5451                16.1164

                      4                      5                      6
                      A                      A                      A
 Frequencies --     38.7004                63.4100                75.6745
 Red. masses --      4.4873                 6.7096                 7.7655
 Frc consts  --      0.0040                 0.0159                 0.0262
 IR Inten    --      3.3193                 2.0387                10.7338

                      7                      8                      9
                      A                      A                      A
 Frequencies --     90.9051               112.7419               126.0760
 Red. masses --      3.7646                 4.9217                 4.8152
 Frc consts  --      0.0183                 0.0369                 0.0451
 IR Inten    --      2.1745                 7.1983                 5.4499

                     10                     11                     12
                      A                      A                      A
 Frequencies --    187.8834               215.8430               238.0261
 Red. masses --      4.9452                 1.9415                 1.6244
 Frc consts  --      0.1029                 0.0533                 0.0542
 IR Inten    --      2.6256                10.2928                 3.1582

                     13                     14                     15
                      A                      A                      A
 Frequencies --    270.2899               305.1903               330.2879
 Red. masses --      5.1804                 3.0713                 3.2605
 Frc consts  --      0.2230                 0.1685                 0.2096
 IR Inten    --     18.0222                 3.5507                 3.6481

                     16                     17                     18
                      A                      A                      A
 Frequencies --    347.4700               376.0874               387.1124
 Red. masses --      6.1297                 3.7910                 3.9222
 Frc consts  --      0.4360                 0.3159                 0.3463
 IR Inten    --      9.1803                 3.0153                16.6856

                     19                     20                     21
                      A                      A                      A
 Frequencies --    532.6376               542.9463               558.1114
 Red. masses --      2.2663                 1.5030                 2.0998
 Frc consts  --      0.3788                 0.2610                 0.3854
 IR Inten    --     53.8879                80.9473                 9.6313

                     22                     23                     24
                      A                      A                      A
 Frequencies --    594.4660               637.8969               645.1799
 Red. masses --      1.6806                 2.6752                 1.9524
 Frc consts  --      0.3499                 0.6414                 0.4788
 IR Inten    --     44.9655                51.6489                12.2507

                     25                     26                     27
                      A                      A                      A
 Frequencies --    663.3699               676.8661               714.2312
 Red. masses --      2.2450                 2.6312                 3.7335
 Frc consts  --      0.5821                 0.7103                 1.1221
 IR Inten    --     84.2311                 1.4998                 3.4676

                     28                     29                     30
                      A                      A                      A
 Frequencies --    737.0138               771.6724               798.8469
 Red. masses --      3.2738                 3.0254                 1.4873
 Frc consts  --      1.0478                 1.0615                 0.5592
 IR Inten    --     23.8367                 8.0033                10.6709

                     31                     32                     33
                      A                      A                      A
 Frequencies --    821.3712               824.1215               852.3242
 Red. masses --      1.4059                 2.5844                 1.4285
 Frc consts  --      0.5588                 1.0342                 0.6114
 IR Inten    --     22.6607                11.1311                17.4077

                     34                     35                     36
                      A                      A                      A
 Frequencies --    887.2415               919.0660               927.0738
 Red. masses --      2.6274                 1.2984                 3.5497
 Frc consts  --      1.2186                 0.6462                 1.7975
 IR Inten    --     30.6830                 4.3663                22.4194

                     37                     38                     39
                      A                      A                      A
 Frequencies --    940.9213               982.7761              1004.5187
 Red. masses --      5.6605                 2.1769                 4.8777
 Frc consts  --      2.9527                 1.2388                 2.8999
 IR Inten    --     10.3149                16.7790                 5.0924

                     40                     41                     42
                      A                      A                      A
 Frequencies --   1013.0346              1031.0100              1084.1661
 Red. masses --      3.0833                 3.5008                 2.1057
 Frc consts  --      1.8643                 2.1925                 1.4583
 IR Inten    --     37.3417                14.3548                36.3666

                     43                     44                     45
                      A                      A                      A
 Frequencies --   1110.1006              1111.0957              1143.6261
 Red. masses --      1.8176                 1.7480                 2.1613
 Frc consts  --      1.3197                 1.2714                 1.6654
 IR Inten    --      8.4170                61.9173                 2.3152

                     46                     47                     48
                      A                      A                      A
 Frequencies --   1149.5739              1190.5954              1191.4223
 Red. masses --      2.1863                 2.2676                 1.4416
 Frc consts  --      1.7023                 1.8938                 1.2057
 IR Inten    --     27.0607               110.7350                77.8235

                     49                     50                     51
                      A                      A                      A
 Frequencies --   1239.1465              1264.2013              1274.1182
 Red. masses --      1.5965                 2.2597                 1.4613
 Frc consts  --      1.4444                 2.1278                 1.3977
 IR Inten    --     18.0445                 8.7000                 5.8700

                     52                     53                     54
                      A                      A                      A
 Frequencies --   1288.0676              1304.9713              1318.5577
 Red. masses --      1.2942                 1.3414                 1.2259
 Frc consts  --      1.2651                 1.3459                 1.2557
 IR Inten    --      1.6007                 4.4627                 5.0340

                     55                     56                     57
                      A                      A                      A
 Frequencies --   1329.7479              1354.5329              1358.6474
 Red. masses --      1.2645                 1.4194                 1.4512
 Frc consts  --      1.3174                 1.5344                 1.5783
 IR Inten    --      9.5652                22.9080                21.9146

                     58                     59                     60
                      A                      A                      A
 Frequencies --   1392.5061              1406.9711              1416.6663
 Red. masses --      3.1555                 1.3408                 2.4377
 Frc consts  --      3.6051                 1.5638                 2.8825
 IR Inten    --     52.9894                20.9238                89.2740

                     61                     62                     63
                      A                      A                      A
 Frequencies --   1428.3887              1475.0528              1478.4555
 Red. masses --      2.7420                 1.1502                 1.1134
 Frc consts  --      3.2962                 1.4745                 1.4339
 IR Inten    --     29.5915                24.9564                 1.4037

                     64                     65                     66
                      A                      A                      A
 Frequencies --   1496.5450              1507.4433              1516.5034
 Red. masses --      3.2627                 1.0728                 1.1789
 Frc consts  --      4.3053                 1.4363                 1.5974
 IR Inten    --     26.9323                16.4991               192.1355

                     67                     68                     69
                      A                      A                      A
 Frequencies --   1543.3935              1605.7954              1664.1925
 Red. masses --      2.2859                 4.4395                 1.0420
 Frc consts  --      3.2083                 6.7447                 1.7003
 IR Inten    --    290.2784                 3.7038                47.0928

                     70                     71                     72
                      A                      A                      A
 Frequencies --   1667.9128              1747.2097              1805.5818
 Red. masses --      1.0436                 9.8993                 9.5819
 Frc consts  --      1.7105                17.8051                18.4050
 IR Inten    --     38.3539               282.6685               321.2455

                     73                     74                     75
                      A                      A                      A
 Frequencies --   3025.2883              3032.3102              3064.4139
 Red. masses --      1.0635                 1.0702                 1.0833
 Frc consts  --      5.7347                 5.7979                 5.9937
 IR Inten    --      4.1668                21.6914                 5.7895

                     76                     77                     78
                      A                      A                      A
 Frequencies --   3082.9953              3095.4864              3114.6970
 Red. masses --      1.1002                 1.0593                 1.0935
 Frc consts  --      6.1610                 5.9806                 6.2500
 IR Inten    --      5.4943                 5.7658                 4.0104

                     79                     80                     81
                      A                      A                      A
 Frequencies --   3155.3091              3235.9759              3245.9397
 Red. masses --      1.1119                 1.0966                 1.0991
 Frc consts  --      6.5226                 6.7658                 6.8227
 IR Inten    --      3.2910                 4.5348                 1.0981

                     82                     83                     84
                      A                      A                      A
 Frequencies --   3399.4448              3477.0427              3479.6859
 Red. masses --      1.0300                 1.0931                 1.0934
 Frc consts  --      7.0130                 7.7866                 7.8006
 IR Inten    --     53.1852                91.2871                88.8786

                     85                     86                     87
                      A                      A                      A
 Frequencies --   3562.2084              3656.7212              3737.4049
 Red. masses --      1.0783                 1.0811                 1.0646
 Frc consts  --      8.0621                 8.5170                 8.7616
 IR Inten    --    112.6656                88.7561               129.9237

 - Thermochemistry -
 -------------------
 Temperature   298.150 Kelvin.  Pressure   1.00000 Atm.
 Atom     1 has atomic number  8 and mass  15.99491

 Molecular mass:   227.11442 amu.
 Principal axes and moments of inertia in atomic units:
                           1         2         3
     Eigenvalues --  2247.832346986.992968933.71584
           X            0.98937  -0.00246   0.14541
           Y           -0.13579  -0.37371   0.91755
           Z           -0.05209   0.92754   0.37008
 This molecule is an asymmetric top.
 Rotational symmetry number  1.
 Warning -- assumption of classical behavior for rotation
           may cause significant error
 Rotational temperatures (Kelvin)      0.03853     0.01240     0.00970
 Rotational constants (GHZ):           0.80288     0.25830     0.20201
 Zero-point vibrational energy     679245.1 (Joules/Mol)
                                  162.34347 (Kcal/Mol)
 Warning -- explicit consideration of  22 degrees of freedom as
           vibrations may cause significant error
 Vibrational temperatures:     35.79    40.33    51.07    55.68    91.23
          (Kelvin)            108.88   130.79   162.21   181.40   270.32
                              310.55   342.47   388.89   439.10   475.21
                              499.93   541.11   556.97   766.35   781.18
                              803.00   855.30   917.79   928.27   954.44
                              973.86  1027.62  1060.40  1110.26  1149.36
                             1181.77  1185.73  1226.30  1276.54  1322.33
                             1333.85  1353.77  1413.99  1445.28  1457.53
                             1483.39  1559.87  1597.19  1598.62  1645.42
                             1653.98  1713.00  1714.19  1782.85  1818.90
                             1833.17  1853.24  1877.56  1897.11  1913.21
                             1948.87  1954.79  2003.50  2024.32  2038.26
                             2055.13  2122.27  2127.17  2153.19  2168.87
                             2181.91  2220.60  2310.38  2394.40  2399.75
                             2513.84  2597.83  4352.71  4362.81  4409.00
                             4435.74  4453.71  4481.35  4539.78  4655.84
                             4670.18  4891.04  5002.68  5006.49  5125.22
                             5261.20  5377.29

 Zero-point correction=                           0.258711 (Hartree/Particle)
 Thermal correction to Energy=                    0.275187
 Thermal correction to Enthalpy=                  0.276131
 Thermal correction to Gibbs Free Energy=         0.211035
 Sum of electronic and zero-point Energies=           -796.485539
 Sum of electronic and thermal Energies=              -796.469063
 Sum of electronic and thermal Enthalpies=            -796.468119
 Sum of electronic and thermal Free Energies=         -796.533215

                     E (Thermal)             CV                S
                      KCal/Mol        Cal/Mol-Kelvin    Cal/Mol-Kelvin
 Total                  172.683             59.082            137.008
 Electronic               0.000              0.000              0.000
 Translational            0.889              2.981             42.163
 Rotational               0.889              2.981             33.306
 Vibrational            170.905             53.121             61.539
 Vibration     1          0.593              1.985              6.201
 Vibration     2          0.593              1.984              5.964
 Vibration     3          0.594              1.982              5.496
 Vibration     4          0.594              1.981              5.325
 Vibration     5          0.597              1.972              4.348
 Vibration     6          0.599              1.965              4.000
 Vibration     7          0.602              1.956              3.641
 Vibration     8          0.607              1.939              3.221
 Vibration     9          0.611              1.927              3.005
 Vibration    10          0.633              1.856              2.249
 Vibration    11          0.645              1.817              1.994
 Vibration    12          0.656              1.782              1.818
 Vibration    13          0.674              1.728              1.594
 Vibration    14          0.696              1.664              1.388
 Vibration    15          0.713              1.615              1.259
 Vibration    16          0.725              1.580              1.178
 Vibration    17          0.747              1.521              1.055
 Vibration    18          0.756              1.498              1.011
 Vibration    19          0.888              1.178              0.581
 Vibration    20          0.898              1.155              0.559
 Vibration    21          0.914              1.122              0.528
 Vibration    22          0.952              1.044              0.459

 Normal termination of Gaussian 09 at Sat Jul 24 04:25:30 2021.
