 Gaussian 09, Revision D.01,
 Gaussian 09:  ES64L-G09RevD.01 24-Apr-2013

 ----------------------------------------------------------------------
 # B3LYP/6-311++G(d,p) EmpiricalDispersion=GD3BJ opt=calcfc freq=norama
 n nosymm integral(ultrafinegrid)
 ----------------------------------------------------------------------

 ------------------------------------------------------------
 Candidate Structure: Conf:661 OPT and FREQ calc in gas phase
 ------------------------------------------------------------
 Symbolic Z-matrix:
 Charge =  1 Multiplicity = 1

 SCF Done:  E(RB3LYP) =  -796.743965656     A.U. after   15 cycles
 SCF Done:  E(RB3LYP) =  -796.726781213     A.U. after   16 cycles
 SCF Done:  E(RB3LYP) =  -796.751350397     A.U. after   13 cycles
 SCF Done:  E(RB3LYP) =  -796.754290372     A.U. after   13 cycles
 SCF Done:  E(RB3LYP) =  -796.757819840     A.U. after   15 cycles
 SCF Done:  E(RB3LYP) =  -796.760391401     A.U. after   13 cycles
 SCF Done:  E(RB3LYP) =  -796.761912029     A.U. after   14 cycles
 SCF Done:  E(RB3LYP) =  -796.754270347     A.U. after   17 cycles
 SCF Done:  E(RB3LYP) =  -796.762175843     A.U. after   13 cycles
 SCF Done:  E(RB3LYP) =  -796.762396422     A.U. after   13 cycles
 SCF Done:  E(RB3LYP) =  -796.762471626     A.U. after   13 cycles
 SCF Done:  E(RB3LYP) =  -796.762520997     A.U. after   11 cycles
 SCF Done:  E(RB3LYP) =  -796.762533448     A.U. after   12 cycles
 SCF Done:  E(RB3LYP) =  -796.762538649     A.U. after   11 cycles
 SCF Done:  E(RB3LYP) =  -796.762539148     A.U. after   11 cycles
 SCF Done:  E(RB3LYP) =  -796.762539393     A.U. after    9 cycles
 SCF Done:  E(RB3LYP) =  -796.762539569     A.U. after   11 cycles
 SCF Done:  E(RB3LYP) =  -796.762539648     A.U. after    9 cycles
 SCF Done:  E(RB3LYP) =  -796.762539664     A.U. after    9 cycles
 Optimization completed.
    -- Stationary point found.
 Normal termination of Gaussian 09 at Sat Jul 24 04:31:01 2021.

 ----------------------------------------------------------------------
 #N Geom=AllCheck Guess=TCheck SCRF=Check GenChk RB3LYP/6-311++G(d,p) F
 req
 ----------------------------------------------------------------------

 Structure from the checkpoint file:  "conf-661.chk"
 ------------------------------------------------------------
 Candidate Structure: Conf:661 OPT and FREQ calc in gas phase
 ------------------------------------------------------------
 Charge =  1 Multiplicity = 1

                          Input orientation:
 ---------------------------------------------------------------------
 Center     Atomic      Atomic             Coordinates (Angstroms)
 Number     Number       Type             X           Y           Z
 ---------------------------------------------------------------------
      1          8           0        2.097058    1.151806    0.912805
      2          6           0        1.385237    0.959017   -0.058167
      3          7           0        0.157881    0.382078    0.046842
      4          6           0       -0.270140   -0.151423    1.316994
      5          6           0        0.752929   -1.203610    1.772725
      6          8           0        0.784024   -1.500067    3.064354
      7          8           0        1.462614   -1.815882    0.999879
      8          6           0       -1.665839   -0.835195    1.169611
      9          6           0       -2.616816   -0.019660    0.366715
     10          6           0       -2.989182   -0.129233   -0.954162
     11          7           0       -3.808387    0.913016   -1.319844
     12          6           0       -3.940319    1.652984   -0.245267
     13          7           0       -3.228815    1.140632    0.807632
     14          6           0        1.924351    1.132892   -1.471798
     15          6           0        3.125508    0.196879   -1.606308
     16          7           0        2.723537   -1.245990   -1.355088
     17          1           0       -0.509902    0.389011   -0.715517
     18          1           0       -0.315942    0.646571    2.065975
     19          1           0        0.239240   -0.900957    3.592976
     20          1           0       -2.054968   -1.055549    2.167228
     21          1           0       -1.535427   -1.794009    0.662398
     22          1           0       -2.741115   -0.921819   -1.645198
     23          1           0       -4.529993    2.552921   -0.161585
     24          1           0       -3.216552    1.511328    1.745936
     25          1           0        2.283876    2.155142   -1.602243
     26          1           0        1.171745    0.935946   -2.239987
     27          1           0        3.871484    0.441551   -0.851894
     28          1           0        3.574728    0.242408   -2.597525
     29          1           0        3.546433   -1.852496   -1.338143
     30          1           0        2.216290   -1.385928   -0.436882
     31          1           0        2.106055   -1.592259   -2.092456
 ---------------------------------------------------------------------

 SCF Done:  E(RB3LYP) =  -796.762539664     A.U. after    1 cycles

 Alpha  occ. eigenvalues --  -19.32561 -19.27267 -19.24225 -14.59004 -14.49315
 Alpha  occ. eigenvalues --  -14.48906 -14.40686 -10.46812 -10.42691 -10.39984
 Alpha  occ. eigenvalues --  -10.38515 -10.34776 -10.34023 -10.33933 -10.33322
 Alpha  occ. eigenvalues --  -10.30455  -1.27009  -1.20243  -1.18502  -1.16018
 Alpha  occ. eigenvalues --   -1.13711  -1.08777  -0.99300  -0.96081  -0.93754
 Alpha  occ. eigenvalues --   -0.88006  -0.83276  -0.80687  -0.78580  -0.75795
 Alpha  occ. eigenvalues --   -0.74668  -0.74064  -0.73474  -0.71710  -0.69206
 Alpha  occ. eigenvalues --   -0.66946  -0.66580  -0.65580  -0.65173  -0.61692
 Alpha  occ. eigenvalues --   -0.60639  -0.59479  -0.58515  -0.57846  -0.56951
 Alpha  occ. eigenvalues --   -0.56379  -0.54931  -0.54150  -0.53600  -0.53050
 Alpha  occ. eigenvalues --   -0.52929  -0.52538  -0.51034  -0.48111  -0.44987
 Alpha  occ. eigenvalues --   -0.42126  -0.41489  -0.40425  -0.38444  -0.35438
 Alpha virt. eigenvalues --   -0.16804  -0.16168  -0.14964  -0.13383  -0.12467
 Alpha virt. eigenvalues --   -0.11351  -0.10559  -0.10068  -0.09594  -0.09197
 Alpha virt. eigenvalues --   -0.08159  -0.07945  -0.06703  -0.06642  -0.06154

 Mulliken charges:
               1
     1  O   -0.215230
     2  C   -0.140165
     3  N    0.064927
     4  C   -0.175928
     5  C   -0.172581
     6  O   -0.043312
     7  O   -0.283427
     8  C   -1.152533
     9  C    0.613695
    10  C   -0.519078
    11  N   -0.053606
    12  C    0.117537
    13  N   -0.102992
    14  C   -0.225996
    15  C   -0.461371
    16  N   -0.402500
    17  H    0.321576
    18  H    0.324644
    19  H    0.276329
    20  H    0.209251
    21  H    0.223355
    22  H    0.151032
    23  H    0.190017
    24  H    0.313842
    25  H    0.258266
    26  H    0.176671
    27  H    0.275864
    28  H    0.247260
    29  H    0.348746
    30  H    0.507363
    31  H    0.328342
 Sum of Mulliken charges =   1.00000

 Dipole moment (field-independent basis, Debye):
    X=              4.9221    Y=             -1.5020    Z=             -1.4708  Tot=              5.3523
 Quadrupole moment (field-independent basis, Debye-Ang):
   XX=            -64.5935   YY=            -84.2507   ZZ=            -69.1167
   XY=            -12.8307   XZ=            -38.1186   YZ=              9.2912

  Exact polarizability: 154.644 -15.238 121.902   0.454  -4.497 142.063
 Approx polarizability: 201.641 -18.088 186.312  10.608   6.957 226.509

                      1                      2                      3
                      A                      A                      A
 Frequencies --     26.8583                35.7417                58.5785
 Red. masses --      3.9408                 4.1038                 7.0790
 Frc consts  --      0.0017                 0.0031                 0.0143
 IR Inten    --     13.1519                 1.0211                11.7759

                      4                      5                      6
                      A                      A                      A
 Frequencies --     66.5199                77.6532               111.5275
 Red. masses --      4.3596                 5.4622                 4.6875
 Frc consts  --      0.0114                 0.0194                 0.0344
 IR Inten    --      4.8270                 7.2623                 4.0603

                      7                      8                      9
                      A                      A                      A
 Frequencies --    147.4326               158.8218               176.9554
 Red. masses --      5.5018                 5.7114                 7.0267
 Frc consts  --      0.0705                 0.0849                 0.1296
 IR Inten    --     22.2472                 3.6834                12.4914

                     10                     11                     12
                      A                      A                      A
 Frequencies --    227.6619               247.9326               280.4633
 Red. masses --      3.8638                 2.6671                 5.9361
 Frc consts  --      0.1180                 0.0966                 0.2751
 IR Inten    --     70.1259                14.4547                 6.9611

                     13                     14                     15
                      A                      A                      A
 Frequencies --    319.6265               333.8265               345.2788
 Red. masses --      3.1256                 1.1655                 3.2147
 Frc consts  --      0.1881                 0.0765                 0.2258
 IR Inten    --      9.9751                 0.3538                 4.4929

                     16                     17                     18
                      A                      A                      A
 Frequencies --    380.6199               422.0115               439.5647
 Red. masses --      3.6531                 3.8387                 2.4810
 Frc consts  --      0.3118                 0.4028                 0.2824
 IR Inten    --     15.3280                36.7344                 2.0477

                     19                     20                     21
                      A                      A                      A
 Frequencies --    507.9826               509.0827               530.2129
 Red. masses --      1.1876                 1.1927                 1.6368
 Frc consts  --      0.1806                 0.1821                 0.2711
 IR Inten    --     42.3567                51.4593                66.9860

                     22                     23                     24
                      A                      A                      A
 Frequencies --    547.3346               631.8651               654.3048
 Red. masses --      2.2071                 4.3827                 3.2073
 Frc consts  --      0.3896                 1.0310                 0.8090
 IR Inten    --     51.0654                 6.1353                 7.6212

                     25                     26                     27
                      A                      A                      A
 Frequencies --    674.4149               695.8449               713.0362
 Red. masses --      3.1071                 3.7574                 4.6286
 Frc consts  --      0.8327                 1.0719                 1.3865
 IR Inten    --      6.6353                 7.2169                13.6094

                     28                     29                     30
                      A                      A                      A
 Frequencies --    740.9052               780.0518               839.1868
 Red. masses --      2.4971                 5.6692                 1.5090
 Frc consts  --      0.8076                 2.0325                 0.6261
 IR Inten    --      1.7622                 2.5013                36.7087

                     31                     32                     33
                      A                      A                      A
 Frequencies --    840.6615               844.3397               864.2399
 Red. masses --      2.2700                 1.7522                 2.1006
 Frc consts  --      0.9452                 0.7360                 0.9244
 IR Inten    --      4.6191                 2.1578                 6.9588

                     34                     35                     36
                      A                      A                      A
 Frequencies --    874.5208               935.4918               937.6082
 Red. masses --      2.1239                 2.5384                 5.6437
 Frc consts  --      0.9570                 1.3088                 2.9232
 IR Inten    --     13.5527                 5.9897                 7.3644

                     37                     38                     39
                      A                      A                      A
 Frequencies --    949.9742               958.5762              1004.9064
 Red. masses --      1.3559                 3.2828                 2.8143
 Frc consts  --      0.7210                 1.7773                 1.6744
 IR Inten    --      9.2792                 5.2354                 9.9048

                     40                     41                     42
                      A                      A                      A
 Frequencies --   1014.9470              1043.4505              1093.5676
 Red. masses --      3.5737                 2.9657                 1.5707
 Frc consts  --      2.1690                 1.9025                 1.1067
 IR Inten    --     14.6797                 4.4791                 5.2377

                     43                     44                     45
                      A                      A                      A
 Frequencies --   1103.5665              1116.7674              1141.6897
 Red. masses --      1.7034                 1.3626                 1.9351
 Frc consts  --      1.2222                 1.0012                 1.4861
 IR Inten    --     20.8994                 4.8786                34.9057

                     46                     47                     48
                      A                      A                      A
 Frequencies --   1151.0197              1187.9781              1206.6419
 Red. masses --      2.2083                 1.5226                 1.7283
 Frc consts  --      1.7238                 1.2661                 1.4826
 IR Inten    --      7.7730                15.5046                18.2658

                     49                     50                     51
                      A                      A                      A
 Frequencies --   1239.2547              1261.2809              1273.0475
 Red. masses --      1.6767                 2.0623                 1.4497
 Frc consts  --      1.5171                 1.9330                 1.3843
 IR Inten    --     86.9099                 5.1520                 5.2476

                     52                     53                     54
                      A                      A                      A
 Frequencies --   1281.6684              1303.6755              1328.2447
 Red. masses --      1.5102                 1.4263                 1.6927
 Frc consts  --      1.4616                 1.4282                 1.7595
 IR Inten    --     60.6098                80.2521               224.2675

                     55                     56                     57
                      A                      A                      A
 Frequencies --   1340.4039              1354.4961              1383.6646
 Red. masses --      1.4501                 1.4358                 1.3919
 Frc consts  --      1.5351                 1.5521                 1.5701
 IR Inten    --     38.6298                 9.7981                 4.3388

                     58                     59                     60
                      A                      A                      A
 Frequencies --   1393.5243              1401.5491              1411.4945
 Red. masses --      3.0095                 1.8443                 1.2986
 Frc consts  --      3.4433                 2.1346                 1.5243
 IR Inten    --      9.8451               116.8728                 2.3110

                     61                     62                     63
                      A                      A                      A
 Frequencies --   1423.9352              1477.6385              1479.8355
 Red. masses --      2.7491                 1.1005                 1.2439
 Frc consts  --      3.2841                 1.4158                 1.6049
 IR Inten    --     27.0165                15.5009                18.5488

                     64                     65                     66
                      A                      A                      A
 Frequencies --   1499.1860              1499.4113              1518.9298
 Red. masses --      2.7242                 1.0868                 2.2106
 Frc consts  --      3.6074                 1.4396                 3.0049
 IR Inten    --     40.4373                14.3841               339.8705

                     67                     68                     69
                      A                      A                      A
 Frequencies --   1579.3226              1601.2252              1671.7087
 Red. masses --      1.1574                 4.3157                 1.0541
 Frc consts  --      1.7008                 6.5193                 1.7355
 IR Inten    --    105.2538                 5.6534                70.0244

                     70                     71                     72
                      A                      A                      A
 Frequencies --   1682.4066              1745.8407              1772.9952
 Red. masses --      1.0493                 7.8505                 8.8948
 Frc consts  --      1.7498                14.0979                16.4740
 IR Inten    --     23.1833               257.5080               414.5753

                     73                     74                     75
                      A                      A                      A
 Frequencies --   2872.9968              3032.0283              3049.1086
 Red. masses --      1.0844                 1.0848                 1.0613
 Frc consts  --      5.2738                 5.8759                 5.8133
 IR Inten    --   1149.8523                 9.4819                11.4038

                     76                     77                     78
                      A                      A                      A
 Frequencies --   3056.2740              3094.6112              3095.3831
 Red. masses --      1.0636                 1.1031                 1.0609
 Frc consts  --      5.8535                 6.2241                 5.9890
 IR Inten    --      6.8879                 5.8522                 2.2302

                     79                     80                     81
                      A                      A                      A
 Frequencies --   3114.1236              3155.8409              3222.3048
 Red. masses --      1.1006                 1.1116                 1.0970
 Frc consts  --      6.2887                 6.5226                 6.7108
 IR Inten    --      2.2705                 0.1405                 4.0349

                     82                     83                     84
                      A                      A                      A
 Frequencies --   3249.5205              3449.6123              3505.1025
 Red. masses --      1.0994                 1.0533                 1.0926
 Frc consts  --      6.8400                 7.3848                 7.9092
 IR Inten    --      2.3424                76.1095                69.1265

                     85                     86                     87
                      A                      A                      A
 Frequencies --   3540.9259              3637.8175              3787.2558
 Red. masses --      1.0795                 1.0816                 1.0665
 Frc consts  --      7.9746                 8.4334                 9.0129
 IR Inten    --    192.5978                63.5564                86.0934

 - Thermochemistry -
 -------------------
 Temperature   298.150 Kelvin.  Pressure   1.00000 Atm.
 Atom     1 has atomic number  8 and mass  15.99491

 Molecular mass:   227.11442 amu.
 Principal axes and moments of inertia in atomic units:
                           1         2         3
     Eigenvalues --  2360.639995251.232906430.19698
           X            0.98132  -0.09389   0.16790
           Y           -0.19234  -0.46438   0.86450
           Z            0.00320   0.88064   0.47377
 This molecule is an asymmetric top.
 Rotational symmetry number  1.
 Warning -- assumption of classical behavior for rotation
           may cause significant error
 Rotational temperatures (Kelvin)      0.03669     0.01649     0.01347
 Rotational constants (GHZ):           0.76451     0.34368     0.28067
 Zero-point vibrational energy     680309.6 (Joules/Mol)
                                  162.59790 (Kcal/Mol)
 Warning -- explicit consideration of  22 degrees of freedom as
           vibrations may cause significant error
 Vibrational temperatures:     38.64    51.42    84.28    95.71   111.73
          (Kelvin)            160.46   212.12   228.51   254.60   327.55
                              356.72   403.52   459.87   480.30   496.78
                              547.63   607.18   632.43   730.87   732.46
                              762.86   787.49   909.11   941.40   970.33
                             1001.16  1025.90  1066.00  1122.32  1207.40
                             1209.52  1214.81  1243.45  1258.24  1345.96
                             1349.01  1366.80  1379.18  1445.83  1460.28
                             1501.29  1573.40  1587.78  1606.78  1642.63
                             1656.06  1709.23  1736.09  1783.01  1814.70
                             1831.63  1844.03  1875.70  1911.05  1928.54
                             1948.82  1990.78  2004.97  2016.51  2030.82
                             2048.72  2125.99  2129.15  2156.99  2157.32
                             2185.40  2272.29  2303.80  2405.21  2420.60
                             2511.87  2550.94  4133.60  4362.41  4386.98
                             4397.29  4452.45  4453.56  4480.52  4540.55
                             4636.17  4675.33  4963.22  5043.05  5094.60
                             5234.00  5449.01

 Zero-point correction=                           0.259116 (Hartree/Particle)
 Thermal correction to Energy=                    0.274723
 Thermal correction to Enthalpy=                  0.275667
 Thermal correction to Gibbs Free Energy=         0.214552
 Sum of electronic and zero-point Energies=           -796.503423
 Sum of electronic and thermal Energies=              -796.487817
 Sum of electronic and thermal Enthalpies=            -796.486873
 Sum of electronic and thermal Free Energies=         -796.547988

                     E (Thermal)             CV                S
                      KCal/Mol        Cal/Mol-Kelvin    Cal/Mol-Kelvin
 Total                  172.391             58.254            128.627
 Electronic               0.000              0.000              0.000
 Translational            0.889              2.981             42.163
 Rotational               0.889              2.981             32.744
 Vibrational            170.614             52.293             53.720
 Vibration     1          0.593              1.984              6.049
 Vibration     2          0.594              1.982              5.482
 Vibration     3          0.596              1.974              4.505
 Vibration     4          0.598              1.970              4.254
 Vibration     5          0.599              1.964              3.949
 Vibration     6          0.607              1.940              3.242
 Vibration     7          0.617              1.905              2.705
 Vibration     8          0.621              1.893              2.564
 Vibration     9          0.628              1.871              2.360
 Vibration    10          0.651              1.799              1.897
 Vibration    11          0.662              1.766              1.745
 Vibration    12          0.680              1.710              1.531
 Vibration    13          0.706              1.636              1.312
 Vibration    14          0.715              1.608              1.242
 Vibration    15          0.724              1.585              1.188
 Vibration    16          0.750              1.511              1.037
 Vibration    17          0.784              1.422              0.885
 Vibration    18          0.800              1.384              0.828
 Vibration    19          0.863              1.232              0.638
 Vibration    20          0.864              1.230              0.636
 Vibration    21          0.885              1.183              0.587
 Vibration    22          0.903              1.146              0.550

 Optimization completed.
    -- Stationary point found.
 Normal termination of Gaussian 09 at Sat Jul 24 05:51:44 2021.
