 Gaussian 09, Revision D.01,
 Gaussian 09:  ES64L-G09RevD.01 24-Apr-2013

 ----------------------------------------------------------------------
 # B3LYP/6-311++G(d,p) EmpiricalDispersion=GD3BJ opt=calcfc freq=norama
 n nosymm integral(ultrafinegrid)
 ----------------------------------------------------------------------

 ------------------------------------------------------------
 Candidate Structure: Conf:580 OPT and FREQ calc in gas phase
 ------------------------------------------------------------
 Symbolic Z-matrix:
 Charge =  1 Multiplicity = 1

 SCF Done:  E(RB3LYP) =  -796.737765160     A.U. after   18 cycles
 SCF Done:  E(RB3LYP) =  -796.743373236     A.U. after   15 cycles
 SCF Done:  E(RB3LYP) =  -796.743717401     A.U. after   16 cycles
 SCF Done:  E(RB3LYP) =  -796.743961579     A.U. after   16 cycles
 SCF Done:  E(RB3LYP) =  -796.744364472     A.U. after   14 cycles
 SCF Done:  E(RB3LYP) =  -796.744731808     A.U. after   13 cycles
 SCF Done:  E(RB3LYP) =  -796.744743224     A.U. after   12 cycles
 SCF Done:  E(RB3LYP) =  -796.744744526     A.U. after   11 cycles
 SCF Done:  E(RB3LYP) =  -796.744744557     A.U. after    9 cycles
 Optimization completed.
    -- Stationary point found.
 Normal termination of Gaussian 09 at Sat Jul 24 02:59:49 2021.

 ----------------------------------------------------------------------
 #N Geom=AllCheck Guess=TCheck SCRF=Check GenChk RB3LYP/6-311++G(d,p) F
 req
 ----------------------------------------------------------------------

 Structure from the checkpoint file:  "conf-580.chk"
 ------------------------------------------------------------
 Candidate Structure: Conf:580 OPT and FREQ calc in gas phase
 ------------------------------------------------------------
 Charge =  1 Multiplicity = 1

                          Input orientation:
 ---------------------------------------------------------------------
 Center     Atomic      Atomic             Coordinates (Angstroms)
 Number     Number       Type             X           Y           Z
 ---------------------------------------------------------------------
      1          8           0        1.348899    0.308352   -1.263415
      2          6           0        1.485974    0.313604   -0.048172
      3          7           0        0.477851    0.357581    0.836312
      4          6           0       -0.922872    0.367285    0.430807
      5          6           0       -1.706992    0.930936    1.605074
      6          8           0       -2.867149    1.461176    1.222774
      7          8           0       -1.311814    0.874517    2.745676
      8          6           0       -1.402639   -1.072648    0.073761
      9          6           0       -2.833227   -1.170208   -0.316724
     10          6           0       -3.927518   -1.652367    0.358022
     11          7           0       -5.074747   -1.477387   -0.380638
     12          6           0       -4.694163   -0.895405   -1.492968
     13          7           0       -3.341974   -0.681572   -1.508318
     14          6           0        2.899150    0.243355    0.565546
     15          6           0        3.866281    0.882537   -0.417252
     16          7           0        5.309698    0.528099   -0.077022
     17          1           0        0.639913    0.372760    1.836594
     18          1           0       -1.037348    1.018692   -0.435908
     19          1           0       -3.369828    1.725333    2.010361
     20          1           0       -1.234632   -1.709650    0.945380
     21          1           0       -0.744328   -1.428925   -0.723996
     22          1           0       -3.948203   -2.116792    1.332355
     23          1           0       -5.334468   -0.612918   -2.314307
     24          1           0       -2.813866   -0.278558   -2.266802
     25          1           0        3.133267   -0.819513    0.700378
     26          1           0        2.936716    0.724053    1.546391
     27          1           0        3.674834    0.521312   -1.426690
     28          1           0        3.807744    1.970498   -0.412803
     29          1           0        5.963032    0.953784   -0.741631
     30          1           0        5.568021    0.848107    0.861140
     31          1           0        5.454581   -0.485889   -0.106734
 ---------------------------------------------------------------------

 SCF Done:  E(RB3LYP) =  -796.744744557     A.U. after    2 cycles

 Alpha  occ. eigenvalues --  -19.28269 -19.23129 -19.23048 -14.64337 -14.47765
 Alpha  occ. eigenvalues --  -14.44714 -14.36542 -10.42237 -10.42200 -10.41956
 Alpha  occ. eigenvalues --  -10.36143 -10.34756 -10.29898 -10.29496 -10.28714
 Alpha  occ. eigenvalues --  -10.25872  -1.22911  -1.20885  -1.18673  -1.14205
 Alpha  occ. eigenvalues --   -1.09438  -1.06971  -0.97153  -0.95112  -0.91321
 Alpha  occ. eigenvalues --   -0.85803  -0.83335  -0.79395  -0.78866  -0.77993
 Alpha  occ. eigenvalues --   -0.74539  -0.71859  -0.69694  -0.69306  -0.67223
 Alpha  occ. eigenvalues --   -0.65754  -0.64656  -0.62567  -0.61320  -0.60269
 Alpha  occ. eigenvalues --   -0.59216  -0.58508  -0.57822  -0.56039  -0.54668
 Alpha  occ. eigenvalues --   -0.54026  -0.53135  -0.51717  -0.51289  -0.50198
 Alpha  occ. eigenvalues --   -0.48966  -0.48644  -0.47748  -0.43973  -0.41106
 Alpha  occ. eigenvalues --   -0.40302  -0.39814  -0.36139  -0.34395  -0.30822
 Alpha virt. eigenvalues --   -0.20356  -0.14907  -0.14447  -0.13732  -0.12406
 Alpha virt. eigenvalues --   -0.11589  -0.10907  -0.09636  -0.09033  -0.08434
 Alpha virt. eigenvalues --   -0.08105  -0.07423  -0.06963  -0.06337  -0.06269

 Mulliken charges:
               1
     1  O   -0.290780
     2  C   -0.105560
     3  N    0.105841
     4  C   -0.519796
     5  C    0.000990
     6  O   -0.058204
     7  O   -0.255583
     8  C   -0.907184
     9  C    0.902521
    10  C   -0.600181
    11  N   -0.097558
    12  C    0.159471
    13  N   -0.147249
    14  C   -0.298970
    15  C   -0.584015
    16  N   -0.220312
    17  H    0.280267
    18  H    0.321483
    19  H    0.302019
    20  H    0.219224
    21  H    0.237017
    22  H    0.150322
    23  H    0.177459
    24  H    0.304135
    25  H    0.206199
    26  H    0.175662
    27  H    0.280682
    28  H    0.236175
    29  H    0.346765
    30  H    0.341465
    31  H    0.337695
 Sum of Mulliken charges =   1.00000

 Dipole moment (field-independent basis, Debye):
    X=             22.0982    Y=              3.7934    Z=              0.0908  Tot=             22.4216
 Quadrupole moment (field-independent basis, Debye-Ang):
   XX=             19.0607   YY=            -89.4730   ZZ=            -87.9544
   XY=              1.1859   XZ=              5.6003   YZ=              0.1023

  Exact polarizability: 189.031   8.475 104.891   4.013  -2.100 134.692
 Approx polarizability: 231.003   3.195 156.964   3.448 -14.293 224.159

                      1                      2                      3
                      A                      A                      A
 Frequencies --     14.3688                24.2213                39.0890
 Red. masses --      5.2878                 3.6142                 1.9797
 Frc consts  --      0.0006                 0.0012                 0.0018
 IR Inten    --      0.7582                 2.7624                10.8984

                      4                      5                      6
                      A                      A                      A
 Frequencies --     50.2365                65.4320                70.2780
 Red. masses --      5.2194                 5.3775                 5.7455
 Frc consts  --      0.0078                 0.0136                 0.0167
 IR Inten    --      8.6072                 6.7470                 5.1468

                      7                      8                      9
                      A                      A                      A
 Frequencies --     76.2154               103.5851               116.9758
 Red. masses --      6.5120                 4.0176                 4.4291
 Frc consts  --      0.0223                 0.0254                 0.0357
 IR Inten    --      7.0588                 3.2681                10.0776

                     10                     11                     12
                      A                      A                      A
 Frequencies --    178.7380               215.5389               236.3745
 Red. masses --      5.2101                 2.0373                 1.5382
 Frc consts  --      0.0981                 0.0558                 0.0506
 IR Inten    --      5.5334                 9.6904                 3.0035

                     13                     14                     15
                      A                      A                      A
 Frequencies --    262.9678               316.9016               332.4892
 Red. masses --      5.5429                 6.4324                 2.1318
 Frc consts  --      0.2258                 0.3806                 0.1389
 IR Inten    --      9.7490                 8.9196                 4.8616

                     16                     17                     18
                      A                      A                      A
 Frequencies --    344.0524               366.9982               389.1930
 Red. masses --      6.5631                 3.7095                 3.8517
 Frc consts  --      0.4577                 0.2944                 0.3437
 IR Inten    --     11.2893                 7.7608                 6.0338

                     19                     20                     21
                      A                      A                      A
 Frequencies --    508.4489               532.6746               560.6874
 Red. masses --      1.3789                 3.4628                 1.8233
 Frc consts  --      0.2100                 0.5789                 0.3377
 IR Inten    --     73.2791                55.9432                19.9612

                     22                     23                     24
                      A                      A                      A
 Frequencies --    606.7928               629.8780               649.6665
 Red. masses --      1.2353                 4.0848                 1.7393
 Frc consts  --      0.2680                 0.9548                 0.4325
 IR Inten    --    121.8727                 8.7031                25.8813

                     25                     26                     27
                      A                      A                      A
 Frequencies --    661.8506               674.1994               717.8184
 Red. masses --      2.7203                 3.1007                 3.6509
 Frc consts  --      0.7021                 0.8304                 1.1084
 IR Inten    --     31.9749                11.0767                 0.8497

                     28                     29                     30
                      A                      A                      A
 Frequencies --    750.9511               770.7370               794.6773
 Red. masses --      3.6322                 3.5671                 1.4147
 Frc consts  --      1.2068                 1.2485                 0.5264
 IR Inten    --     15.5164                10.6683                15.5119

                     31                     32                     33
                      A                      A                      A
 Frequencies --    818.3848               822.0112               852.8340
 Red. masses --      2.1201                 1.4855                 1.4445
 Frc consts  --      0.8366                 0.5914                 0.6190
 IR Inten    --      8.1010                15.9653                18.5181

                     34                     35                     36
                      A                      A                      A
 Frequencies --    886.6205               918.9345               934.1762
 Red. masses --      2.6674                 1.2902                 3.8389
 Frc consts  --      1.2354                 0.6419                 1.9738
 IR Inten    --     34.7539                 4.0731                 7.3888

                     37                     38                     39
                      A                      A                      A
 Frequencies --    939.5532               985.1128               997.5668
 Red. masses --      5.4551                 2.1297                 3.5700
 Frc consts  --      2.8372                 1.2177                 2.0931
 IR Inten    --     20.7607                12.3646                26.8748

                     40                     41                     42
                      A                      A                      A
 Frequencies --   1024.4089              1034.0729              1083.5502
 Red. masses --      3.2274                 3.0826                 2.2563
 Frc consts  --      1.9955                 1.9421                 1.5608
 IR Inten    --     26.5674                 4.2931                24.7423

                     43                     44                     45
                      A                      A                      A
 Frequencies --   1104.3195              1111.3118              1144.6160
 Red. masses --      1.6451                 1.9470                 2.1902
 Frc consts  --      1.1820                 1.4167                 1.6907
 IR Inten    --     17.4842                26.5608                12.3155

                     46                     47                     48
                      A                      A                      A
 Frequencies --   1148.7056              1168.4396              1197.6366
 Red. masses --      2.2495                 1.5800                 1.9085
 Frc consts  --      1.7488                 1.2709                 1.6128
 IR Inten    --     22.4376                47.7307               115.5745

                     49                     50                     51
                      A                      A                      A
 Frequencies --   1237.5078              1262.4490              1274.5028
 Red. masses --      1.5184                 2.3380                 1.3811
 Frc consts  --      1.3700                 2.1954                 1.3217
 IR Inten    --     13.9121                10.4333                 3.0453

                     52                     53                     54
                      A                      A                      A
 Frequencies --   1289.6440              1298.1475              1325.1527
 Red. masses --      1.2914                 1.3632                 1.3521
 Frc consts  --      1.2654                 1.3535                 1.3989
 IR Inten    --      1.7531                 4.0952                10.9950

                     55                     56                     57
                      A                      A                      A
 Frequencies --   1328.3651              1353.0651              1360.8181
 Red. masses --      1.3252                 1.2871                 1.4273
 Frc consts  --      1.3778                 1.3884                 1.5573
 IR Inten    --      6.3801                 3.2123                18.4147

                     58                     59                     60
                      A                      A                      A
 Frequencies --   1389.9917              1406.6005              1426.5333
 Red. masses --      3.1445                 1.3443                 2.7619
 Frc consts  --      3.5795                 1.5670                 3.3115
 IR Inten    --      4.1601                22.3723                55.3947

                     61                     62                     63
                      A                      A                      A
 Frequencies --   1432.4690              1478.6927              1482.9671
 Red. masses --      2.7883                 1.1143                 1.1646
 Frc consts  --      3.3711                 1.4355                 1.5090
 IR Inten    --    157.1463                 1.2710                10.9016

                     64                     65                     66
                      A                      A                      A
 Frequencies --   1497.2009              1507.1928              1516.8025
 Red. masses --      3.2049                 1.0731                 1.1768
 Frc consts  --      4.2327                 1.4363                 1.5952
 IR Inten    --     33.1914                14.9913               182.1353

                     67                     68                     69
                      A                      A                      A
 Frequencies --   1548.6880              1610.8712              1664.0240
 Red. masses --      2.3202                 4.5808                 1.0420
 Frc consts  --      3.2787                 7.0035                 1.6999
 IR Inten    --    290.2572                 5.4796                47.7459

                     70                     71                     72
                      A                      A                      A
 Frequencies --   1668.0488              1740.7001              1800.5422
 Red. masses --      1.0437                10.0496                 9.7147
 Frc consts  --      1.7110                17.9411                18.5560
 IR Inten    --     39.2715               351.0542               287.7763

                     73                     74                     75
                      A                      A                      A
 Frequencies --   3025.3590              3040.7415              3082.9182
 Red. masses --      1.0633                 1.0612                 1.1003
 Frc consts  --      5.7341                 5.7809                 6.1614
 IR Inten    --      3.9811                15.0560                 5.5574

                     76                     77                     78
                      A                      A                      A
 Frequencies --   3086.6102              3096.3567              3105.2621
 Red. masses --      1.0985                 1.0594                 1.0892
 Frc consts  --      6.1664                 5.9846                 6.1883
 IR Inten    --      3.5119                 5.1156                 4.0790

                     79                     80                     81
                      A                      A                      A
 Frequencies --   3156.5037              3231.2188              3246.9063
 Red. masses --      1.1119                 1.0971                 1.0989
 Frc consts  --      6.5270                 6.7488                 6.8255
 IR Inten    --      2.8049                 4.0941                 1.2389

                     82                     83                     84
                      A                      A                      A
 Frequencies --   3399.2482              3476.9174              3479.2219
 Red. masses --      1.0300                 1.0932                 1.0934
 Frc consts  --      7.0122                 7.7861                 7.7984
 IR Inten    --     53.8712                90.6913                90.4216

                     85                     86                     87
                      A                      A                      A
 Frequencies --   3562.8466              3644.2169              3739.4081
 Red. masses --      1.0784                 1.0814                 1.0646
 Frc consts  --      8.0656                 8.4614                 8.7711
 IR Inten    --    104.1789                50.1096               113.9295

 - Thermochemistry -
 -------------------
 Temperature   298.150 Kelvin.  Pressure   1.00000 Atm.
 Atom     1 has atomic number  8 and mass  15.99491

 Molecular mass:   227.11442 amu.
 Principal axes and moments of inertia in atomic units:
                           1         2         3
     Eigenvalues --  1611.141498141.973199106.71378
           X            0.98468  -0.10201  -0.14143
           Y            0.17251   0.45126   0.87556
           Z            0.02549   0.88654  -0.46195
 This molecule is an asymmetric top.
 Rotational symmetry number  1.
 Warning -- assumption of classical behavior for rotation
           may cause significant error
 Rotational temperatures (Kelvin)      0.05376     0.01064     0.00951
 Rotational constants (GHZ):           1.12016     0.22166     0.19818
 Zero-point vibrational energy     678934.6 (Joules/Mol)
                                  162.26927 (Kcal/Mol)
 Warning -- explicit consideration of  22 degrees of freedom as
           vibrations may cause significant error
 Vibrational temperatures:     20.67    34.85    56.24    72.28    94.14
          (Kelvin)            101.11   109.66   149.04   168.30   257.16
                              310.11   340.09   378.35   455.95   478.38
                              495.01   528.03   559.96   731.54   766.40
                              806.70   873.04   906.25   934.72   952.25
                              970.02  1032.78  1080.45  1108.92  1143.36
                             1177.47  1182.69  1227.04  1275.65  1322.14
                             1344.07  1351.81  1417.36  1435.27  1473.89
                             1487.80  1558.99  1588.87  1598.93  1646.85
                             1652.73  1681.12  1723.13  1780.50  1816.38
                             1833.72  1855.51  1867.74  1906.60  1911.22
                             1946.76  1957.91  1999.89  2023.78  2052.46
                             2061.00  2127.51  2133.66  2154.14  2168.51
                             2182.34  2228.21  2317.68  2394.16  2399.95
                             2504.48  2590.58  4352.81  4374.94  4435.63
                             4440.94  4454.96  4467.77  4541.50  4649.00
                             4671.57  4890.75  5002.50  5005.82  5126.14
                             5243.21  5380.17

 Zero-point correction=                           0.258593 (Hartree/Particle)
 Thermal correction to Energy=                    0.275175
 Thermal correction to Enthalpy=                  0.276119
 Thermal correction to Gibbs Free Energy=         0.210343
 Sum of electronic and zero-point Energies=           -796.486152
 Sum of electronic and thermal Energies=              -796.469570
 Sum of electronic and thermal Enthalpies=            -796.468626
 Sum of electronic and thermal Free Energies=         -796.534401

                     E (Thermal)             CV                S
                      KCal/Mol        Cal/Mol-Kelvin    Cal/Mol-Kelvin
 Total                  172.675             59.168            138.437
 Electronic               0.000              0.000              0.000
 Translational            0.889              2.981             42.163
 Rotational               0.889              2.981             33.146
 Vibrational            170.897             53.206             63.127
 Vibration     1          0.593              1.986              7.291
 Vibration     2          0.593              1.985              6.254
 Vibration     3          0.594              1.981              5.305
 Vibration     4          0.595              1.978              4.808
 Vibration     5          0.597              1.971              4.286
 Vibration     6          0.598              1.968              4.146
 Vibration     7          0.599              1.965              3.986
 Vibration     8          0.605              1.946              3.386
 Vibration     9          0.608              1.935              3.150
 Vibration    10          0.629              1.868              2.342
 Vibration    11          0.645              1.817              1.996
 Vibration    12          0.655              1.785              1.830
 Vibration    13          0.670              1.741              1.642
 Vibration    14          0.704              1.641              1.326
 Vibration    15          0.714              1.611              1.248
 Vibration    16          0.723              1.587              1.193
 Vibration    17          0.740              1.540              1.092
 Vibration    18          0.757              1.493              1.003
 Vibration    19          0.864              1.231              0.637
 Vibration    20          0.888              1.178              0.581
 Vibration    21          0.916              1.116              0.522
 Vibration    22          0.966              1.017              0.438

 Normal termination of Gaussian 09 at Sat Jul 24 04:12:46 2021.
