 Gaussian 09, Revision D.01,
 Gaussian 09:  ES64L-G09RevD.01 24-Apr-2013

 ----------------------------------------------------------------------
 # B3LYP/6-311++G(d,p) EmpiricalDispersion=GD3BJ opt=calcfc freq=norama
 n nosymm integral(ultrafinegrid)
 ----------------------------------------------------------------------

 ------------------------------------------------------------
 Candidate Structure: Conf:715 OPT and FREQ calc in gas phase
 ------------------------------------------------------------
 Symbolic Z-matrix:
 Charge =  1 Multiplicity = 1

 SCF Done:  E(RB3LYP) =  -796.752201292     A.U. after   15 cycles
 SCF Done:  E(RB3LYP) =  -796.760329271     A.U. after   14 cycles
 SCF Done:  E(RB3LYP) =  -796.756401194     A.U. after   16 cycles
 SCF Done:  E(RB3LYP) =  -796.761767573     A.U. after   12 cycles
 SCF Done:  E(RB3LYP) =  -796.763885897     A.U. after   13 cycles
 SCF Done:  E(RB3LYP) =  -796.764605661     A.U. after   14 cycles
 SCF Done:  E(RB3LYP) =  -796.764854813     A.U. after   12 cycles
 SCF Done:  E(RB3LYP) =  -796.764980526     A.U. after   13 cycles
 SCF Done:  E(RB3LYP) =  -796.765121308     A.U. after   12 cycles
 SCF Done:  E(RB3LYP) =  -796.765375075     A.U. after   14 cycles
 SCF Done:  E(RB3LYP) =  -796.765666529     A.U. after   10 cycles
 SCF Done:  E(RB3LYP) =  -796.765667126     A.U. after    9 cycles
 SCF Done:  E(RB3LYP) =  -796.765667413     A.U. after    9 cycles
 SCF Done:  E(RB3LYP) =  -796.765667568     A.U. after    9 cycles
 SCF Done:  E(RB3LYP) =  -796.765667683     A.U. after    9 cycles
 SCF Done:  E(RB3LYP) =  -796.765667839     A.U. after    9 cycles
 SCF Done:  E(RB3LYP) =  -796.765668039     A.U. after   10 cycles
 SCF Done:  E(RB3LYP) =  -796.765668236     A.U. after   10 cycles
 SCF Done:  E(RB3LYP) =  -796.765668303     A.U. after    9 cycles
 Optimization completed.
    -- Stationary point found.
 Normal termination of Gaussian 09 at Sat Jul 24 04:58:11 2021.

 ----------------------------------------------------------------------
 #N Geom=AllCheck Guess=TCheck SCRF=Check GenChk RB3LYP/6-311++G(d,p) F
 req
 ----------------------------------------------------------------------

 Structure from the checkpoint file:  "conf-715.chk"
 ------------------------------------------------------------
 Candidate Structure: Conf:715 OPT and FREQ calc in gas phase
 ------------------------------------------------------------
 Charge =  1 Multiplicity = 1

                          Input orientation:
 ---------------------------------------------------------------------
 Center     Atomic      Atomic             Coordinates (Angstroms)
 Number     Number       Type             X           Y           Z
 ---------------------------------------------------------------------
      1          8           0       -2.229834    1.343220   -0.027785
      2          6           0       -1.554444    0.577739    0.678880
      3          7           0       -0.241310    0.754185    0.873965
      4          6           0        0.523854    1.583028   -0.037614
      5          6           0        0.355031    1.026804   -1.468348
      6          8           0        0.850427    1.792175   -2.454956
      7          8           0       -0.146349   -0.037834   -1.713388
      8          6           0        2.016534    1.582813    0.401266
      9          6           0        2.558237    0.207399    0.591876
     10          6           0        2.659458   -0.569408    1.725123
     11          7           0        3.113728   -1.830194    1.414278
     12          6           0        3.292848   -1.830906    0.114506
     13          7           0        2.964510   -0.622892   -0.438126
     14          6           0       -2.204339   -0.672187    1.244508
     15          6           0       -2.679019   -1.521030    0.054179
     16          7           0       -3.627598   -0.703405   -0.800906
     17          1           0        0.287881    0.015959    1.329652
     18          1           0        0.134586    2.603986   -0.014576
     19          1           0        1.150943    2.654060   -2.136196
     20          1           0        2.607542    2.151836   -0.321382
     21          1           0        2.082338    2.120866    1.348491
     22          1           0        2.467563   -0.273946    2.746552
     23          1           0        3.658395   -2.656687   -0.476202
     24          1           0        3.033184   -0.383456   -1.416269
     25          1           0       -1.516495   -1.272000    1.841696
     26          1           0       -3.045081   -0.386310    1.881990
     27          1           0       -3.189723   -2.426888    0.375499
     28          1           0       -1.835876   -1.780342   -0.585041
     29          1           0       -3.271381    0.299859   -0.735451
     30          1           0       -3.629417   -1.014195   -1.773211
     31          1           0       -4.586030   -0.732239   -0.449401
 ---------------------------------------------------------------------

 SCF Done:  E(RB3LYP) =  -796.765668303     A.U. after    1 cycles

 Alpha  occ. eigenvalues --  -19.31234 -19.26028 -19.25432 -14.58496 -14.49735
 Alpha  occ. eigenvalues --  -14.48308 -14.40182 -10.44885 -10.44121 -10.40221
 Alpha  occ. eigenvalues --  -10.37890 -10.35463 -10.33473 -10.33304 -10.32729
 Alpha  occ. eigenvalues --  -10.29871  -1.25273  -1.21515  -1.17121  -1.15587
 Alpha  occ. eigenvalues --   -1.13168  -1.09442  -0.98776  -0.96338  -0.93474
 Alpha  occ. eigenvalues --   -0.87258  -0.83208  -0.80117  -0.77223  -0.76043
 Alpha  occ. eigenvalues --   -0.75086  -0.73606  -0.72899  -0.71005  -0.69254
 Alpha  occ. eigenvalues --   -0.67618  -0.66716  -0.64723  -0.62897  -0.60927
 Alpha  occ. eigenvalues --   -0.60055  -0.59510  -0.57680  -0.57423  -0.57253
 Alpha  occ. eigenvalues --   -0.56703  -0.55589  -0.54148  -0.53404  -0.52652
 Alpha  occ. eigenvalues --   -0.52346  -0.52060  -0.51343  -0.46822  -0.44093
 Alpha  occ. eigenvalues --   -0.43226  -0.41928  -0.39882  -0.37958  -0.34941
 Alpha virt. eigenvalues --   -0.16662  -0.15525  -0.14636  -0.12969  -0.11952
 Alpha virt. eigenvalues --   -0.11664  -0.10409  -0.09800  -0.09104  -0.08310
 Alpha virt. eigenvalues --   -0.08132  -0.07406  -0.06988  -0.06485  -0.05913

 Mulliken charges:
               1
     1  O   -0.278088
     2  C   -0.143234
     3  N    0.050105
     4  C    0.161484
     5  C   -0.285606
     6  O   -0.050871
     7  O   -0.210162
     8  C   -1.188829
     9  C    0.719520
    10  C   -0.573089
    11  N   -0.072450
    12  C    0.078338
    13  N   -0.125196
    14  C   -0.251022
    15  C   -0.553818
    16  N   -0.296277
    17  H    0.276304
    18  H    0.311561
    19  H    0.272470
    20  H    0.212844
    21  H    0.231855
    22  H    0.159287
    23  H    0.184711
    24  H    0.340328
    25  H    0.208693
    26  H    0.246102
    27  H    0.259310
    28  H    0.265297
    29  H    0.375935
    30  H    0.337901
    31  H    0.336597
 Sum of Mulliken charges =   1.00000

 Dipole moment (field-independent basis, Debye):
    X=             -8.3219    Y=              0.2611    Z=             -1.7964  Tot=              8.5175
 Quadrupole moment (field-independent basis, Debye-Ang):
   XX=            -39.4326   YY=            -79.4083   ZZ=            -88.7677
   XY=             24.8933   XZ=             -4.5069   YZ=              3.6526

  Exact polarizability: 145.016  -2.055 137.290   3.254  -7.695 127.575
 Approx polarizability: 188.263  -4.530 216.860   3.448 -11.371 203.564

                      1                      2                      3
                      A                      A                      A
 Frequencies --      8.6301                28.1399                48.8324
 Red. masses --      3.8448                 5.4643                 5.8286
 Frc consts  --      0.0002                 0.0025                 0.0082
 IR Inten    --     16.7465                 2.9116                 5.6104

                      4                      5                      6
                      A                      A                      A
 Frequencies --     65.0660                72.5078                86.7989
 Red. masses --      5.1012                 4.3142                 5.8679
 Frc consts  --      0.0127                 0.0134                 0.0260
 IR Inten    --      7.7307                16.5264                11.4373

                      7                      8                      9
                      A                      A                      A
 Frequencies --    123.5089               148.3209               201.7682
 Red. masses --      3.9138                 6.9122                 4.1519
 Frc consts  --      0.0352                 0.0896                 0.0996
 IR Inten    --      0.6739                 4.8047                 3.6494

                     10                     11                     12
                      A                      A                      A
 Frequencies --    215.8293               251.7783               307.4470
 Red. masses --      2.9084                 5.5797                 2.0293
 Frc consts  --      0.0798                 0.2084                 0.1130
 IR Inten    --     18.7706                20.6146                46.0575

                     13                     14                     15
                      A                      A                      A
 Frequencies --    334.6884               344.0398               360.0263
 Red. masses --      2.4773                 1.9580                 2.7285
 Frc consts  --      0.1635                 0.1365                 0.2084
 IR Inten    --      7.0145                15.1978                14.8030

                     16                     17                     18
                      A                      A                      A
 Frequencies --    384.0150               443.4656               465.1248
 Red. masses --      3.3254                 3.6541                 2.2684
 Frc consts  --      0.2889                 0.4234                 0.2891
 IR Inten    --     25.5191                25.5191               101.7926

                     19                     20                     21
                      A                      A                      A
 Frequencies --    506.0563               525.2433               554.2773
 Red. masses --      1.4080                 2.7503                 1.4848
 Frc consts  --      0.2124                 0.4470                 0.2688
 IR Inten    --     28.7453                 2.6869                68.2755

                     22                     23                     24
                      A                      A                      A
 Frequencies --    603.1562               640.8077               671.2975
 Red. masses --      3.4176                 3.9795                 2.5995
 Frc consts  --      0.7325                 0.9628                 0.6902
 IR Inten    --      7.4434                 2.5964                31.5869

                     25                     26                     27
                      A                      A                      A
 Frequencies --    676.9728               693.3178               695.8495
 Red. masses --      3.3128                 3.9571                 1.4582
 Frc consts  --      0.8945                 1.1207                 0.4160
 IR Inten    --     31.0194                 9.1720                32.8798

                     28                     29                     30
                      A                      A                      A
 Frequencies --    749.6645               777.8232               834.7155
 Red. masses --      3.6206                 4.8038                 2.3543
 Frc consts  --      1.1989                 1.7124                 0.9665
 IR Inten    --      9.9882                 2.0151                20.4419

                     31                     32                     33
                      A                      A                      A
 Frequencies --    839.0387               850.5228               861.9367
 Red. masses --      1.3966                 2.1868                 1.9516
 Frc consts  --      0.5793                 0.9320                 0.8542
 IR Inten    --     36.1516                 2.1073                 6.5799

                     34                     35                     36
                      A                      A                      A
 Frequencies --    889.3983               937.1825               944.0821
 Red. masses --      1.9519                 4.2953                 2.9237
 Frc consts  --      0.9097                 2.2227                 1.5353
 IR Inten    --     52.3072                14.4846                 4.2587

                     37                     38                     39
                      A                      A                      A
 Frequencies --    957.9054               961.2232               996.3649
 Red. masses --      1.8872                 1.7849                 2.9256
 Frc consts  --      1.0203                 0.9717                 1.7112
 IR Inten    --     10.3143                 0.7068                 3.6634

                     40                     41                     42
                      A                      A                      A
 Frequencies --   1007.1999              1042.4912              1104.0494
 Red. masses --      3.6741                 2.7576                 1.7698
 Frc consts  --      2.1960                 1.7657                 1.2710
 IR Inten    --     16.1402                 7.4693                14.5764

                     43                     44                     45
                      A                      A                      A
 Frequencies --   1110.0220              1127.7364              1134.2907
 Red. masses --      1.6822                 1.5159                 1.5969
 Frc consts  --      1.2212                 1.1359                 1.2105
 IR Inten    --     17.9357                57.8235                 0.0896

                     46                     47                     48
                      A                      A                      A
 Frequencies --   1149.2173              1165.4988              1209.6701
 Red. masses --      2.1252                 1.8526                 1.7206
 Frc consts  --      1.6537                 1.4827                 1.4834
 IR Inten    --     18.8317                 6.7385                39.0167

                     49                     50                     51
                      A                      A                      A
 Frequencies --   1235.4257              1255.8615              1264.9960
 Red. masses --      1.4631                 1.4633                 2.1763
 Frc consts  --      1.3157                 1.3598                 2.0519
 IR Inten    --     17.2602                41.1632                 5.5503

                     52                     53                     54
                      A                      A                      A
 Frequencies --   1281.2727              1288.5006              1319.5403
 Red. masses --      1.6199                 1.4016                 1.5654
 Frc consts  --      1.5668                 1.3711                 1.6059
 IR Inten    --    214.6124               127.2294                36.8812

                     55                     56                     57
                      A                      A                      A
 Frequencies --   1332.9681              1363.4397              1376.8976
 Red. masses --      1.3840                 1.4955                 1.6031
 Frc consts  --      1.4489                 1.6379                 1.7907
 IR Inten    --     17.2937                11.5635                36.5869

                     58                     59                     60
                      A                      A                      A
 Frequencies --   1389.5118              1402.5409              1417.7231
 Red. masses --      2.1336                 1.9188                 1.2776
 Frc consts  --      2.4271                 2.2239                 1.5130
 IR Inten    --      4.2186                41.7112                13.9895

                     61                     62                     63
                      A                      A                      A
 Frequencies --   1427.3619              1478.2105              1484.1295
 Red. masses --      2.6159                 1.1833                 1.1116
 Frc consts  --      3.1400                 1.5234                 1.4426
 IR Inten    --     27.2369                26.8006                15.1697

                     64                     65                     66
                      A                      A                      A
 Frequencies --   1493.7890              1497.5713              1511.0446
 Red. masses --      1.2414                 2.8452                 1.1350
 Frc consts  --      1.6321                 3.7595                 1.5269
 IR Inten    --    319.0795                30.4515               324.5409

                     67                     68                     69
                      A                      A                      A
 Frequencies --   1570.1325              1600.7529              1631.8148
 Red. masses --      2.1513                 4.1724                 1.1735
 Frc consts  --      3.1248                 6.2992                 1.8411
 IR Inten    --    217.8310                 7.8935                 9.1012

                     70                     71                     72
                      A                      A                      A
 Frequencies --   1672.6939              1695.6848              1824.9364
 Red. masses --      1.0557                 3.1594                10.2994
 Frc consts  --      1.7403                 5.3523                20.2097
 IR Inten    --     37.4480               179.8385               223.0503

                     73                     74                     75
                      A                      A                      A
 Frequencies --   2748.1103              3052.9530              3062.3826
 Red. masses --      1.0846                 1.0652                 1.0631
 Frc consts  --      4.8261                 5.8497                 5.8741
 IR Inten    --    771.9413                11.8890                 1.4320

                     76                     77                     78
                      A                      A                      A
 Frequencies --   3071.1016              3094.6736              3102.7859
 Red. masses --      1.0842                 1.0606                 1.1004
 Frc consts  --      6.0251                 5.9848                 6.2417
 IR Inten    --      8.5420                 2.1053                 2.4397

                     79                     80                     81
                      A                      A                      A
 Frequencies --   3119.0034              3154.9820              3222.3334
 Red. masses --      1.1021                 1.1126                 1.0971
 Frc consts  --      6.3171                 6.5250                 6.7119
 IR Inten    --      1.2834                 0.0903                 3.3565

                     82                     83                     84
                      A                      A                      A
 Frequencies --   3249.2044              3460.3298              3500.5747
 Red. masses --      1.0993                 1.0524                 1.0786
 Frc consts  --      6.8378                 7.4248                 7.7876
 IR Inten    --      1.8215                91.2574               221.1232

                     85                     86                     87
                      A                      A                      A
 Frequencies --   3523.6862              3633.2480              3785.8171
 Red. masses --      1.0947                 1.0819                 1.0665
 Frc consts  --      8.0082                 8.4143                 9.0060
 IR Inten    --     78.5795                64.8389                77.0904

 - Thermochemistry -
 -------------------
 Temperature   298.150 Kelvin.  Pressure   1.00000 Atm.
 Atom     1 has atomic number  8 and mass  15.99491

 Molecular mass:   227.11442 amu.
 Principal axes and moments of inertia in atomic units:
                           1         2         3
     Eigenvalues --  2295.078114915.471085718.38411
           X            0.98952   0.13967  -0.03664
           Y           -0.08242   0.75466   0.65092
           Z            0.11856  -0.64108   0.75826
 This molecule is an asymmetric top.
 Rotational symmetry number  1.
 Warning -- assumption of classical behavior for rotation
           may cause significant error
 Rotational temperatures (Kelvin)      0.03774     0.01762     0.01515
 Rotational constants (GHZ):           0.78635     0.36716     0.31560
 Zero-point vibrational energy     680106.8 (Joules/Mol)
                                  162.54944 (Kcal/Mol)
 Warning -- explicit consideration of  22 degrees of freedom as
           vibrations may cause significant error
 Vibrational temperatures:     12.42    40.49    70.26    93.62   104.32
          (Kelvin)            124.88   177.70   213.40   290.30   310.53
                              362.25   442.35   481.54   495.00   518.00
                              552.51   638.05   669.21   728.10   755.71
                              797.48   867.81   921.98   965.85   974.01
                              997.53  1001.17  1078.60  1119.11  1200.97
                             1207.19  1223.71  1240.13  1279.64  1348.39
                             1358.32  1378.21  1382.98  1433.55  1449.13
                             1499.91  1588.48  1597.07  1622.56  1631.99
                             1653.47  1676.89  1740.44  1777.50  1806.90
                             1820.04  1843.46  1853.86  1898.52  1917.84
                             1961.68  1981.05  1999.20  2017.94  2039.78
                             2053.65  2126.81  2135.33  2149.23  2154.67
                             2174.05  2259.07  2303.12  2347.81  2406.63
                             2439.71  2625.67  3953.91  4392.51  4406.08
                             4418.62  4452.54  4464.21  4487.54  4539.31
                             4636.21  4674.87  4978.64  5036.54  5069.79
                             5227.43  5446.94

 Zero-point correction=                           0.259039 (Hartree/Particle)
 Thermal correction to Energy=                    0.274625
 Thermal correction to Enthalpy=                  0.275569
 Thermal correction to Gibbs Free Energy=         0.212971
 Sum of electronic and zero-point Energies=           -796.506629
 Sum of electronic and thermal Energies=              -796.491043
 Sum of electronic and thermal Enthalpies=            -796.490099
 Sum of electronic and thermal Free Energies=         -796.552697

                     E (Thermal)             CV                S
                      KCal/Mol        Cal/Mol-Kelvin    Cal/Mol-Kelvin
 Total                  172.330             57.831            131.749
 Electronic               0.000              0.000              0.000
 Translational            0.889              2.981             42.163
 Rotational               0.889              2.981             32.534
 Vibrational            170.552             51.870             57.052
 Vibration     1          0.593              1.987              8.304
 Vibration     2          0.593              1.984              5.956
 Vibration     3          0.595              1.978              4.864
 Vibration     4          0.597              1.971              4.297
 Vibration     5          0.599              1.967              4.084
 Vibration     6          0.601              1.958              3.731
 Vibration     7          0.610              1.929              3.045
 Vibration     8          0.618              1.904              2.694
 Vibration     9          0.639              1.837              2.117
 Vibration    10          0.645              1.817              1.994
 Vibration    11          0.664              1.760              1.718
 Vibration    12          0.697              1.660              1.376
 Vibration    13          0.716              1.606              1.237
 Vibration    14          0.723              1.587              1.193
 Vibration    15          0.735              1.555              1.122
 Vibration    16          0.753              1.504              1.023
 Vibration    17          0.803              1.375              0.816
 Vibration    18          0.823              1.327              0.751
 Vibration    19          0.861              1.237              0.643
 Vibration    20          0.880              1.194              0.598
 Vibration    21          0.910              1.130              0.535
 Vibration    22          0.962              1.025              0.444

 Normal termination of Gaussian 09 at Sat Jul 24 06:17:56 2021.
