 Gaussian 09, Revision D.01,
 Gaussian 09:  ES64L-G09RevD.01 24-Apr-2013

 ----------------------------------------------------------------------
 # B3LYP/6-311++G(d,p) EmpiricalDispersion=GD3BJ opt=calcfc freq=norama
 n nosymm integral(ultrafinegrid)
 ----------------------------------------------------------------------

 ------------------------------------------------------------
 Candidate Structure: Conf:214 OPT and FREQ calc in gas phase
 ------------------------------------------------------------
 Symbolic Z-matrix:
 Charge =  1 Multiplicity = 1

 SCF Done:  E(RB3LYP) =  -796.730692706     A.U. after   17 cycles
 SCF Done:  E(RB3LYP) =  -796.735855736     A.U. after   14 cycles
 SCF Done:  E(RB3LYP) =  -796.736750230     A.U. after   14 cycles
 SCF Done:  E(RB3LYP) =  -796.736909621     A.U. after   14 cycles
 SCF Done:  E(RB3LYP) =  -796.736804810     A.U. after   16 cycles
 SCF Done:  E(RB3LYP) =  -796.719527859     A.U. after   14 cycles
 SCF Done:  E(RB3LYP) =  -796.736935303     A.U. after   11 cycles
 SCF Done:  E(RB3LYP) =  -796.737020728     A.U. after   14 cycles
 SCF Done:  E(RB3LYP) =  -796.737052001     A.U. after   14 cycles
 SCF Done:  E(RB3LYP) =  -796.737571370     A.U. after   16 cycles
 SCF Done:  E(RB3LYP) =  -796.771443497     A.U. after   13 cycles
 SCF Done:  E(RB3LYP) =  -796.771804291     A.U. after   10 cycles
 SCF Done:  E(RB3LYP) =  -796.771935559     A.U. after   12 cycles
 SCF Done:  E(RB3LYP) =  -796.771957925     A.U. after   12 cycles
 SCF Done:  E(RB3LYP) =  -796.771955736     A.U. after   12 cycles
 SCF Done:  E(RB3LYP) =  -796.771972614     A.U. after   11 cycles
 SCF Done:  E(RB3LYP) =  -796.771973178     A.U. after   10 cycles
 SCF Done:  E(RB3LYP) =  -796.771973352     A.U. after    9 cycles
 SCF Done:  E(RB3LYP) =  -796.771973437     A.U. after   10 cycles
 Optimization completed.
    -- Stationary point found.
 Normal termination of Gaussian 09 at Sat Jul 24 10:02:58 2021.

 ----------------------------------------------------------------------
 #N Geom=AllCheck Guess=TCheck SCRF=Check GenChk RB3LYP/6-311++G(d,p) F
 req
 ----------------------------------------------------------------------

 Structure from the checkpoint file:  "conf-214.chk"
 ------------------------------------------------------------
 Candidate Structure: Conf:214 OPT and FREQ calc in gas phase
 ------------------------------------------------------------
 Charge =  1 Multiplicity = 1

                          Input orientation:
 ---------------------------------------------------------------------
 Center     Atomic      Atomic             Coordinates (Angstroms)
 Number     Number       Type             X           Y           Z
 ---------------------------------------------------------------------
      1          8           0       -1.243927   -1.607036   -0.855079
      2          6           0       -1.090515   -0.980319    0.179316
      3          7           0       -0.010389   -1.128846    0.987649
      4          6           0        1.176482   -1.858253    0.570718
      5          6           0        2.186133   -1.743481    1.711646
      6          8           0        3.038079   -2.757604    1.881643
      7          8           0        2.271783   -0.740566    2.376457
      8          6           0        1.855361   -1.247839   -0.725154
      9          6           0        1.528171    0.198236   -0.839063
     10          6           0        0.543277    0.789046   -1.583237
     11          7           0        0.288247    2.063588   -1.115862
     12          6           0        1.140690    2.262922   -0.117814
     13          7           0        1.910963    1.166614    0.073978
     14          6           0       -2.151019    0.014715    0.675000
     15          6           0       -2.899597    0.682418   -0.482096
     16          7           0       -2.403554    2.082420   -0.780036
     17          1           0        0.132001   -0.493926    1.762543
     18          1           0        0.913491   -2.898086    0.366219
     19          1           0        2.812093   -3.522029    1.334910
     20          1           0        2.930667   -1.442509   -0.698579
     21          1           0        1.449096   -1.754928   -1.598402
     22          1           0       -0.026373    0.346999   -2.383936
     23          1           0        1.236037    3.163840    0.467277
     24          1           0        2.569086    1.033909    0.831731
     25          1           0       -1.725923    0.751523    1.362658
     26          1           0       -2.871214   -0.566890    1.256987
     27          1           0       -3.963867    0.772002   -0.270114
     28          1           0       -2.771766    0.088508   -1.387259
     29          1           0       -1.328050    2.156827   -0.956512
     30          1           0       -2.872210    2.453458   -1.608932
     31          1           0       -2.623266    2.715396   -0.008848
 ---------------------------------------------------------------------

 SCF Done:  E(RB3LYP) =  -796.771973437     A.U. after    1 cycles

 Alpha  occ. eigenvalues --  -19.30899 -19.25148 -19.23027 -14.57169 -14.51254
 Alpha  occ. eigenvalues --  -14.48152 -14.45654 -10.44828 -10.41847 -10.38721
 Alpha  occ. eigenvalues --  -10.37802 -10.37591 -10.34930 -10.34300 -10.33003
 Alpha  occ. eigenvalues --  -10.32749  -1.25102  -1.18794  -1.17070  -1.16763
 Alpha  occ. eigenvalues --   -1.14367  -1.07570  -1.02531  -0.95145  -0.93318
 Alpha  occ. eigenvalues --   -0.88904  -0.83137  -0.80683  -0.77078  -0.76353
 Alpha  occ. eigenvalues --   -0.74361  -0.73545  -0.72885  -0.71751  -0.69343
 Alpha  occ. eigenvalues --   -0.68092  -0.65472  -0.63586  -0.63443  -0.61585
 Alpha  occ. eigenvalues --   -0.60294  -0.59160  -0.58967  -0.58518  -0.56770
 Alpha  occ. eigenvalues --   -0.56208  -0.55503  -0.54474  -0.54149  -0.53424
 Alpha  occ. eigenvalues --   -0.52705  -0.51513  -0.50196  -0.46468  -0.45128
 Alpha  occ. eigenvalues --   -0.43707  -0.42378  -0.40829  -0.40306  -0.37552
 Alpha virt. eigenvalues --   -0.15959  -0.15032  -0.13875  -0.13422  -0.12222
 Alpha virt. eigenvalues --   -0.11988  -0.10967  -0.10234  -0.09958  -0.08889
 Alpha virt. eigenvalues --   -0.08333  -0.08177  -0.07778  -0.07080  -0.06360

 Mulliken charges:
               1
     1  O   -0.259895
     2  C   -0.158938
     3  N    0.167416
     4  C   -0.008728
     5  C   -0.202744
     6  O   -0.086452
     7  O   -0.265725
     8  C   -0.764178
     9  C    0.664385
    10  C   -0.707019
    11  N   -0.150406
    12  C   -0.029964
    13  N   -0.158117
    14  C   -0.193868
    15  C   -0.496899
    16  N   -0.415454
    17  H    0.223327
    18  H    0.291091
    19  H    0.274894
    20  H    0.234732
    21  H    0.228964
    22  H    0.222326
    23  H    0.198323
    24  H    0.355122
    25  H    0.152960
    26  H    0.255892
    27  H    0.237467
    28  H    0.253928
    29  H    0.473954
    30  H    0.334494
    31  H    0.329107
 Sum of Mulliken charges =   1.00000

 Dipole moment (field-independent basis, Debye):
    X=             -4.7494    Y=              3.8949    Z=             -0.5410  Tot=              6.1660
 Quadrupole moment (field-independent basis, Debye-Ang):
   XX=            -59.9807   YY=            -62.2565   ZZ=            -94.5892
   XY=            -24.4210   XZ=             -0.9782   YZ=             -2.8236

  Exact polarizability: 142.116 -18.872 142.041  15.370  -0.537 118.968
 Approx polarizability: 196.677 -20.444 215.685  27.792  21.127 198.752

                      1                      2                      3
                      A                      A                      A
 Frequencies --     44.4546                65.0853                80.1195
 Red. masses --      6.0685                 3.7493                 4.7718
 Frc consts  --      0.0071                 0.0094                 0.0180
 IR Inten    --      4.2349                10.2843                 0.1704

                      4                      5                      6
                      A                      A                      A
 Frequencies --    100.8966               111.0444               124.5593
 Red. masses --      4.8604                 4.5487                 4.2771
 Frc consts  --      0.0292                 0.0330                 0.0391
 IR Inten    --     15.6907                 5.9277                27.1833

                      7                      8                      9
                      A                      A                      A
 Frequencies --    134.3480               147.7382               191.7557
 Red. masses --      4.4081                 6.8121                 4.8681
 Frc consts  --      0.0469                 0.0876                 0.1055
 IR Inten    --      2.3388                 8.2903                 3.6394

                     10                     11                     12
                      A                      A                      A
 Frequencies --    253.3750               264.4544               294.2310
 Red. masses --      2.7817                 4.7449                 5.1000
 Frc consts  --      0.1052                 0.1955                 0.2601
 IR Inten    --     44.4956                51.9372                 9.1246

                     13                     14                     15
                      A                      A                      A
 Frequencies --    322.5732               332.3366               347.8871
 Red. masses --      3.3414                 2.5834                 4.1457
 Frc consts  --      0.2048                 0.1681                 0.2956
 IR Inten    --      4.5869                 7.0217                16.4307

                     16                     17                     18
                      A                      A                      A
 Frequencies --    392.6191               432.9500               470.7303
 Red. masses --      2.2093                 2.0212                 1.7065
 Frc consts  --      0.2007                 0.2232                 0.2228
 IR Inten    --     14.0957                10.2295                12.4345

                     19                     20                     21
                      A                      A                      A
 Frequencies --    512.9296               518.1938               579.4789
 Red. masses --      1.4351                 1.8209                 1.9074
 Frc consts  --      0.2225                 0.2881                 0.3774
 IR Inten    --     15.4656               117.1204                96.6333

                     22                     23                     24
                      A                      A                      A
 Frequencies --    623.9710               641.2711               643.2175
 Red. masses --      1.9338                 1.6963                 5.7003
 Frc consts  --      0.4436                 0.4110                 1.3895
 IR Inten    --     71.2814                19.3462                 5.4472

                     25                     26                     27
                      A                      A                      A
 Frequencies --    689.7641               693.5627               704.9116
 Red. masses --      3.2187                 2.4016                 3.6930
 Frc consts  --      0.9023                 0.6806                 1.0812
 IR Inten    --     34.0791                 4.9267                 5.3115

                     28                     29                     30
                      A                      A                      A
 Frequencies --    743.8121               778.9914               826.2677
 Red. masses --      4.3951                 3.9904                 1.8070
 Frc consts  --      1.4327                 1.4267                 0.7269
 IR Inten    --      1.4808                 1.7221                 4.0746

                     31                     32                     33
                      A                      A                      A
 Frequencies --    834.1742               844.8409               863.5181
 Red. masses --      1.7278                 2.6416                 1.7718
 Frc consts  --      0.7084                 1.1109                 0.7784
 IR Inten    --     31.9047                 6.5115                18.2626

                     34                     35                     36
                      A                      A                      A
 Frequencies --    896.2681               920.9302               933.7569
 Red. masses --      3.0940                 2.3792                 1.9027
 Frc consts  --      1.4644                 1.1889                 0.9774
 IR Inten    --      6.2866                 6.2381                 9.8412

                     37                     38                     39
                      A                      A                      A
 Frequencies --    964.5982               967.4303              1007.7993
 Red. masses --      2.0690                 5.5549                 2.8490
 Frc consts  --      1.1342                 3.0631                 1.7049
 IR Inten    --      0.7227                18.6709                 0.6812

                     40                     41                     42
                      A                      A                      A
 Frequencies --   1026.6708              1041.6884              1100.0616
 Red. masses --      2.7429                 2.9938                 2.7946
 Frc consts  --      1.7034                 1.9140                 1.9925
 IR Inten    --     19.2006                 2.8108                13.5912

                     43                     44                     45
                      A                      A                      A
 Frequencies --   1129.0199              1138.9013              1150.9292
 Red. masses --      1.4138                 1.8961                 1.7334
 Frc consts  --      1.0618                 1.4491                 1.3529
 IR Inten    --      5.1350                33.9223                 1.2709

                     46                     47                     48
                      A                      A                      A
 Frequencies --   1158.1468              1161.2811              1193.3514
 Red. masses --      1.5083                 1.4881                 1.4990
 Frc consts  --      1.1920                 1.1824                 1.2577
 IR Inten    --     17.6750                 4.0597                 7.6963

                     49                     50                     51
                      A                      A                      A
 Frequencies --   1229.7164              1258.2795              1265.4911
 Red. masses --      1.6335                 1.3655                 1.9583
 Frc consts  --      1.4554                 1.2738                 1.8478
 IR Inten    --     50.8234                82.0198                48.9618

                     52                     53                     54
                      A                      A                      A
 Frequencies --   1279.1830              1291.2809              1302.5672
 Red. masses --      1.3233                 1.4998                 1.7609
 Frc consts  --      1.2758                 1.4734                 1.7603
 IR Inten    --     59.9679                14.1645               170.2446

                     55                     56                     57
                      A                      A                      A
 Frequencies --   1338.3190              1360.3437              1368.6332
 Red. masses --      1.2339                 1.5676                 1.6818
 Frc consts  --      1.3021                 1.7092                 1.8561
 IR Inten    --      7.1294                 2.3511               141.1209

                     58                     59                     60
                      A                      A                      A
 Frequencies --   1379.4615              1404.3189              1417.2444
 Red. masses --      2.9295                 1.9112                 1.4427
 Frc consts  --      3.2844                 2.2206                 1.7073
 IR Inten    --     43.7500               152.0519                17.8260

                     61                     62                     63
                      A                      A                      A
 Frequencies --   1446.5602              1461.3466              1485.6877
 Red. masses --      2.2302                 1.0836                 1.2986
 Frc consts  --      2.7496                 1.3634                 1.6888
 IR Inten    --     23.7581                16.4391                17.3876

                     64                     65                     66
                      A                      A                      A
 Frequencies --   1505.2832              1512.3203              1537.5345
 Red. masses --      1.6517                 1.3180                 1.9684
 Frc consts  --      2.2051                 1.7761                 2.7417
 IR Inten    --     21.1571                37.8592               208.7441

                     67                     68                     69
                      A                      A                      A
 Frequencies --   1588.5548              1626.4906              1666.5567
 Red. masses --      1.1517                 4.1933                 1.0345
 Frc consts  --      1.7123                 6.5360                 1.6929
 IR Inten    --     80.1951                24.4003                23.9571

                     70                     71                     72
                      A                      A                      A
 Frequencies --   1710.0617              1750.0204              1814.1445
 Red. masses --      1.0466                 9.3218                 9.3312
 Frc consts  --      1.8033                16.8203                18.0940
 IR Inten    --     27.1231               240.2250               158.5751

                     73                     74                     75
                      A                      A                      A
 Frequencies --   2311.2797              3047.4323              3059.3148
 Red. masses --      1.1116                 1.0621                 1.0683
 Frc consts  --      3.4986                 5.8116                 5.8908
 IR Inten    --   2103.5679                 6.0916                 7.5671

                     76                     77                     78
                      A                      A                      A
 Frequencies --   3074.8203              3083.1874              3092.2780
 Red. masses --      1.0865                 1.0839                 1.0770
 Frc consts  --      6.0524                 6.0708                 6.0676
 IR Inten    --     14.0275                 6.4704                 5.0051

                     79                     80                     81
                      A                      A                      A
 Frequencies --   3132.8402              3140.3896              3254.9032
 Red. masses --      1.0971                 1.1099                 1.0965
 Frc consts  --      6.3442                 6.4493                 6.8445
 IR Inten    --      0.1694                 0.9897                 2.6218

                     82                     83                     84
                      A                      A                      A
 Frequencies --   3258.8405              3450.1360              3507.7207
 Red. masses --      1.1024                 1.0520                 1.0925
 Frc consts  --      6.8978                 7.3780                 7.9202
 IR Inten    --      3.1343                65.6869                57.1853

                     85                     86                     87
                      A                      A                      A
 Frequencies --   3581.1089              3599.5524              3792.1013
 Red. masses --      1.0776                 1.0829                 1.0666
 Frc consts  --      8.1425                 8.2667                 9.0365
 IR Inten    --     53.2576               142.8931                92.8796

 - Thermochemistry -
 -------------------
 Temperature   298.150 Kelvin.  Pressure   1.00000 Atm.
 Atom     1 has atomic number  8 and mass  15.99491

 Molecular mass:   227.11442 amu.
 Principal axes and moments of inertia in atomic units:
                           1         2         3
     Eigenvalues --  2071.864884392.724485259.89379
           X            0.74950   0.64251  -0.15948
           Y           -0.54173   0.73372   0.41011
           Z            0.38051  -0.22098   0.89799
 This molecule is an asymmetric top.
 Rotational symmetry number  1.
 Warning -- assumption of classical behavior for rotation
           may cause significant error
 Rotational temperatures (Kelvin)      0.04180     0.01972     0.01647
 Rotational constants (GHZ):           0.87107     0.41085     0.34311
 Zero-point vibrational energy     680592.6 (Joules/Mol)
                                  162.66554 (Kcal/Mol)
 Warning -- explicit consideration of  21 degrees of freedom as
           vibrations may cause significant error
 Vibrational temperatures:     63.96    93.64   115.27   145.17   159.77
          (Kelvin)            179.21   193.30   212.56   275.89   364.55
                              380.49   423.33   464.11   478.16   500.53
                              564.89   622.92   677.28   737.99   745.56
                              833.74   897.75   922.64   925.45   992.42
                              997.88  1014.21  1070.18  1120.79  1188.81
                             1200.19  1215.54  1242.41  1289.53  1325.01
                             1343.47  1387.84  1391.91  1450.00  1477.15
                             1498.76  1582.74  1624.41  1638.62  1655.93
                             1666.31  1670.82  1716.96  1769.29  1810.38
                             1820.76  1840.46  1857.86  1874.10  1925.54
                             1957.23  1969.16  1984.73  2020.50  2039.10
                             2081.27  2102.55  2137.57  2165.76  2175.89
                             2212.17  2285.57  2340.15  2397.80  2460.39
                             2517.89  2610.15  3325.41  4384.57  4401.67
                             4423.98  4436.01  4449.09  4507.45  4518.31
                             4683.07  4688.74  4963.97  5046.82  5152.41
                             5178.95  5455.98

 Zero-point correction=                           0.259224 (Hartree/Particle)
 Thermal correction to Energy=                    0.274328
 Thermal correction to Enthalpy=                  0.275272
 Thermal correction to Gibbs Free Energy=         0.216885
 Sum of electronic and zero-point Energies=           -796.512749
 Sum of electronic and thermal Energies=              -796.497646
 Sum of electronic and thermal Enthalpies=            -796.496702
 Sum of electronic and thermal Free Energies=         -796.555089

                     E (Thermal)             CV                S
                      KCal/Mol        Cal/Mol-Kelvin    Cal/Mol-Kelvin
 Total                  172.143             57.607            122.886
 Electronic               0.000              0.000              0.000
 Translational            0.889              2.981             42.163
 Rotational               0.889              2.981             32.237
 Vibrational            170.366             51.646             48.485
 Vibration     1          0.595              1.980              5.050
 Vibration     2          0.597              1.971              4.297
 Vibration     3          0.600              1.963              3.888
 Vibration     4          0.604              1.948              3.437
 Vibration     5          0.607              1.940              3.251
 Vibration     6          0.610              1.928              3.028
 Vibration     7          0.613              1.919              2.883
 Vibration     8          0.617              1.905              2.701
 Vibration     9          0.634              1.851              2.211
 Vibration    10          0.665              1.757              1.707
 Vibration    11          0.671              1.738              1.632
 Vibration    12          0.689              1.684              1.450
 Vibration    13          0.708              1.630              1.297
 Vibration    14          0.714              1.611              1.249
 Vibration    15          0.726              1.580              1.176
 Vibration    16          0.760              1.486              0.990
 Vibration    17          0.794              1.398              0.849
 Vibration    18          0.828              1.315              0.736
 Vibration    19          0.868              1.221              0.627
 Vibration    20          0.873              1.210              0.614
 Vibration    21          0.936              1.076              0.486

 Normal termination of Gaussian 09 at Sat Jul 24 11:27:24 2021.
