 Gaussian 09, Revision D.01,
 Gaussian 09:  ES64L-G09RevD.01 24-Apr-2013

 ----------------------------------------------------------------------
 # B3LYP/6-311++G(d,p) EmpiricalDispersion=GD3BJ opt=calcfc freq=norama
 n nosymm integral(ultrafinegrid)
 ----------------------------------------------------------------------

 ------------------------------------------------------------
 Candidate Structure: Conf:301 OPT and FREQ calc in gas phase
 ------------------------------------------------------------
 Symbolic Z-matrix:
 Charge =  1 Multiplicity = 1

 SCF Done:  E(RB3LYP) =  -796.776282521     A.U. after   15 cycles
 SCF Done:  E(RB3LYP) =  -791.799940502     A.U. after   19 cycles
 SCF Done:  E(RB3LYP) =  -796.739563972     A.U. after   16 cycles
 SCF Done:  E(RB3LYP) =  -796.782493879     A.U. after   13 cycles
 SCF Done:  E(RB3LYP) =  -796.782290960     A.U. after   14 cycles
 SCF Done:  E(RB3LYP) =  -796.784540770     A.U. after   11 cycles
 SCF Done:  E(RB3LYP) =  -796.788371797     A.U. after   14 cycles
 SCF Done:  E(RB3LYP) =  -796.789069096     A.U. after   14 cycles
 SCF Done:  E(RB3LYP) =  -796.789391474     A.U. after   13 cycles
 SCF Done:  E(RB3LYP) =  -796.789728796     A.U. after   13 cycles
 SCF Done:  E(RB3LYP) =  -796.789772205     A.U. after   12 cycles
 SCF Done:  E(RB3LYP) =  -796.789804389     A.U. after   12 cycles
 SCF Done:  E(RB3LYP) =  -796.789812357     A.U. after   12 cycles
 SCF Done:  E(RB3LYP) =  -796.789816180     A.U. after   11 cycles
 SCF Done:  E(RB3LYP) =  -796.789816727     A.U. after   10 cycles
 Optimization completed.
    -- Stationary point found.
 Normal termination of Gaussian 09 at Sat Jul 24 04:18:56 2021.

 ----------------------------------------------------------------------
 #N Geom=AllCheck Guess=TCheck SCRF=Check GenChk RB3LYP/6-311++G(d,p) F
 req
 ----------------------------------------------------------------------

 Structure from the checkpoint file:  "conf-301.chk"
 ------------------------------------------------------------
 Candidate Structure: Conf:301 OPT and FREQ calc in gas phase
 ------------------------------------------------------------
 Charge =  1 Multiplicity = 1

                          Input orientation:
 ---------------------------------------------------------------------
 Center     Atomic      Atomic             Coordinates (Angstroms)
 Number     Number       Type             X           Y           Z
 ---------------------------------------------------------------------
      1          8           0       -0.041053   -0.243874   -1.662233
      2          6           0        0.407733    0.695444   -0.997334
      3          7           0       -0.366324    1.486567   -0.232621
      4          6           0       -1.730688    1.141338    0.115014
      5          6           0       -2.483702    2.430619    0.402276
      6          8           0       -3.806640    2.226594    0.419166
      7          8           0       -1.942223    3.480496    0.633656
      8          6           0       -1.780742    0.226706    1.393742
      9          6           0       -0.861579   -0.935361    1.264194
     10          6           0        0.494717   -1.021604    1.466623
     11          7           0        0.990572   -2.200271    0.946746
     12          6           0       -0.059431   -2.845670    0.466228
     13          7           0       -1.194933   -2.119372    0.636498
     14          6           0        1.906671    0.991723   -0.945396
     15          6           0        2.752701   -0.018441   -1.720752
     16          7           0        2.290370   -1.431605   -1.471757
     17          1           0        0.018491    2.305492    0.222037
     18          1           0       -2.186484    0.620675   -0.726387
     19          1           0       -4.249736    3.059632    0.648709
     20          1           0       -1.480070    0.824276    2.257474
     21          1           0       -2.815434   -0.081706    1.556258
     22          1           0        1.135155   -0.304606    1.955451
     23          1           0       -0.051471   -3.823777    0.010991
     24          1           0       -2.120979   -2.396420    0.344944
     25          1           0        2.216254    1.021346    0.101994
     26          1           0        2.102905    1.985958   -1.357047
     27          1           0        2.666822    0.139739   -2.795421
     28          1           0        3.801228    0.058092   -1.437469
     29          1           0        2.862615   -2.112379   -1.970811
     30          1           0        1.304856   -1.448459   -1.803623
     31          1           0        2.220591   -1.711567   -0.465477
 ---------------------------------------------------------------------

 SCF Done:  E(RB3LYP) =  -796.789816727     A.U. after    1 cycles

 Alpha  occ. eigenvalues --  -19.30017 -19.24728 -19.24614 -14.56339 -14.50688
 Alpha  occ. eigenvalues --  -14.48649 -14.44102 -10.43830 -10.43285 -10.39019
 Alpha  occ. eigenvalues --  -10.36789 -10.36622 -10.34624 -10.34478 -10.32774
 Alpha  occ. eigenvalues --  -10.32084  -1.24486  -1.20126  -1.15879  -1.15856
 Alpha  occ. eigenvalues --   -1.13905  -1.08234  -1.01546  -0.95385  -0.93256
 Alpha  occ. eigenvalues --   -0.88812  -0.83069  -0.81123  -0.76234  -0.75589
 Alpha  occ. eigenvalues --   -0.73976  -0.73389  -0.72745  -0.71723  -0.68488
 Alpha  occ. eigenvalues --   -0.66603  -0.64516  -0.63610  -0.62320  -0.61634
 Alpha  occ. eigenvalues --   -0.60784  -0.59569  -0.59067  -0.57682  -0.56480
 Alpha  occ. eigenvalues --   -0.55781  -0.55469  -0.54880  -0.54547  -0.53885
 Alpha  occ. eigenvalues --   -0.53212  -0.51346  -0.50672  -0.45697  -0.43738
 Alpha  occ. eigenvalues --   -0.42526  -0.42246  -0.41521  -0.41070  -0.36894
 Alpha virt. eigenvalues --   -0.14812  -0.14383  -0.14168  -0.12221  -0.11787
 Alpha virt. eigenvalues --   -0.11334  -0.10249  -0.10024  -0.09678  -0.08939
 Alpha virt. eigenvalues --   -0.08209  -0.07712  -0.07422  -0.06667  -0.05903

 Mulliken charges:
               1
     1  O   -0.288937
     2  C   -0.405757
     3  N    0.093219
     4  C   -0.231416
     5  C    0.102819
     6  O   -0.113507
     7  O   -0.208420
     8  C   -0.966055
     9  C    0.710489
    10  C   -0.530550
    11  N   -0.132258
    12  C    0.019256
    13  N   -0.116762
    14  C   -0.064116
    15  C   -0.654599
    16  N   -0.328934
    17  H    0.323589
    18  H    0.303860
    19  H    0.320105
    20  H    0.226888
    21  H    0.214280
    22  H    0.187547
    23  H    0.184146
    24  H    0.333064
    25  H    0.247078
    26  H    0.239714
    27  H    0.252898
    28  H    0.230889
    29  H    0.360693
    30  H    0.350486
    31  H    0.340292
 Sum of Mulliken charges =   1.00000

 Dipole moment (field-independent basis, Debye):
    X=              2.9110    Y=             -2.4490    Z=             -3.1896  Tot=              4.9643
 Quadrupole moment (field-independent basis, Debye-Ang):
   XX=            -50.1089   YY=            -75.1143   ZZ=            -84.7302
   XY=             -5.9684   XZ=            -20.1333   YZ=              8.3834

  Exact polarizability: 150.622 -13.961 148.104 -14.094   9.632 109.240
 Approx polarizability: 220.486  -1.818 220.595  -1.689  29.088 169.651

                      1                      2                      3
                      A                      A                      A
 Frequencies --     55.5640                65.9656                97.6225
 Red. masses --     10.6219                 4.7311                 5.0012
 Frc consts  --      0.0193                 0.0121                 0.0281
 IR Inten    --      1.6902                 0.3765                 5.2213

                      4                      5                      6
                      A                      A                      A
 Frequencies --    108.4327               112.8459               125.6545
 Red. masses --      3.6459                 5.3339                 3.4828
 Frc consts  --      0.0253                 0.0400                 0.0324
 IR Inten    --      5.5485                 1.5703                14.3405

                      7                      8                      9
                      A                      A                      A
 Frequencies --    150.4008               156.2220               175.1520
 Red. masses --      4.7217                 4.2881                 3.9002
 Frc consts  --      0.0629                 0.0617                 0.0705
 IR Inten    --      8.9011                11.2989                 6.3728

                     10                     11                     12
                      A                      A                      A
 Frequencies --    203.9545               261.4350               307.3180
 Red. masses --      2.5865                 4.5774                 5.6295
 Frc consts  --      0.0634                 0.1843                 0.3133
 IR Inten    --     34.9675                41.5987                 0.9425

                     13                     14                     15
                      A                      A                      A
 Frequencies --    316.0317               343.5891               353.8643
 Red. masses --      3.5391                 2.7720                 2.4279
 Frc consts  --      0.2083                 0.1928                 0.1791
 IR Inten    --      2.0794                11.6406                26.6131

                     16                     17                     18
                      A                      A                      A
 Frequencies --    388.9547               419.4507               443.2848
 Red. masses --      2.0777                 2.6290                 2.1090
 Frc consts  --      0.1852                 0.2725                 0.2442
 IR Inten    --     21.7392                 6.1209                 3.4032

                     19                     20                     21
                      A                      A                      A
 Frequencies --    532.9194               551.6512               591.4982
 Red. masses --      1.9108                 3.6684                 1.5347
 Frc consts  --      0.3197                 0.6577                 0.3164
 IR Inten    --     61.1870                17.8641               141.9967

                     22                     23                     24
                      A                      A                      A
 Frequencies --    607.3894               614.6467               636.0407
 Red. masses --      1.3465                 1.5279                 3.9831
 Frc consts  --      0.2927                 0.3401                 0.9494
 IR Inten    --     33.9077                 4.1072                75.9188

                     25                     26                     27
                      A                      A                      A
 Frequencies --    678.4337               687.9859               694.3412
 Red. masses --      2.6277                 3.0381                 3.1422
 Frc consts  --      0.7126                 0.8473                 0.8925
 IR Inten    --     65.3573                19.0113                 1.3047

                     28                     29                     30
                      A                      A                      A
 Frequencies --    721.0090               773.0919               828.7709
 Red. masses --      3.5058                 4.3082                 1.4137
 Frc consts  --      1.0738                 1.5171                 0.5721
 IR Inten    --      1.7728                13.0449                11.5515

                     31                     32                     33
                      A                      A                      A
 Frequencies --    842.9338               850.3593               863.8761
 Red. masses --      1.5992                 2.0848                 2.2489
 Frc consts  --      0.6695                 0.8882                 0.9888
 IR Inten    --     32.2872                10.5697                23.9275

                     34                     35                     36
                      A                      A                      A
 Frequencies --    880.3657               923.2529               951.9088
 Red. masses --      2.2095                 2.6426                 5.2398
 Frc consts  --      1.0090                 1.3272                 2.7974
 IR Inten    --      1.0104                12.7848                10.9291

                     37                     38                     39
                      A                      A                      A
 Frequencies --    967.2896               977.5299              1004.4860
 Red. masses --      1.5889                 3.0094                 3.1532
 Frc consts  --      0.8759                 1.6943                 1.8745
 IR Inten    --     11.4401                 4.5023                 8.7895

                     40                     41                     42
                      A                      A                      A
 Frequencies --   1032.9640              1046.5808              1097.6676
 Red. masses --      3.5183                 2.9576                 2.1558
 Frc consts  --      2.2118                 1.9087                 1.5304
 IR Inten    --      3.7505                19.9898                 8.3999

                     43                     44                     45
                      A                      A                      A
 Frequencies --   1125.7321              1131.3030              1135.0710
 Red. masses --      1.4782                 1.5319                 1.8590
 Frc consts  --      1.1037                 1.1552                 1.4111
 IR Inten    --     88.0258                13.4979                44.5721

                     46                     47                     48
                      A                      A                      A
 Frequencies --   1145.7571              1168.4538              1206.4009
 Red. masses --      1.7637                 2.0419                 1.8015
 Frc consts  --      1.3642                 1.6425                 1.5448
 IR Inten    --      5.2888               223.2177                 6.7483

                     49                     50                     51
                      A                      A                      A
 Frequencies --   1251.2998              1257.8493              1278.6636
 Red. masses --      1.6425                 1.6130                 1.7992
 Frc consts  --      1.5152                 1.5036                 1.7332
 IR Inten    --      1.9039                31.5243                 2.4516

                     52                     53                     54
                      A                      A                      A
 Frequencies --   1283.6214              1287.4870              1331.9832
 Red. masses --      1.4557                 1.3454                 1.3940
 Frc consts  --      1.4132                 1.3139                 1.4572
 IR Inten    --      0.6308                 9.4363                17.4950

                     55                     56                     57
                      A                      A                      A
 Frequencies --   1341.2790              1352.4510              1384.4888
 Red. masses --      1.3639                 1.2606                 1.6732
 Frc consts  --      1.4457                 1.3585                 1.8896
 IR Inten    --     27.7983                 6.1429                77.5225

                     58                     59                     60
                      A                      A                      A
 Frequencies --   1393.0882              1415.9468              1426.6560
 Red. masses --      3.2293                 2.2191                 1.3355
 Frc consts  --      3.6925                 2.6214                 1.6015
 IR Inten    --      6.3085               125.3440                 7.4512

                     61                     62                     63
                      A                      A                      A
 Frequencies --   1433.7730              1467.2789              1485.6003
 Red. masses --      2.6244                 1.0983                 1.2818
 Frc consts  --      3.1786                 1.3931                 1.6668
 IR Inten    --     28.0430                25.6207                49.0185

                     64                     65                     66
                      A                      A                      A
 Frequencies --   1493.1549              1501.2856              1509.0554
 Red. masses --      1.4326                 1.7595                 1.1019
 Frc consts  --      1.8819                 2.3365                 1.4785
 IR Inten    --     84.9766                91.8844                24.8861

                     67                     68                     69
                      A                      A                      A
 Frequencies --   1561.9811              1609.7408              1638.7216
 Red. masses --      2.2264                 4.2144                 1.1369
 Frc consts  --      3.2004                 6.4342                 1.7987
 IR Inten    --    200.7716                 8.1302               130.3794

                     70                     71                     72
                      A                      A                      A
 Frequencies --   1687.9000              1707.5679              1819.3768
 Red. masses --      1.1416                 3.4142                10.1970
 Frc consts  --      1.9163                 5.8653                19.8869
 IR Inten    --    194.8929                96.5176               295.7148

                     73                     74                     75
                      A                      A                      A
 Frequencies --   3055.6108              3059.2593              3060.5036
 Red. masses --      1.0640                 1.0616                 1.0750
 Frc consts  --      5.8532                 5.8537                 5.9329
 IR Inten    --     60.5235                57.2683               408.2427

                     76                     77                     78
                      A                      A                      A
 Frequencies --   3089.4675              3097.2795              3103.2295
 Red. masses --      1.0796                 1.0824                 1.0994
 Frc consts  --      6.0714                 6.1178                 6.2380
 IR Inten    --     11.3263                 3.2831                 1.3223

                     79                     80                     81
                      A                      A                      A
 Frequencies --   3118.6199              3145.4737              3181.4826
 Red. masses --      1.0906                 1.1090                 1.0670
 Frc consts  --      6.2497                 6.4646                 6.3630
 IR Inten    --      4.3384                10.4287               251.9267

                     82                     83                     84
                      A                      A                      A
 Frequencies --   3240.3600              3250.6664              3507.9153
 Red. masses --      1.0969                 1.1003                 1.0788
 Frc consts  --      6.7859                 6.8501                 7.8212
 IR Inten    --      1.7450                 3.8973               104.6607

                     85                     86                     87
                      A                      A                      A
 Frequencies --   3578.6799              3635.1451              3738.5323
 Red. masses --      1.0781                 1.0822                 1.0647
 Frc consts  --      8.1348                 8.4255                 8.7680
 IR Inten    --     91.6696                90.6595               143.5794

 - Thermochemistry -
 -------------------
 Temperature   298.150 Kelvin.  Pressure   1.00000 Atm.
 Atom     1 has atomic number  8 and mass  15.99491

 Molecular mass:   227.11442 amu.
 Principal axes and moments of inertia in atomic units:
                           1         2         3
     Eigenvalues --  2177.432844491.981525873.49612
           X            0.73453   0.46941   0.49002
           Y           -0.64785   0.69996   0.30059
           Z           -0.20190  -0.53825   0.81824
 This molecule is an asymmetric top.
 Rotational symmetry number  1.
 Warning -- assumption of classical behavior for rotation
           may cause significant error
 Rotational temperatures (Kelvin)      0.03978     0.01928     0.01475
 Rotational constants (GHZ):           0.82884     0.40177     0.30727
 Zero-point vibrational energy     682696.4 (Joules/Mol)
                                  163.16836 (Kcal/Mol)
 Warning -- explicit consideration of  23 degrees of freedom as
           vibrations may cause significant error
 Vibrational temperatures:     79.94    94.91   140.46   156.01   162.36
          (Kelvin)            180.79   216.39   224.77   252.00   293.44
                              376.15   442.16   454.70   494.35   509.13
                              559.62   603.50   637.79   766.75   793.70
                              851.03   873.90   884.34   915.12   976.11
                              989.86   999.00  1037.37  1112.31  1192.42
                             1212.79  1223.48  1242.92  1266.65  1328.35
                             1369.58  1391.71  1406.45  1445.23  1486.20
                             1505.79  1579.30  1619.68  1627.69  1633.11
                             1648.49  1681.14  1735.74  1800.34  1809.76
                             1839.71  1846.84  1852.40  1916.42  1929.80
                             1945.87  1991.97  2004.34  2037.23  2052.64
                             2062.88  2111.08  2137.44  2148.31  2160.01
                             2171.19  2247.34  2316.06  2357.75  2428.51
                             2456.81  2617.67  4396.34  4401.59  4403.38
                             4445.05  4456.29  4464.85  4486.99  4525.63
                             4577.44  4662.15  4676.98  5047.10  5148.92
                             5230.16  5378.91

 Zero-point correction=                           0.260025 (Hartree/Particle)
 Thermal correction to Energy=                    0.275118
 Thermal correction to Enthalpy=                  0.276062
 Thermal correction to Gibbs Free Energy=         0.217962
 Sum of electronic and zero-point Energies=           -796.529791
 Sum of electronic and thermal Energies=              -796.514699
 Sum of electronic and thermal Enthalpies=            -796.513755
 Sum of electronic and thermal Free Energies=         -796.571855

                     E (Thermal)             CV                S
                      KCal/Mol        Cal/Mol-Kelvin    Cal/Mol-Kelvin
 Total                  172.639             57.726            122.282
 Electronic               0.000              0.000              0.000
 Translational            0.889              2.981             42.163
 Rotational               0.889              2.981             32.419
 Vibrational            170.862             51.765             47.700
 Vibration     1          0.596              1.975              4.609
 Vibration     2          0.597              1.971              4.270
 Vibration     3          0.603              1.951              3.501
 Vibration     4          0.606              1.942              3.297
 Vibration     5          0.607              1.939              3.219
 Vibration     6          0.611              1.927              3.012
 Vibration     7          0.618              1.902              2.667
 Vibration     8          0.620              1.896              2.595
 Vibration     9          0.627              1.873              2.379
 Vibration    10          0.640              1.834              2.097
 Vibration    11          0.669              1.743              1.652
 Vibration    12          0.697              1.660              1.377
 Vibration    13          0.703              1.643              1.331
 Vibration    14          0.722              1.588              1.195
 Vibration    15          0.730              1.567              1.149
 Vibration    16          0.757              1.494              1.004
 Vibration    17          0.782              1.428              0.894
 Vibration    18          0.803              1.376              0.816
 Vibration    19          0.888              1.177              0.581
 Vibration    20          0.907              1.136              0.541
 Vibration    21          0.949              1.050              0.465
 Vibration    22          0.966              1.016              0.437
 Vibration    23          0.974              1.001              0.425

 Optimization completed.
    -- Stationary point found.
 Normal termination of Gaussian 09 at Sat Jul 24 05:44:41 2021.
