 Gaussian 09, Revision D.01,
 Gaussian 09:  ES64L-G09RevD.01 24-Apr-2013

 ----------------------------------------------------------------------
 # B3LYP/6-311++G(d,p) EmpiricalDispersion=GD3BJ opt=calcfc freq=norama
 n nosymm integral(ultrafinegrid)
 ----------------------------------------------------------------------

 ------------------------------------------------------------
 Candidate Structure: Conf:342 OPT and FREQ calc in gas phase
 ------------------------------------------------------------
 Symbolic Z-matrix:
 Charge =  1 Multiplicity = 1

 SCF Done:  E(RB3LYP) =  -796.734125173     A.U. after   18 cycles
 SCF Done:  E(RB3LYP) =  -796.739208223     A.U. after   14 cycles
 SCF Done:  E(RB3LYP) =  -796.739989540     A.U. after   14 cycles
 SCF Done:  E(RB3LYP) =  -796.740405612     A.U. after   13 cycles
 SCF Done:  E(RB3LYP) =  -796.740886048     A.U. after   13 cycles
 SCF Done:  E(RB3LYP) =  -796.742001355     A.U. after   15 cycles
 SCF Done:  E(RB3LYP) =  -796.738233483     A.U. after   15 cycles
 SCF Done:  E(RB3LYP) =  -796.742126614     A.U. after   12 cycles
 SCF Done:  E(RB3LYP) =  -796.742249351     A.U. after   12 cycles
 SCF Done:  E(RB3LYP) =  -796.742263454     A.U. after   12 cycles
 SCF Done:  E(RB3LYP) =  -796.742267512     A.U. after   11 cycles
 SCF Done:  E(RB3LYP) =  -796.742268923     A.U. after   10 cycles
 SCF Done:  E(RB3LYP) =  -796.742269168     A.U. after   10 cycles
 SCF Done:  E(RB3LYP) =  -796.742269196     A.U. after    9 cycles
 Optimization completed.
    -- Stationary point found.
 Normal termination of Gaussian 09 at Sat Jul 24 03:37:23 2021.

 ----------------------------------------------------------------------
 #N Geom=AllCheck Guess=TCheck SCRF=Check GenChk RB3LYP/6-311++G(d,p) F
 req
 ----------------------------------------------------------------------

 Structure from the checkpoint file:  "conf-342.chk"
 ------------------------------------------------------------
 Candidate Structure: Conf:342 OPT and FREQ calc in gas phase
 ------------------------------------------------------------
 Charge =  1 Multiplicity = 1

                          Input orientation:
 ---------------------------------------------------------------------
 Center     Atomic      Atomic             Coordinates (Angstroms)
 Number     Number       Type             X           Y           Z
 ---------------------------------------------------------------------
      1          8           0        1.049347   -1.226081    0.109394
      2          6           0        1.408606   -0.099748   -0.210309
      3          7           0        0.577688    0.910929   -0.506476
      4          6           0       -0.858703    0.716922   -0.628389
      5          6           0       -1.379236    1.900488   -1.459442
      6          8           0       -2.687693    1.941079   -1.690195
      7          8           0       -0.629537    2.745018   -1.881892
      8          6           0       -1.555859    0.594304    0.756163
      9          6           0       -2.918165   -0.004022    0.661989
     10          6           0       -4.184872    0.532797    0.744610
     11          7           0       -5.140663   -0.440875    0.559607
     12          6           0       -4.479268   -1.556345    0.368432
     13          7           0       -3.126240   -1.351139    0.411319
     14          6           0        2.908839    0.233043   -0.315843
     15          6           0        3.671591   -0.707672    0.601849
     16          7           0        5.166257   -0.667702    0.302597
     17          1           0        0.912473    1.790158   -0.890805
     18          1           0       -1.040452   -0.204875   -1.190342
     19          1           0       -3.173097    1.258301   -1.187400
     20          1           0       -1.619199    1.579036    1.223892
     21          1           0       -0.916153   -0.027073    1.386379
     22          1           0       -4.456106    1.557436    0.951672
     23          1           0       -4.912736   -2.528957    0.192998
     24          1           0       -2.409998   -2.057904    0.331944
     25          1           0        3.098565    1.281810   -0.073622
     26          1           0        3.197969    0.071036   -1.361376
     27          1           0        3.341544   -1.735316    0.458630
     28          1           0        3.561633   -0.444704    1.653402
     29          1           0        5.354701   -0.948485   -0.664778
     30          1           0        5.552854    0.272446    0.429826
     31          1           0        5.685640   -1.302961    0.916155
 ---------------------------------------------------------------------

 SCF Done:  E(RB3LYP) =  -796.742269196     A.U. after    1 cycles

 Alpha  occ. eigenvalues --  -19.27178 -19.23693 -19.22185 -14.64567 -14.47836
 Alpha  occ. eigenvalues --  -14.46723 -14.38564 -10.42620 -10.42266 -10.41814
 Alpha  occ. eigenvalues --  -10.36389 -10.35383 -10.31977 -10.31154 -10.30628
 Alpha  occ. eigenvalues --  -10.28294  -1.21839  -1.21119  -1.19102  -1.13895
 Alpha  occ. eigenvalues --   -1.11571  -1.07189  -0.97507  -0.97108  -0.92005
 Alpha  occ. eigenvalues --   -0.86695  -0.83857  -0.79621  -0.79420  -0.78205
 Alpha  occ. eigenvalues --   -0.73971  -0.71977  -0.71246  -0.69996  -0.69271
 Alpha  occ. eigenvalues --   -0.68122  -0.65532  -0.64346  -0.61554  -0.60957
 Alpha  occ. eigenvalues --   -0.59091  -0.58120  -0.57551  -0.55856  -0.55521
 Alpha  occ. eigenvalues --   -0.54802  -0.53837  -0.52620  -0.51506  -0.51385
 Alpha  occ. eigenvalues --   -0.50719  -0.49586  -0.48315  -0.43209  -0.41327
 Alpha  occ. eigenvalues --   -0.40649  -0.39569  -0.38202  -0.36283  -0.33351
 Alpha virt. eigenvalues --   -0.20544  -0.15075  -0.14629  -0.13901  -0.12903
 Alpha virt. eigenvalues --   -0.11321  -0.10831  -0.09840  -0.09612  -0.08830
 Alpha virt. eigenvalues --   -0.08427  -0.07844  -0.07248  -0.06604  -0.06299

 Mulliken charges:
               1
     1  O   -0.299905
     2  C    0.038490
     3  N    0.018230
     4  C   -0.067539
     5  C   -0.231516
     6  O   -0.168179
     7  O   -0.251944
     8  C   -0.918692
     9  C    0.644412
    10  C   -0.650097
    11  N   -0.066838
    12  C    0.134939
    13  N   -0.134264
    14  C   -0.364051
    15  C   -0.567680
    16  N   -0.213887
    17  H    0.289505
    18  H    0.299550
    19  H    0.405675
    20  H    0.237831
    21  H    0.243577
    22  H    0.174883
    23  H    0.188588
    24  H    0.319618
    25  H    0.181322
    26  H    0.212314
    27  H    0.273685
    28  H    0.245196
    29  H    0.338528
    30  H    0.340918
    31  H    0.347329
 Sum of Mulliken charges =   1.00000

 Dipole moment (field-independent basis, Debye):
    X=             21.9450    Y=             -4.4337    Z=              2.4124  Tot=             22.5180
 Quadrupole moment (field-independent basis, Debye-Ang):
   XX=             12.2078   YY=            -91.4412   ZZ=            -94.8056
   XY=             -4.2188   XZ=              5.5615   YZ=              7.7044

  Exact polarizability: 186.742   3.839 136.306  -2.589 -10.830 102.971
 Approx polarizability: 234.448   6.536 222.128  -3.558 -10.862 154.987

                      1                      2                      3
                      A                      A                      A
 Frequencies --     21.5816                27.5009                40.1585
 Red. masses --      2.5174                 4.2498                 2.6181
 Frc consts  --      0.0007                 0.0019                 0.0025
 IR Inten    --      1.3675                 2.4564                 8.6132

                      4                      5                      6
                      A                      A                      A
 Frequencies --     59.0556                70.7479                83.7983
 Red. masses --      5.1627                 4.4771                 6.1848
 Frc consts  --      0.0106                 0.0132                 0.0256
 IR Inten    --      1.8856                 4.9984                14.8132

                      7                      8                      9
                      A                      A                      A
 Frequencies --     98.9504               106.3226               147.7549
 Red. masses --      7.6940                 5.7396                 4.1489
 Frc consts  --      0.0444                 0.0382                 0.0534
 IR Inten    --      2.9800                12.0630                 8.9274

                     10                     11                     12
                      A                      A                      A
 Frequencies --    189.9479               212.5838               233.2807
 Red. masses --      5.0029                 2.6963                 1.3277
 Frc consts  --      0.1064                 0.0718                 0.0426
 IR Inten    --      1.0965                24.5949                 4.5438

                     13                     14                     15
                      A                      A                      A
 Frequencies --    273.0509               332.2680               336.0951
 Red. masses --      5.7135                 2.1647                 7.2121
 Frc consts  --      0.2510                 0.1408                 0.4800
 IR Inten    --     12.6752                 3.2554                 5.0006

                     16                     17                     18
                      A                      A                      A
 Frequencies --    347.6762               378.4542               386.5429
 Red. masses --      5.0107                 3.6410                 4.4554
 Frc consts  --      0.3569                 0.3073                 0.3922
 IR Inten    --      4.5665                20.0967                11.8792

                     19                     20                     21
                      A                      A                      A
 Frequencies --    543.0331               550.4632               589.3479
 Red. masses --      2.0489                 2.1708                 2.1037
 Frc consts  --      0.3560                 0.3875                 0.4305
 IR Inten    --     58.9835                18.6874                 7.2453

                     22                     23                     24
                      A                      A                      A
 Frequencies --    615.0915               648.2649               657.5923
 Red. masses --      2.5573                 1.6698                 1.7138
 Frc consts  --      0.5700                 0.4135                 0.4367
 IR Inten    --     79.8902                42.5062                38.4967

                     25                     26                     27
                      A                      A                      A
 Frequencies --    670.9955               680.1924               718.1077
 Red. masses --      2.8587                 2.5724                 2.7417
 Frc consts  --      0.7583                 0.7012                 0.8330
 IR Inten    --     25.4735                 1.8442                25.6588

                     28                     29                     30
                      A                      A                      A
 Frequencies --    741.8340               771.2776               796.3379
 Red. masses --      3.0519                 4.0831                 1.3723
 Frc consts  --      0.9895                 1.4311                 0.5127
 IR Inten    --      2.7161                 0.2904                 8.0305

                     31                     32                     33
                      A                      A                      A
 Frequencies --    825.8153               839.9356               864.5315
 Red. masses --      2.9353                 1.4381                 1.3134
 Frc consts  --      1.1794                 0.5978                 0.5784
 IR Inten    --      6.9786                16.0224                11.3910

                     34                     35                     36
                      A                      A                      A
 Frequencies --    886.7687               919.0735               933.8890
 Red. masses --      2.7142                 1.2884                 3.6023
 Frc consts  --      1.2575                 0.6412                 1.8511
 IR Inten    --     35.7749                 4.9010                 9.5265

                     37                     38                     39
                      A                      A                      A
 Frequencies --    940.0776               984.7206              1003.2658
 Red. masses --      5.2958                 2.1108                 3.6083
 Frc consts  --      2.7574                 1.2060                 2.1398
 IR Inten    --     24.1496                13.3790                38.8138

                     40                     41                     42
                      A                      A                      A
 Frequencies --   1027.7164              1031.4645              1096.7355
 Red. masses --      3.8329                 3.1972                 1.7171
 Frc consts  --      2.3852                 2.0041                 1.2169
 IR Inten    --      9.6285                 2.6718                14.2409

                     43                     44                     45
                      A                      A                      A
 Frequencies --   1102.4514              1118.6326              1147.5979
 Red. masses --      1.6645                 2.2434                 2.0934
 Frc consts  --      1.1919                 1.6540                 1.6244
 IR Inten    --     17.4648                29.9565                16.2466

                     46                     47                     48
                      A                      A                      A
 Frequencies --   1153.2664              1175.8324              1224.1161
 Red. masses --      2.5976                 1.4104                 2.0026
 Frc consts  --      2.0356                 1.1489                 1.7680
 IR Inten    --      3.5561                 3.4952                11.0305

                     49                     50                     51
                      A                      A                      A
 Frequencies --   1237.7186              1256.8161              1278.7008
 Red. masses --      1.5096                 2.2848                 1.3597
 Frc consts  --      1.3626                 2.1264                 1.3099
 IR Inten    --     19.4244                22.9698                 0.7720

                     52                     53                     54
                      A                      A                      A
 Frequencies --   1291.1092              1307.6877              1325.6701
 Red. masses --      1.2950                 1.3443                 1.3804
 Frc consts  --      1.2719                 1.3544                 1.4293
 IR Inten    --      2.1592                40.7527                26.7109

                     55                     56                     57
                      A                      A                      A
 Frequencies --   1329.3909              1349.0082              1360.3075
 Red. masses --      1.2935                 1.4814                 1.5442
 Frc consts  --      1.3469                 1.5884                 1.6835
 IR Inten    --      3.2507               125.9196                40.8993

                     58                     59                     60
                      A                      A                      A
 Frequencies --   1385.3580              1407.2680              1410.8991
 Red. masses --      2.2968                 1.3456                 2.2373
 Frc consts  --      2.5972                 1.5701                 2.6240
 IR Inten    --      1.3503                10.9067               204.6665

                     61                     62                     63
                      A                      A                      A
 Frequencies --   1423.8592              1479.3413              1485.4451
 Red. masses --      2.6765                 1.1173                 1.1084
 Frc consts  --      3.1971                 1.4406                 1.4409
 IR Inten    --     22.7777                 0.8223                11.0085

                     64                     65                     66
                      A                      A                      A
 Frequencies --   1497.9858              1506.1983              1517.4833
 Red. masses --      3.7997                 1.0741                 1.1883
 Frc consts  --      5.0236                 1.4356                 1.6122
 IR Inten    --     40.9969                13.7750               223.3550

                     67                     68                     69
                      A                      A                      A
 Frequencies --   1537.0118              1600.9919              1663.9255
 Red. masses --      2.4355                 4.3518                 1.0418
 Frc consts  --      3.3899                 6.5721                 1.6994
 IR Inten    --    288.3660                 7.0279                48.3146

                     70                     71                     72
                      A                      A                      A
 Frequencies --   1668.0808              1735.3238              1814.9587
 Red. masses --      1.0439                 9.7805                 9.5536
 Frc consts  --      1.7114                17.3529                18.5417
 IR Inten    --     38.7816               293.7209               354.1113

                     73                     74                     75
                      A                      A                      A
 Frequencies --   3024.6251              3043.0470              3058.2602
 Red. masses --      1.0639                 1.0816                 1.0614
 Frc consts  --      5.7343                 5.9014                 5.8487
 IR Inten    --      3.3781                 4.6582                13.4770

                     76                     77                     78
                      A                      A                      A
 Frequencies --   3083.3073              3098.3218              3103.0619
 Red. masses --      1.0998                 1.0596                 1.1051
 Frc consts  --      6.1601                 5.9932                 6.2693
 IR Inten    --      4.1852                 3.7285                 2.7554

                     79                     80                     81
                      A                      A                      A
 Frequencies --   3158.4746              3230.5582              3247.8759
 Red. masses --      1.1116                 1.0972                 1.0993
 Frc consts  --      6.5337                 6.7469                 6.8323
 IR Inten    --      2.3113                 2.6478                 1.8106

                     82                     83                     84
                      A                      A                      A
 Frequencies --   3398.8811              3476.2153              3478.6082
 Red. masses --      1.0300                 1.0932                 1.0934
 Frc consts  --      7.0110                 7.7831                 7.7956
 IR Inten    --     55.8921                89.9487                91.1217

                     85                     86                     87
                      A                      A                      A
 Frequencies --   3518.1341              3565.8403              3632.6622
 Red. masses --      1.0781                 1.0680                 1.0817
 Frc consts  --      7.8617                 8.0008                 8.4102
 IR Inten    --    127.8644               544.9217                60.9191

 - Thermochemistry -
 -------------------
 Temperature   298.150 Kelvin.  Pressure   1.00000 Atm.
 Atom     1 has atomic number  8 and mass  15.99491

 Molecular mass:   227.11442 amu.
 Principal axes and moments of inertia in atomic units:
                           1         2         3
     Eigenvalues --  1916.537717462.705248988.47207
           X            0.99903   0.03304   0.02909
           Y           -0.04352   0.84068   0.53978
           Z           -0.00662  -0.54053   0.84130
 This molecule is an asymmetric top.
 Rotational symmetry number  1.
 Warning -- assumption of classical behavior for rotation
           may cause significant error
 Rotational temperatures (Kelvin)      0.04519     0.01161     0.00964
 Rotational constants (GHZ):           0.94167     0.24183     0.20078
 Zero-point vibrational energy     679434.7 (Joules/Mol)
                                  162.38879 (Kcal/Mol)
 Warning -- explicit consideration of  22 degrees of freedom as
           vibrations may cause significant error
 Vibrational temperatures:     31.05    39.57    57.78    84.97   101.79
          (Kelvin)            120.57   142.37   152.97   212.59   273.29
                              305.86   335.64   392.86   478.06   483.57
                              500.23   544.51   556.15   781.30   791.99
                              847.94   884.98   932.71   946.13   965.41
                              978.64  1033.20  1067.33  1109.70  1145.75
                             1188.16  1208.48  1243.87  1275.86  1322.34
                             1343.66  1352.56  1416.79  1443.47  1478.65
                             1484.05  1577.96  1586.18  1609.46  1651.14
                             1659.29  1691.76  1761.23  1780.80  1808.28
                             1839.76  1857.62  1881.47  1907.34  1912.69
                             1940.92  1957.18  1993.22  2024.74  2029.97
                             2048.61  2128.44  2137.22  2155.26  2167.08
                             2183.32  2211.41  2303.47  2394.01  2399.99
                             2496.74  2611.32  4351.76  4378.26  4400.15
                             4436.19  4457.79  4464.61  4544.33  4648.05
                             4672.96  4890.23  5001.49  5004.94  5061.80
                             5130.44  5226.58

 Zero-point correction=                           0.258783 (Hartree/Particle)
 Thermal correction to Energy=                    0.275032
 Thermal correction to Enthalpy=                  0.275976
 Thermal correction to Gibbs Free Energy=         0.211827
 Sum of electronic and zero-point Energies=           -796.483486
 Sum of electronic and thermal Energies=              -796.467237
 Sum of electronic and thermal Enthalpies=            -796.466293
 Sum of electronic and thermal Free Energies=         -796.530442

                     E (Thermal)             CV                S
                      KCal/Mol        Cal/Mol-Kelvin    Cal/Mol-Kelvin
 Total                  172.585             58.652            135.014
 Electronic               0.000              0.000              0.000
 Translational            0.889              2.981             42.163
 Rotational               0.889              2.981             33.219
 Vibrational            170.808             52.691             59.632
 Vibration     1          0.593              1.985              6.483
 Vibration     2          0.593              1.984              6.002
 Vibration     3          0.594              1.981              5.251
 Vibration     4          0.596              1.974              4.489
 Vibration     5          0.598              1.968              4.132
 Vibration     6          0.601              1.960              3.800
 Vibration     7          0.604              1.950              3.475
 Vibration     8          0.605              1.944              3.335
 Vibration     9          0.617              1.905              2.701
 Vibration    10          0.633              1.854              2.228
 Vibration    11          0.644              1.822              2.021
 Vibration    12          0.654              1.790              1.854
 Vibration    13          0.676              1.723              1.577
 Vibration    14          0.714              1.611              1.249
 Vibration    15          0.717              1.603              1.231
 Vibration    16          0.725              1.580              1.177
 Vibration    17          0.749              1.516              1.045
 Vibration    18          0.755              1.499              1.013
 Vibration    19          0.898              1.155              0.559
 Vibration    20          0.906              1.139              0.543
 Vibration    21          0.947              1.054              0.468
 Vibration    22          0.975              1.000              0.424

 Optimization completed.
    -- Stationary point found.
 Normal termination of Gaussian 09 at Sat Jul 24 04:50:29 2021.
