 Gaussian 09, Revision D.01,
 Gaussian 09:  ES64L-G09RevD.01 24-Apr-2013

 ----------------------------------------------------------------------
 # B3LYP/6-311++G(d,p) EmpiricalDispersion=GD3BJ opt=calcfc freq=norama
 n nosymm integral(ultrafinegrid)
 ----------------------------------------------------------------------

 ------------------------------------------------------------
 Candidate Structure: Conf:862 OPT and FREQ calc in gas phase
 ------------------------------------------------------------
 Symbolic Z-matrix:
 Charge =  1 Multiplicity = 1

 SCF Done:  E(RB3LYP) =  -796.774150495     A.U. after   15 cycles
 SCF Done:  E(RB3LYP) =  -796.694903620     A.U. after   17 cycles
 SCF Done:  E(RB3LYP) =  -796.780990287     A.U. after   14 cycles
 SCF Done:  E(RB3LYP) =  -796.782950346     A.U. after   13 cycles
 SCF Done:  E(RB3LYP) =  -796.779122919     A.U. after   14 cycles
 SCF Done:  E(RB3LYP) =  -796.783164423     A.U. after   11 cycles
 SCF Done:  E(RB3LYP) =  -796.785178562     A.U. after   13 cycles
 SCF Done:  E(RB3LYP) =  -796.785722409     A.U. after   13 cycles
 SCF Done:  E(RB3LYP) =  -796.785956642     A.U. after   12 cycles
 SCF Done:  E(RB3LYP) =  -796.786039691     A.U. after   11 cycles
 SCF Done:  E(RB3LYP) =  -796.786059864     A.U. after   12 cycles
 SCF Done:  E(RB3LYP) =  -796.786072302     A.U. after   11 cycles
 SCF Done:  E(RB3LYP) =  -796.786076471     A.U. after   12 cycles
 SCF Done:  E(RB3LYP) =  -796.786078235     A.U. after   10 cycles
 SCF Done:  E(RB3LYP) =  -796.786078510     A.U. after    9 cycles
 SCF Done:  E(RB3LYP) =  -796.786078551     A.U. after    8 cycles
 Optimization completed.
    -- Stationary point found.
 Normal termination of Gaussian 09 at Sat Jul 24 04:21:33 2021.

 ----------------------------------------------------------------------
 #N Geom=AllCheck Guess=TCheck SCRF=Check GenChk RB3LYP/6-311++G(d,p) F
 req
 ----------------------------------------------------------------------

 Structure from the checkpoint file:  "conf-862.chk"
 ------------------------------------------------------------
 Candidate Structure: Conf:862 OPT and FREQ calc in gas phase
 ------------------------------------------------------------
 Charge =  1 Multiplicity = 1

                          Input orientation:
 ---------------------------------------------------------------------
 Center     Atomic      Atomic             Coordinates (Angstroms)
 Number     Number       Type             X           Y           Z
 ---------------------------------------------------------------------
      1          8           0       -0.719745    1.798655   -0.142889
      2          6           0        0.334063    1.245326    0.176722
      3          7           0        0.493534    0.568906    1.331782
      4          6           0       -0.626129    0.171498    2.164242
      5          6           0       -0.173569    0.183531    3.613935
      6          8           0       -1.217882    0.203821    4.449736
      7          8           0        0.981516    0.117879    3.949494
      8          6           0       -1.147623   -1.281518    1.807536
      9          6           0       -0.887163   -1.607853    0.375801
     10          6           0       -1.384829   -1.067524   -0.780166
     11          7           0       -0.605995   -1.431075   -1.863850
     12          6           0        0.330497   -2.231474   -1.382783
     13          7           0        0.205601   -2.357330   -0.035238
     14          6           0        1.526166    1.204646   -0.779038
     15          6           0        1.196078    1.768074   -2.161418
     16          7           0       -0.118189    1.233045   -2.673344
     17          1           0        1.407487    0.233356    1.606931
     18          1           0       -1.430606    0.887966    2.010657
     19          1           0       -0.891405    0.158139    5.363208
     20          1           0       -2.211460   -1.329780    2.040560
     21          1           0       -0.649792   -2.014434    2.447780
     22          1           0       -2.226020   -0.401609   -0.881884
     23          1           0        1.091967   -2.736734   -1.955931
     24          1           0        0.769781   -2.950301    0.556685
     25          1           0        1.868075    0.170053   -0.862197
     26          1           0        2.358697    1.781030   -0.365333
     27          1           0        1.973431    1.507506   -2.878095
     28          1           0        1.093621    2.852117   -2.130794
     29          1           0       -0.190414    0.180054   -2.643787
     30          1           0       -0.321772    1.563647   -3.616397
     31          1           0       -0.827818    1.580593   -2.003729
 ---------------------------------------------------------------------

 SCF Done:  E(RB3LYP) =  -796.786078552     A.U. after    1 cycles

 Alpha  occ. eigenvalues --  -19.29902 -19.24492 -19.24485 -14.56162 -14.51426
 Alpha  occ. eigenvalues --  -14.48649 -14.44888 -10.43707 -10.43121 -10.38895
 Alpha  occ. eigenvalues --  -10.37312 -10.36664 -10.34892 -10.34546 -10.32958
 Alpha  occ. eigenvalues --  -10.32440  -1.24369  -1.19967  -1.16513  -1.15708
 Alpha  occ. eigenvalues --   -1.13722  -1.08147  -1.02151  -0.95347  -0.93202
 Alpha  occ. eigenvalues --   -0.89015  -0.83029  -0.81235  -0.76588  -0.75795
 Alpha  occ. eigenvalues --   -0.74299  -0.73446  -0.72507  -0.71706  -0.68679
 Alpha  occ. eigenvalues --   -0.66697  -0.64432  -0.63370  -0.62596  -0.61759
 Alpha  occ. eigenvalues --   -0.60532  -0.59499  -0.59273  -0.58190  -0.56573
 Alpha  occ. eigenvalues --   -0.55922  -0.55690  -0.54754  -0.54531  -0.54029
 Alpha  occ. eigenvalues --   -0.53066  -0.51123  -0.50747  -0.45609  -0.44258
 Alpha  occ. eigenvalues --   -0.43102  -0.42410  -0.41365  -0.41107  -0.37194
 Alpha virt. eigenvalues --   -0.14869  -0.14395  -0.14212  -0.12778  -0.12277
 Alpha virt. eigenvalues --   -0.11017  -0.10419  -0.10183  -0.09277  -0.09270
 Alpha virt. eigenvalues --   -0.08496  -0.07727  -0.06895  -0.06607  -0.06284

 Mulliken charges:
               1
     1  O   -0.304769
     2  C   -0.329484
     3  N    0.151317
     4  C   -0.347764
     5  C    0.129279
     6  O   -0.093803
     7  O   -0.217444
     8  C   -0.873370
     9  C    0.630072
    10  C   -0.556121
    11  N   -0.092263
    12  C   -0.076718
    13  N   -0.117521
    14  C   -0.085998
    15  C   -0.643034
    16  N   -0.344890
    17  H    0.306196
    18  H    0.317061
    19  H    0.313719
    20  H    0.245911
    21  H    0.199264
    22  H    0.209440
    23  H    0.192421
    24  H    0.343030
    25  H    0.249006
    26  H    0.245538
    27  H    0.226208
    28  H    0.258759
    29  H    0.363916
    30  H    0.358977
    31  H    0.343063
 Sum of Mulliken charges =   1.00000

 Dipole moment (field-independent basis, Debye):
    X=              2.3248    Y=              0.1673    Z=             -3.4388  Tot=              4.1542
 Quadrupole moment (field-independent basis, Debye-Ang):
   XX=            -85.4844   YY=            -75.9086   ZZ=            -52.5024
   XY=             -0.2561   XZ=            -11.5066   YZ=            -16.5389

  Exact polarizability: 122.528  -2.865 118.682  -7.259  -7.399 163.695
 Approx polarizability: 209.674 -23.767 174.924   0.366 -14.603 223.706

                      1                      2                      3
                      A                      A                      A
 Frequencies --     30.1915                54.1421                89.8163
 Red. masses --      4.7350                 8.7982                 4.2990
 Frc consts  --      0.0025                 0.0152                 0.0204
 IR Inten    --      3.0382                 1.2726                 0.2552

                      4                      5                      6
                      A                      A                      A
 Frequencies --    108.1923               113.5054               128.7432
 Red. masses --      4.5613                 5.0935                 3.8727
 Frc consts  --      0.0315                 0.0387                 0.0378
 IR Inten    --     10.9388                 2.2354                 8.8620

                      7                      8                      9
                      A                      A                      A
 Frequencies --    143.2763               155.2391               185.3255
 Red. masses --      4.1546                 4.9959                 3.9241
 Frc consts  --      0.0502                 0.0709                 0.0794
 IR Inten    --     15.1173                 9.3851                13.6825

                     10                     11                     12
                      A                      A                      A
 Frequencies --    202.5994               260.4578               305.8456
 Red. masses --      2.4677                 4.4858                 5.7599
 Frc consts  --      0.0597                 0.1793                 0.3174
 IR Inten    --     31.2044                35.1514                 1.8111

                     13                     14                     15
                      A                      A                      A
 Frequencies --    314.0027               336.7586               351.7589
 Red. masses --      2.4044                 4.2362                 4.0791
 Frc consts  --      0.1397                 0.2830                 0.2974
 IR Inten    --      5.0281                11.5785                34.8289

                     16                     17                     18
                      A                      A                      A
 Frequencies --    408.3700               436.1345               457.6086
 Red. masses --      3.0063                 1.9765                 1.4658
 Frc consts  --      0.2954                 0.2215                 0.1808
 IR Inten    --      8.4068                14.8447                 1.9871

                     19                     20                     21
                      A                      A                      A
 Frequencies --    524.1542               551.9771               594.0086
 Red. masses --      1.8420                 3.7280                 1.7255
 Frc consts  --      0.2982                 0.6692                 0.3587
 IR Inten    --     84.7110                20.8263               108.0634

                     22                     23                     24
                      A                      A                      A
 Frequencies --    619.2333               621.7798               635.6586
 Red. masses --      1.7345                 1.3120                 3.3010
 Frc consts  --      0.3919                 0.2989                 0.7858
 IR Inten    --      4.4125                58.7871                78.2180

                     25                     26                     27
                      A                      A                      A
 Frequencies --    682.3389               688.9220               689.6784
 Red. masses --      2.7856                 2.8300                 2.8749
 Frc consts  --      0.7641                 0.7914                 0.8057
 IR Inten    --     50.0077                12.9054                 1.1852

                     28                     29                     30
                      A                      A                      A
 Frequencies --    721.8925               772.0940               825.3704
 Red. masses --      3.2447                 4.3214                 1.4598
 Frc consts  --      0.9963                 1.5178                 0.5859
 IR Inten    --      7.6612                19.6997                10.3180

                     31                     32                     33
                      A                      A                      A
 Frequencies --    840.9442               854.1630               867.6755
 Red. masses --      2.2976                 1.9797                 1.7121
 Frc consts  --      0.9573                 0.8510                 0.7594
 IR Inten    --     14.8316                18.9231                16.0868

                     34                     35                     36
                      A                      A                      A
 Frequencies --    878.5737               930.8619               952.9816
 Red. masses --      2.2299                 2.7196                 4.0319
 Frc consts  --      1.0141                 1.3884                 2.1574
 IR Inten    --      3.9842                10.5767                 6.3375

                     37                     38                     39
                      A                      A                      A
 Frequencies --    958.6364               983.4643              1000.7104
 Red. masses --      4.4163                 1.5231                 3.1400
 Frc consts  --      2.3912                 0.8680                 1.8527
 IR Inten    --      6.3355                 2.4332                13.9179

                     40                     41                     42
                      A                      A                      A
 Frequencies --   1033.8499              1044.5682              1102.4514
 Red. masses --      3.3013                 3.1484                 2.2612
 Frc consts  --      2.0790                 2.0240                 1.6192
 IR Inten    --      6.5876                11.4467                16.7089

                     43                     44                     45
                      A                      A                      A
 Frequencies --   1126.7381              1130.7339              1135.8843
 Red. masses --      1.5347                 1.5918                 2.2240
 Frc consts  --      1.1479                 1.1991                 1.6907
 IR Inten    --    102.3340                11.6564                22.2538

                     46                     47                     48
                      A                      A                      A
 Frequencies --   1149.1836              1163.3608              1204.4088
 Red. masses --      1.4156                 1.8787                 1.8834
 Frc consts  --      1.1015                 1.4980                 1.6096
 IR Inten    --     33.8769               159.4303                52.8327

                     49                     50                     51
                      A                      A                      A
 Frequencies --   1248.1372              1254.0336              1277.8825
 Red. masses --      1.7693                 1.7737                 1.4244
 Frc consts  --      1.6240                 1.6434                 1.3704
 IR Inten    --      4.1910                10.6738                 8.6509

                     52                     53                     54
                      A                      A                      A
 Frequencies --   1286.7143              1297.8889              1334.6035
 Red. masses --      1.3185                 1.5524                 1.6616
 Frc consts  --      1.2861                 1.5408                 1.7437
 IR Inten    --     11.2348                 7.6696                 1.6601

                     55                     56                     57
                      A                      A                      A
 Frequencies --   1342.1782              1353.0635              1387.2306
 Red. masses --      1.2714                 1.2512                 1.6659
 Frc consts  --      1.3495                 1.3496                 1.8889
 IR Inten    --     10.8332                10.4547                76.8472

                     58                     59                     60
                      A                      A                      A
 Frequencies --   1393.3172              1418.2885              1425.4810
 Red. masses --      2.4335                 2.2349                 1.3430
 Frc consts  --      2.7834                 2.6487                 1.6079
 IR Inten    --      1.8527               144.3399                 8.6272

                     61                     62                     63
                      A                      A                      A
 Frequencies --   1435.3950              1465.3561              1487.1978
 Red. masses --      2.5752                 1.1004                 1.2689
 Frc consts  --      3.1261                 1.3921                 1.6535
 IR Inten    --     25.5514                21.6350                19.4571

                     64                     65                     66
                      A                      A                      A
 Frequencies --   1494.4421              1504.9481              1513.3334
 Red. masses --      2.2679                 1.1014                 1.2210
 Frc consts  --      2.9842                 1.4697                 1.6476
 IR Inten    --      2.5167                26.6338               208.5602

                     67                     68                     69
                      A                      A                      A
 Frequencies --   1559.9498              1615.5662              1641.1941
 Red. masses --      2.1306                 4.1768                 1.1155
 Frc consts  --      3.0548                 6.4231                 1.7703
 IR Inten    --    187.0506                15.0077                42.8306

                     70                     71                     72
                      A                      A                      A
 Frequencies --   1700.0885              1714.6311              1815.3801
 Red. masses --      1.3657                 2.3969                10.1611
 Frc consts  --      2.3257                 4.1518                19.7299
 IR Inten    --    276.0107                51.6081               286.7447

                     73                     74                     75
                      A                      A                      A
 Frequencies --   2892.2295              3054.2895              3056.9254
 Red. masses --      1.0826                 1.0608                 1.0658
 Frc consts  --      5.3355                 5.8306                 5.8679
 IR Inten    --    873.8764                 3.4874                 8.7478

                     76                     77                     78
                      A                      A                      A
 Frequencies --   3089.1860              3097.4522              3112.3836
 Red. masses --      1.0854                 1.0766                 1.0975
 Frc consts  --      6.1026                 6.0856                 6.2637
 IR Inten    --      1.9801                 3.3928                 1.6099

                     79                     80                     81
                      A                      A                      A
 Frequencies --   3131.4771              3147.0494              3247.3777
 Red. masses --      1.0878                 1.1104                 1.0678
 Frc consts  --      6.2849                 6.4794                 6.6345
 IR Inten    --      3.0154                 2.0936               178.9728

                     82                     83                     84
                      A                      A                      A
 Frequencies --   3250.7958              3254.7979              3507.7435
 Red. masses --      1.0958                 1.1020                 1.0789
 Frc consts  --      6.8229                 6.8783                 7.8215
 IR Inten    --      5.3733                 7.0312               108.1237

                     85                     86                     87
                      A                      A                      A
 Frequencies --   3590.2530              3628.2500              3737.0206
 Red. masses --      1.0779                 1.0821                 1.0647
 Frc consts  --      8.1858                 8.3929                 8.7606
 IR Inten    --     69.5166                89.0113               139.0572

 - Thermochemistry -
 -------------------
 Temperature   298.150 Kelvin.  Pressure   1.00000 Atm.
 Atom     1 has atomic number  8 and mass  15.99491

 Molecular mass:   227.11442 amu.
 Principal axes and moments of inertia in atomic units:
                           1         2         3
     Eigenvalues --  2150.243394561.763695614.48960
           X           -0.09922   0.28672   0.95286
           Y           -0.04667   0.95519  -0.29228
           Z            0.99397   0.07347   0.08139
 This molecule is an asymmetric top.
 Rotational symmetry number  1.
 Warning -- assumption of classical behavior for rotation
           may cause significant error
 Rotational temperatures (Kelvin)      0.04028     0.01899     0.01543
 Rotational constants (GHZ):           0.83932     0.39562     0.32144
 Zero-point vibrational energy     682659.7 (Joules/Mol)
                                  163.15959 (Kcal/Mol)
 Warning -- explicit consideration of  22 degrees of freedom as
           vibrations may cause significant error
 Vibrational temperatures:     43.44    77.90   129.23   155.66   163.31
          (Kelvin)            185.23   206.14   223.35   266.64   291.49
                              374.74   440.04   451.78   484.52   506.10
                              587.55   627.50   658.40   754.14   794.17
                              854.64   890.94   894.60   914.57   981.73
                              991.20   992.29  1038.64  1110.87  1187.52
                             1209.93  1228.95  1248.39  1264.07  1339.30
                             1371.13  1379.26  1414.98  1439.80  1487.48
                             1502.90  1586.18  1621.12  1626.87  1634.28
                             1653.42  1673.81  1732.87  1795.79  1804.27
                             1838.59  1851.29  1867.37  1920.19  1931.09
                             1946.75  1995.91  2004.67  2040.60  2050.95
                             2065.21  2108.32  2139.74  2150.17  2165.28
                             2177.35  2244.42  2324.44  2361.31  2446.05
                             2466.97  2611.92  4161.27  4394.44  4398.23
                             4444.64  4456.54  4478.02  4505.49  4527.90
                             4672.25  4677.16  4682.92  5046.85  5165.57
                             5220.24  5376.73

 Zero-point correction=                           0.260011 (Hartree/Particle)
 Thermal correction to Energy=                    0.275153
 Thermal correction to Enthalpy=                  0.276097
 Thermal correction to Gibbs Free Energy=         0.217259
 Sum of electronic and zero-point Energies=           -796.526067
 Sum of electronic and thermal Energies=              -796.510926
 Sum of electronic and thermal Enthalpies=            -796.509982
 Sum of electronic and thermal Free Energies=         -796.568819

                     E (Thermal)             CV                S
                      KCal/Mol        Cal/Mol-Kelvin    Cal/Mol-Kelvin
 Total                  172.661             57.613            123.834
 Electronic               0.000              0.000              0.000
 Translational            0.889              2.981             42.163
 Rotational               0.889              2.981             32.377
 Vibrational            170.883             51.652             49.294
 Vibration     1          0.594              1.984              5.817
 Vibration     2          0.596              1.976              4.660
 Vibration     3          0.602              1.956              3.664
 Vibration     4          0.606              1.943              3.301
 Vibration     5          0.607              1.938              3.208
 Vibration     6          0.611              1.925              2.965
 Vibration     7          0.616              1.910              2.760
 Vibration     8          0.620              1.897              2.607
 Vibration     9          0.631              1.860              2.274
 Vibration    10          0.639              1.836              2.109
 Vibration    11          0.669              1.745              1.659
 Vibration    12          0.696              1.663              1.385
 Vibration    13          0.702              1.647              1.341
 Vibration    14          0.717              1.602              1.227
 Vibration    15          0.728              1.572              1.158
 Vibration    16          0.773              1.452              0.932
 Vibration    17          0.797              1.391              0.839
 Vibration    18          0.816              1.344              0.773
 Vibration    19          0.879              1.197              0.600
 Vibration    20          0.907              1.135              0.540
 Vibration    21          0.952              1.045              0.460
 Vibration    22          0.979              0.991              0.418

 Optimization completed.
    -- Stationary point found.
 Normal termination of Gaussian 09 at Sat Jul 24 05:48:02 2021.
