 Gaussian 09, Revision D.01,
 Gaussian 09:  ES64L-G09RevD.01 24-Apr-2013

 ----------------------------------------------------------------------
 # B3LYP/6-311++G(d,p) EmpiricalDispersion=GD3BJ opt=calcfc freq=norama
 n nosymm integral(ultrafinegrid)
 ----------------------------------------------------------------------

 ------------------------------------------------------------
 Candidate Structure: Conf:628 OPT and FREQ calc in gas phase
 ------------------------------------------------------------
 Symbolic Z-matrix:
 Charge =  1 Multiplicity = 1

 SCF Done:  E(RB3LYP) =  -796.760117121     A.U. after   14 cycles
 SCF Done:  E(RB3LYP) =  -796.765785547     A.U. after   14 cycles
 SCF Done:  E(RB3LYP) =  -796.767261823     A.U. after   13 cycles
 SCF Done:  E(RB3LYP) =  -796.767780304     A.U. after   13 cycles
 SCF Done:  E(RB3LYP) =  -796.768010914     A.U. after   12 cycles
 SCF Done:  E(RB3LYP) =  -796.768030277     A.U. after   10 cycles
 SCF Done:  E(RB3LYP) =  -796.768033208     A.U. after   10 cycles
 SCF Done:  E(RB3LYP) =  -796.768033739     A.U. after   10 cycles
 SCF Done:  E(RB3LYP) =  -796.768033825     A.U. after    8 cycles
 Optimization completed.
    -- Stationary point found.
 Normal termination of Gaussian 09 at Sat Jul 24 02:52:15 2021.

 ----------------------------------------------------------------------
 #N Geom=AllCheck Guess=TCheck SCRF=Check GenChk RB3LYP/6-311++G(d,p) F
 req
 ----------------------------------------------------------------------

 Structure from the checkpoint file:  "conf-628.chk"
 ------------------------------------------------------------
 Candidate Structure: Conf:628 OPT and FREQ calc in gas phase
 ------------------------------------------------------------
 Charge =  1 Multiplicity = 1

                          Input orientation:
 ---------------------------------------------------------------------
 Center     Atomic      Atomic             Coordinates (Angstroms)
 Number     Number       Type             X           Y           Z
 ---------------------------------------------------------------------
      1          8           0       -1.389333   -0.064358   -0.854571
      2          6           0       -1.520130   -0.193410    0.379437
      3          7           0       -0.481523   -0.350431    1.192804
      4          6           0        0.898299   -0.409622    0.712853
      5          6           0        1.701438   -1.002508    1.860618
      6          8           0        2.993205   -1.178816    1.544242
      7          8           0        1.233737   -1.260813    2.941015
      8          6           0        1.440077    0.987171    0.264188
      9          6           0        2.347866    0.940366   -0.914894
     10          6           0        2.144798    1.352543   -2.210085
     11          7           0        3.257308    1.112346   -2.980213
     12          6           0        4.131731    0.557308   -2.173117
     13          7           0        3.634526    0.431617   -0.905471
     14          6           0       -2.910683   -0.137684    1.006993
     15          6           0       -3.969458   -0.743283    0.081672
     16          7           0       -3.901425   -0.069287   -1.270247
     17          1           0       -0.610225   -0.530121    2.183652
     18          1           0        0.944302   -1.084594   -0.145030
     19          1           0        3.447293   -1.549060    2.319070
     20          1           0        0.576486    1.586274   -0.023321
     21          1           0        1.902709    1.489370    1.119890
     22          1           0        1.260966    1.815738   -2.621349
     23          1           0        5.125053    0.231511   -2.440616
     24          1           0        4.087959   -0.004506   -0.117931
     25          1           0       -2.940732   -0.665501    1.961654
     26          1           0       -3.143098    0.911908    1.220126
     27          1           0       -3.773038   -1.801070   -0.093949
     28          1           0       -4.973718   -0.634921    0.487750
     29          1           0       -4.309638    0.866878   -1.256003
     30          1           0       -2.837941    0.007242   -1.447852
     31          1           0       -4.366793   -0.610003   -1.999920
 ---------------------------------------------------------------------

 SCF Done:  E(RB3LYP) =  -796.768033825     A.U. after    1 cycles

 Alpha  occ. eigenvalues --  -19.31274 -19.26878 -19.25797 -14.58699 -14.50469
 Alpha  occ. eigenvalues --  -14.45326 -14.37374 -10.44961 -10.44954 -10.41122
 Alpha  occ. eigenvalues --  -10.36981 -10.36591 -10.31080 -10.30680 -10.29671
 Alpha  occ. eigenvalues --  -10.26861  -1.25745  -1.22124  -1.17051  -1.15976
 Alpha  occ. eigenvalues --   -1.10290  -1.09587  -0.96909  -0.95872  -0.92771
 Alpha  occ. eigenvalues --   -0.86423  -0.83715  -0.79282  -0.77964  -0.75797
 Alpha  occ. eigenvalues --   -0.74765  -0.73410  -0.70299  -0.68847  -0.68041
 Alpha  occ. eigenvalues --   -0.66667  -0.65132  -0.63631  -0.62924  -0.62070
 Alpha  occ. eigenvalues --   -0.61149  -0.59863  -0.58903  -0.57208  -0.56783
 Alpha  occ. eigenvalues --   -0.55928  -0.55161  -0.53484  -0.52496  -0.51206
 Alpha  occ. eigenvalues --   -0.50339  -0.50240  -0.49396  -0.46948  -0.44396
 Alpha  occ. eigenvalues --   -0.43136  -0.42753  -0.36972  -0.35250  -0.31839
 Alpha virt. eigenvalues --   -0.17316  -0.15685  -0.14019  -0.12965  -0.12740
 Alpha virt. eigenvalues --   -0.11511  -0.10542  -0.09779  -0.08936  -0.07915
 Alpha virt. eigenvalues --   -0.07602  -0.07303  -0.06907  -0.06581  -0.06125

 Mulliken charges:
               1
     1  O   -0.299764
     2  C   -0.252218
     3  N    0.063958
     4  C   -0.361055
     5  C    0.192184
     6  O   -0.186107
     7  O   -0.236051
     8  C   -0.245605
     9  C    0.097288
    10  C   -0.405787
    11  N   -0.126297
    12  C    0.066584
    13  N   -0.147078
    14  C   -0.350422
    15  C   -0.533985
    16  N   -0.344618
    17  H    0.313733
    18  H    0.311677
    19  H    0.331254
    20  H    0.234754
    21  H    0.223296
    22  H    0.123605
    23  H    0.181894
    24  H    0.329382
    25  H    0.192788
    26  H    0.249082
    27  H    0.244864
    28  H    0.267652
    29  H    0.325110
    30  H    0.400796
    31  H    0.339088
 Sum of Mulliken charges =   1.00000

 Dipole moment (field-independent basis, Debye):
    X=            -12.2146    Y=             -2.3403    Z=              2.6629  Tot=             12.7186
 Quadrupole moment (field-independent basis, Debye-Ang):
   XX=             -6.1114   YY=            -89.6150   ZZ=            -96.9483
   XY=             -6.2494   XZ=             25.2829   YZ=              3.3501

  Exact polarizability: 171.178  -4.262 101.600  -6.837 -15.822 149.953
 Approx polarizability: 217.211 -14.582 154.443  -5.202 -19.503 234.288

                      1                      2                      3
                      A                      A                      A
 Frequencies --     25.4444                29.9322                48.0309
 Red. masses --      4.9310                 3.8740                 5.0433
 Frc consts  --      0.0019                 0.0020                 0.0069
 IR Inten    --      3.9662                 9.4593                 2.3376

                      4                      5                      6
                      A                      A                      A
 Frequencies --     59.2726                72.8700                96.3953
 Red. masses --      4.8098                 5.9840                 5.1739
 Frc consts  --      0.0100                 0.0187                 0.0283
 IR Inten    --      6.2067                 3.5795                 6.9869

                      7                      8                      9
                      A                      A                      A
 Frequencies --    116.2471               129.8029               188.7274
 Red. masses --      5.0742                 5.5304                 5.0403
 Frc consts  --      0.0404                 0.0549                 0.1058
 IR Inten    --      2.2805                 0.5979                 8.9878

                     10                     11                     12
                      A                      A                      A
 Frequencies --    206.7322               260.4283               288.3982
 Red. masses --      2.1915                 5.0658                 4.1151
 Frc consts  --      0.0552                 0.2024                 0.2017
 IR Inten    --     26.3996                52.3655                 2.3454

                     13                     14                     15
                      A                      A                      A
 Frequencies --    322.7217               346.2302               385.8407
 Red. masses --      2.0933                 6.0504                 3.1392
 Frc consts  --      0.1284                 0.4273                 0.2754
 IR Inten    --     10.7334                 1.4495                96.9698

                     16                     17                     18
                      A                      A                      A
 Frequencies --    388.7402               401.5956               446.2049
 Red. masses --      2.7140                 1.7191                 2.3663
 Frc consts  --      0.2416                 0.1634                 0.2776
 IR Inten    --     31.4477                27.7061                 6.5313

                     19                     20                     21
                      A                      A                      A
 Frequencies --    543.4853               548.5506               588.8528
 Red. masses --      2.6384                 1.6121                 2.0264
 Frc consts  --      0.4592                 0.2858                 0.4140
 IR Inten    --     60.7457                54.7055                16.8060

                     22                     23                     24
                      A                      A                      A
 Frequencies --    603.0557               642.0571               661.8915
 Red. masses --      2.2442                 3.0795                 1.2936
 Frc consts  --      0.4809                 0.7480                 0.3339
 IR Inten    --     31.5489                79.6790                 2.8771

                     25                     26                     27
                      A                      A                      A
 Frequencies --    663.9049               676.8216               732.2649
 Red. masses --      2.1224                 2.5273                 3.1147
 Frc consts  --      0.5512                 0.6821                 0.9840
 IR Inten    --    123.2025                 0.7454                15.0571

                     28                     29                     30
                      A                      A                      A
 Frequencies --    737.2204               773.0736               823.5298
 Red. masses --      3.3199                 4.0274                 2.5999
 Frc consts  --      1.0631                 1.4181                 1.0389
 IR Inten    --     26.1470                 7.0865                 5.5961

                     31                     32                     33
                      A                      A                      A
 Frequencies --    825.6314               848.2049               851.8733
 Red. masses --      1.4010                 1.5509                 2.2949
 Frc consts  --      0.5627                 0.6574                 0.9812
 IR Inten    --     24.1342                20.2396                28.8666

                     34                     35                     36
                      A                      A                      A
 Frequencies --    885.2121               939.7462               947.6118
 Red. masses --      2.0069                 5.2960                 2.3193
 Frc consts  --      0.9266                 2.7556                 1.2271
 IR Inten    --     87.7429                12.2049                 2.1772

                     37                     38                     39
                      A                      A                      A
 Frequencies --    952.1808               999.6718              1004.0848
 Red. masses --      1.4617                 4.2005                 3.3118
 Frc consts  --      0.7808                 2.4732                 1.9672
 IR Inten    --      3.4202                 1.6035                 3.6517

                     40                     41                     42
                      A                      A                      A
 Frequencies --   1024.7815              1033.0655              1099.4042
 Red. masses --      3.6115                 3.2936                 2.8654
 Frc consts  --      2.2346                 2.0710                 2.0405
 IR Inten    --     31.8788                10.6421                 9.1197

                     43                     44                     45
                      A                      A                      A
 Frequencies --   1110.6900              1127.2544              1137.9652
 Red. masses --      1.6325                 1.4734                 1.5338
 Frc consts  --      1.1866                 1.1031                 1.1702
 IR Inten    --     33.6332               161.9843                21.6307

                     46                     47                     48
                      A                      A                      A
 Frequencies --   1150.0781              1190.5907              1192.8933
 Red. masses --      2.0810                 2.3070                 1.3867
 Frc consts  --      1.6217                 1.9268                 1.1626
 IR Inten    --     24.1053               116.0182                75.5156

                     49                     50                     51
                      A                      A                      A
 Frequencies --   1251.3622              1266.4235              1273.4002
 Red. masses --      1.5132                 2.0862                 1.4399
 Frc consts  --      1.3961                 1.9714                 1.3756
 IR Inten    --      6.9508                 9.1538                 2.6092

                     52                     53                     54
                      A                      A                      A
 Frequencies --   1291.3428              1306.8623              1326.7392
 Red. masses --      1.3003                 1.3110                 1.3247
 Frc consts  --      1.2776                 1.3192                 1.3738
 IR Inten    --     13.8873                 0.5522                 4.8599

                     55                     56                     57
                      A                      A                      A
 Frequencies --   1329.0711              1358.4856              1380.0092
 Red. masses --      1.2575                 1.5168                 1.6180
 Frc consts  --      1.3087                 1.6493                 1.8155
 IR Inten    --     68.4170                39.3773                 9.2901

                     58                     59                     60
                      A                      A                      A
 Frequencies --   1393.7496              1401.1213              1426.5864
 Red. masses --      3.2098                 1.2550                 2.2456
 Frc consts  --      3.6737                 1.4516                 2.6926
 IR Inten    --     32.9549               100.2341                72.4679

                     61                     62                     63
                      A                      A                      A
 Frequencies --   1429.1208              1461.7437              1466.3736
 Red. masses --      2.6781                 1.2947                 1.0815
 Frc consts  --      3.2226                 1.6299                 1.3702
 IR Inten    --     27.0852               502.4034                18.4954

                     64                     65                     66
                      A                      A                      A
 Frequencies --   1476.9206              1496.5260              1510.4301
 Red. masses --      1.1482                 3.2787                 1.0754
 Frc consts  --      1.4757                 4.3264                 1.4455
 IR Inten    --     12.2758                26.7115                30.7138

                     67                     68                     69
                      A                      A                      A
 Frequencies --   1570.4696              1606.0368              1630.5418
 Red. masses --      2.7189                 4.4365                 1.1754
 Frc consts  --      3.9509                 6.7422                 1.8412
 IR Inten    --    231.4828                 2.9010                30.3217

                     70                     71                     72
                      A                      A                      A
 Frequencies --   1679.0770              1695.0790              1810.5033
 Red. masses --      1.1732                 2.5296                 9.7186
 Frc consts  --      1.9487                 4.2823                18.7695
 IR Inten    --    103.6786               128.0424               340.8892

                     73                     74                     75
                      A                      A                      A
 Frequencies --   2568.6417              3036.2231              3039.7981
 Red. masses --      1.0900                 1.0698                 1.0684
 Frc consts  --      4.2371                 5.8104                 5.8165
 IR Inten    --   1199.7420                19.2284                 0.7853

                     76                     77                     78
                      A                      A                      A
 Frequencies --   3074.8742              3090.0020              3106.5842
 Red. masses --      1.0837                 1.0625                 1.0939
 Frc consts  --      6.0370                 5.9772                 6.2201
 IR Inten    --      3.5843                 1.7762                 0.5792

                     79                     80                     81
                      A                      A                      A
 Frequencies --   3113.1232              3146.5618              3233.5794
 Red. masses --      1.0940                 1.1110                 1.0967
 Frc consts  --      6.2467                 6.4811                 6.7562
 IR Inten    --      4.9122                 0.5011                 5.5211

                     82                     83                     84
                      A                      A                      A
 Frequencies --   3247.3072              3458.9137              3523.4157
 Red. masses --      1.0990                 1.0522                 1.0946
 Frc consts  --      6.8282                 7.4170                 8.0066
 IR Inten    --      1.1648                81.6127                76.4689

                     85                     86                     87
                      A                      A                      A
 Frequencies --   3539.3018              3652.9270              3733.6194
 Red. masses --      1.0787                 1.0812                 1.0647
 Frc consts  --      7.9611                 8.5005                 8.7443
 IR Inten    --    135.4228                90.7803               141.3837

 - Thermochemistry -
 -------------------
 Temperature   298.150 Kelvin.  Pressure   1.00000 Atm.
 Atom     1 has atomic number  8 and mass  15.99491

 Molecular mass:   227.11442 amu.
 Principal axes and moments of inertia in atomic units:
                           1         2         3
     Eigenvalues --  2514.888825909.302398084.10434
           X            0.97717   0.20785  -0.04402
           Y            0.12135  -0.37593   0.91867
           Z           -0.17440   0.90304   0.39257
 This molecule is an asymmetric top.
 Rotational symmetry number  1.
 Warning -- assumption of classical behavior for rotation
           may cause significant error
 Rotational temperatures (Kelvin)      0.03444     0.01466     0.01071
 Rotational constants (GHZ):           0.71762     0.30541     0.22325
 Zero-point vibrational energy     679072.8 (Joules/Mol)
                                  162.30230 (Kcal/Mol)
 Warning -- explicit consideration of  22 degrees of freedom as
           vibrations may cause significant error
 Vibrational temperatures:     36.61    43.07    69.11    85.28   104.84
          (Kelvin)            138.69   167.25   186.76   271.54   297.44
                              374.70   414.94   464.32   498.15   555.14
                              559.31   577.81   641.99   781.95   789.24
                              847.23   867.66   923.78   952.31   955.21
                              973.79  1053.56  1060.69  1112.28  1184.87
                             1187.90  1220.38  1225.65  1273.62  1352.08
                             1363.40  1369.97  1438.30  1444.65  1474.43
                             1486.35  1581.80  1598.03  1621.87  1637.28
                             1654.70  1712.99  1716.31  1800.43  1822.10
                             1832.14  1857.95  1880.28  1908.88  1912.23
                             1954.56  1985.52  2005.29  2015.90  2052.54
                             2056.18  2103.12  2109.78  2124.96  2153.16
                             2173.17  2259.55  2310.73  2345.98  2415.81
                             2438.84  2604.91  3695.70  4368.44  4373.59
                             4424.05  4445.82  4469.68  4479.08  4527.19
                             4652.39  4672.14  4976.60  5069.40  5092.26
                             5255.74  5371.84

 Zero-point correction=                           0.258645 (Hartree/Particle)
 Thermal correction to Energy=                    0.274256
 Thermal correction to Enthalpy=                  0.275200
 Thermal correction to Gibbs Free Energy=         0.213118
 Sum of electronic and zero-point Energies=           -796.509389
 Sum of electronic and thermal Energies=              -796.493778
 Sum of electronic and thermal Enthalpies=            -796.492834
 Sum of electronic and thermal Free Energies=         -796.554916

                     E (Thermal)             CV                S
                      KCal/Mol        Cal/Mol-Kelvin    Cal/Mol-Kelvin
 Total                  172.098             57.789            130.663
 Electronic               0.000              0.000              0.000
 Translational            0.889              2.981             42.163
 Rotational               0.889              2.981             33.152
 Vibrational            170.321             51.828             55.348
 Vibration     1          0.593              1.985              6.156
 Vibration     2          0.594              1.984              5.834
 Vibration     3          0.595              1.978              4.897
 Vibration     4          0.597              1.974              4.481
 Vibration     5          0.599              1.967              4.074
 Vibration     6          0.603              1.952              3.526
 Vibration     7          0.608              1.936              3.162
 Vibration     8          0.612              1.923              2.949
 Vibration     9          0.633              1.855              2.240
 Vibration    10          0.641              1.830              2.072
 Vibration    11          0.668              1.745              1.659
 Vibration    12          0.685              1.695              1.483
 Vibration    13          0.708              1.630              1.296
 Vibration    14          0.724              1.583              1.183
 Vibration    15          0.755              1.500              1.016
 Vibration    16          0.757              1.494              1.005
 Vibration    17          0.767              1.467              0.957
 Vibration    18          0.805              1.369              0.807
 Vibration    19          0.899              1.154              0.558
 Vibration    20          0.904              1.143              0.547
 Vibration    21          0.946              1.056              0.469
 Vibration    22          0.961              1.025              0.444

 Normal termination of Gaussian 09 at Sat Jul 24 04:07:32 2021.
