 Gaussian 09, Revision D.01,
 Gaussian 09:  ES64L-G09RevD.01 24-Apr-2013

 ----------------------------------------------------------------------
 # B3LYP/6-31+G(d,p) opt=calcfc freq=noraman nosymm integral(ultrafineg
 rid)
 ----------------------------------------------------------------------

 ------------------------------------------------------------
 Candidate Structure: Conf:340 OPT and FREQ calc in gas phase
 ------------------------------------------------------------
 Symbolic Z-matrix:
 Charge =  0 Multiplicity = 1

 SCF Done:  E(RB3LYP) =  -796.148140008     A.U. after   14 cycles
 SCF Done:  E(RB3LYP) =  -796.150821284     A.U. after   12 cycles
 SCF Done:  E(RB3LYP) =  -796.151156126     A.U. after   13 cycles
 SCF Done:  E(RB3LYP) =  -796.151073774     A.U. after   12 cycles
 SCF Done:  E(RB3LYP) =  -796.151200936     A.U. after   12 cycles
 SCF Done:  E(RB3LYP) =  -796.151205503     A.U. after   10 cycles
 SCF Done:  E(RB3LYP) =  -796.151206532     A.U. after   10 cycles
 SCF Done:  E(RB3LYP) =  -796.151206600     A.U. after    9 cycles
 Optimization completed.
    -- Stationary point found.
 Normal termination of Gaussian 09 at Wed Jul 28 23:09:56 2021.

 ----------------------------------------------------------------------
 #N Geom=AllCheck Guess=TCheck SCRF=Check GenChk RB3LYP/6-31+G(d,p) Fre
 q
 ----------------------------------------------------------------------

 Structure from the checkpoint file:  "conf-340.chk"
 ------------------------------------------------------------
 Candidate Structure: Conf:340 OPT and FREQ calc in gas phase
 ------------------------------------------------------------
 Charge =  0 Multiplicity = 1

                          Input orientation:
 ---------------------------------------------------------------------
 Center     Atomic      Atomic             Coordinates (Angstroms)
 Number     Number       Type             X           Y           Z
 ---------------------------------------------------------------------
      1          8           0        0.596553   -0.965103   -0.794342
      2          6           0        1.378391   -0.181019   -0.238570
      3          7           0        0.932985    0.977361    0.319646
      4          6           0       -0.451818    1.368473    0.165546
      5          6           0       -0.587136    2.858972    0.459279
      6          8           0       -1.818238    3.373612    0.261035
      7          8           0        0.322839    3.550201    0.855650
      8          6           0       -1.435141    0.521203    1.055502
      9          6           0       -2.621399    0.051131    0.281878
     10          6           0       -3.971664    0.334389    0.324012
     11          7           0       -4.647031   -0.359126   -0.658407
     12          6           0       -3.721057   -1.051440   -1.291477
     13          7           0       -2.478584   -0.839448   -0.765758
     14          6           0        2.870238   -0.448719   -0.153444
     15          6           0        3.181720   -1.908234    0.200081
     16          7           0        4.626857   -2.139839    0.130575
     17          1           0        1.568987    1.671623    0.695008
     18          1           0       -0.731725    1.207623   -0.883123
     19          1           0       -2.448248    2.696564   -0.044978
     20          1           0       -0.867282   -0.332466    1.436441
     21          1           0       -1.765310    1.095427    1.926643
     22          1           0       -4.494537    0.973679    1.023430
     23          1           0       -3.892434   -1.715605   -2.127147
     24          1           0       -1.584424   -1.220967   -1.064277
     25          1           0        3.307124   -0.230787   -1.135891
     26          1           0        3.342876    0.231472    0.565856
     27          1           0        2.693038   -2.553059   -0.534838
     28          1           0        2.738431   -2.146795    1.181776
     29          1           0        4.840448   -3.131570    0.178664
     30          1           0        5.115415   -1.687445    0.899088
 ---------------------------------------------------------------------

 SCF Done:  E(RB3LYP) =  -796.151206600     A.U. after    1 cycles

 Alpha  occ. eigenvalues --  -19.23078 -19.17613 -19.15345 -14.40117 -14.39631
 Alpha  occ. eigenvalues --  -14.33849 -14.33000 -10.35569 -10.32170 -10.27747
 Alpha  occ. eigenvalues --  -10.25382 -10.24026 -10.23516 -10.23161 -10.21682
 Alpha  occ. eigenvalues --  -10.21681  -1.13571  -1.06877  -1.05557  -1.02760
 Alpha  occ. eigenvalues --   -0.95962  -0.90170  -0.88467  -0.82665  -0.78349
 Alpha  occ. eigenvalues --   -0.75247  -0.69773  -0.65897  -0.63763  -0.62539
 Alpha  occ. eigenvalues --   -0.61544  -0.60377  -0.57401  -0.55902  -0.52288
 Alpha  occ. eigenvalues --   -0.51357  -0.50424  -0.49328  -0.48206  -0.47068
 Alpha  occ. eigenvalues --   -0.46940  -0.45117  -0.44531  -0.43763  -0.43257
 Alpha  occ. eigenvalues --   -0.42252  -0.41884  -0.41262  -0.40909  -0.40445
 Alpha  occ. eigenvalues --   -0.37394  -0.36742  -0.35160  -0.31391  -0.29734
 Alpha  occ. eigenvalues --   -0.29405  -0.28968  -0.28164  -0.25854  -0.24441
 Alpha virt. eigenvalues --   -0.03228  -0.01583  -0.01519  -0.00790   0.00152
 Alpha virt. eigenvalues --    0.00541   0.00871   0.01289   0.02619   0.03015
 Alpha virt. eigenvalues --    0.03396   0.03948   0.04696   0.04920   0.05356

 Mulliken charges:
               1
     1  O   -0.558981
     2  C    0.444249
     3  N   -0.259265
     4  C   -0.599690
     5  C    0.541002
     6  O   -0.386553
     7  O   -0.448598
     8  C   -0.539973
     9  C    0.233859
    10  C   -0.184427
    11  N   -0.289582
    12  C    0.282014
    13  N   -0.275632
    14  C   -0.185770
    15  C   -0.231557
    16  N   -0.603030
    17  H    0.330931
    18  H    0.190287
    19  H    0.362467
    20  H    0.188103
    21  H    0.173210
    22  H    0.135415
    23  H    0.139024
    24  H    0.354499
    25  H    0.195395
    26  H    0.131444
    27  H    0.167982
    28  H    0.128833
    29  H    0.287846
    30  H    0.276499
 Sum of Mulliken charges =   0.00000

 Dipole moment (field-independent basis, Debye):
    X=              3.4154    Y=             -2.5064    Z=              1.3225  Tot=              4.4380
 Quadrupole moment (field-independent basis, Debye-Ang):
   XX=           -111.3307   YY=           -107.6019   ZZ=            -92.9117
   XY=             -4.8987   XZ=              5.0385   YZ=             -3.9340

  Exact polarizability: 180.078  -3.419 140.825   9.254  18.410 114.014
 Approx polarizability: 236.260   4.743 201.129  14.384  33.893 180.228

                      1                      2                      3
                      A                      A                      A
 Frequencies --     27.6793                32.1314                60.5945
 Red. masses --      3.6616                 5.7244                 3.0462
 Frc consts  --      0.0017                 0.0035                 0.0066
 IR Inten    --      1.0585                 3.0027                 4.0606

                      4                      5                      6
                      A                      A                      A
 Frequencies --     72.8839                82.0311                87.1642
 Red. masses --      4.3609                 5.9468                 3.7958
 Frc consts  --      0.0136                 0.0236                 0.0170
 IR Inten    --      3.4271                 1.6073                 3.8540

                      7                      8                      9
                      A                      A                      A
 Frequencies --     99.6974               112.3543               167.6099
 Red. masses --      5.9429                 5.7086                 4.4630
 Frc consts  --      0.0348                 0.0425                 0.0739
 IR Inten    --      7.4729                 7.6833                 8.2207

                     10                     11                     12
                      A                      A                      A
 Frequencies --    189.3861               205.7184               246.9571
 Red. masses --      5.3269                 3.6674                 1.2708
 Frc consts  --      0.1126                 0.0914                 0.0457
 IR Inten    --      8.0813                 8.9369                47.9644

                     13                     14                     15
                      A                      A                      A
 Frequencies --    273.5125               314.3945               335.6574
 Red. masses --      4.6044                 5.1014                 2.5196
 Frc consts  --      0.2029                 0.2971                 0.1673
 IR Inten    --      4.6430                 2.0827                 6.9314

                     16                     17                     18
                      A                      A                      A
 Frequencies --    353.9306               394.2242               411.6998
 Red. masses --      5.8510                 3.9181                 3.9202
 Frc consts  --      0.4318                 0.3588                 0.3915
 IR Inten    --      9.5606                 7.4374                 9.6198

                     19                     20                     21
                      A                      A                      A
 Frequencies --    531.2782               546.9822               580.7520
 Red. masses --      1.7769                 1.8388                 1.3180
 Frc consts  --      0.2955                 0.3241                 0.2619
 IR Inten    --     56.5692                 9.0935                97.0676

                     22                     23                     24
                      A                      A                      A
 Frequencies --    623.6873               642.1311               656.4835
 Red. masses --      3.4639                 4.0071                 2.8664
 Frc consts  --      0.7939                 0.9735                 0.7278
 IR Inten    --     33.3062                 5.0666                10.8211

                     25                     26                     27
                      A                      A                      A
 Frequencies --    672.7673               708.8259               741.0448
 Red. masses --      3.9161                 3.7952                 1.2050
 Frc consts  --      1.0443                 1.1235                 0.3899
 IR Inten    --     21.8139                 3.3493                51.9738

                     28                     29                     30
                      A                      A                      A
 Frequencies --    752.5423               769.5025               799.5279
 Red. masses --      3.2082                 3.9755                 1.3730
 Frc consts  --      1.0705                 1.3869                 0.5171
 IR Inten    --     18.0954                 4.6035                33.4743

                     31                     32                     33
                      A                      A                      A
 Frequencies --    826.8996               828.9276               845.3861
 Red. masses --      1.3333                 1.3876                 1.3816
 Frc consts  --      0.5371                 0.5618                 0.5817
 IR Inten    --    104.6656                32.5416                18.1448

                     34                     35                     36
                      A                      A                      A
 Frequencies --    860.7463               933.4177               947.0587
 Red. masses --      2.5532                 5.9591                 2.7911
 Frc consts  --      1.1145                 3.0590                 1.4750
 IR Inten    --     12.9111                 9.9846                 8.7513

                     37                     38                     39
                      A                      A                      A
 Frequencies --    980.2862               984.2186              1018.2744
 Red. masses --      2.1232                 5.4683                 3.5196
 Frc consts  --      1.2021                 3.1209                 2.1502
 IR Inten    --      2.7461                 2.3334                14.0368

                     40                     41                     42
                      A                      A                      A
 Frequencies --   1028.2434              1063.9116              1092.9722
 Red. masses --      3.2262                 2.7535                 2.3439
 Frc consts  --      2.0097                 1.8363                 1.6497
 IR Inten    --      2.9480                17.5249                31.5262

                     43                     44                     45
                      A                      A                      A
 Frequencies --   1121.4887              1128.9674              1148.0408
 Red. masses --      1.6662                 1.8535                 2.0142
 Frc consts  --      1.2347                 1.3919                 1.5641
 IR Inten    --     47.5029                 6.7392                 8.3042

                     46                     47                     48
                      A                      A                      A
 Frequencies --   1163.1175              1193.4520              1195.8159
 Red. masses --      1.5575                 1.5520                 1.9551
 Frc consts  --      1.2415                 1.3025                 1.6472
 IR Inten    --      5.8374                21.2200                 0.5332

                     49                     50                     51
                      A                      A                      A
 Frequencies --   1232.8157              1260.7741              1262.7992
 Red. masses --      1.5077                 1.4027                 2.1537
 Frc consts  --      1.3501                 1.3137                 2.0235
 IR Inten    --     39.0455                13.1585                26.4383

                     52                     53                     54
                      A                      A                      A
 Frequencies --   1280.3340              1293.0346              1332.6505
 Red. masses --      1.3644                 1.4450                 1.3314
 Frc consts  --      1.3178                 1.4235                 1.3931
 IR Inten    --      9.1334                76.7287                14.9147

                     55                     56                     57
                      A                      A                      A
 Frequencies --   1336.3249              1347.3115              1369.4008
 Red. masses --      1.1464                 1.7695                 1.4189
 Frc consts  --      1.2062                 1.8926                 1.5677
 IR Inten    --     51.2274               175.8869                 3.6765

                     58                     59                     60
                      A                      A                      A
 Frequencies --   1387.9883              1410.0544              1426.1237
 Red. masses --      3.2624                 1.7610                 1.5160
 Frc consts  --      3.7030                 2.0629                 1.8166
 IR Inten    --      6.9651                54.9118                58.5085

                     61                     62                     63
                      A                      A                      A
 Frequencies --   1441.0036              1476.0099              1488.8974
 Red. masses --      2.6393                 1.1010                 1.1194
 Frc consts  --      3.2291                 1.4133                 1.4620
 IR Inten    --     66.4042                 9.8478                13.3771

                     64                     65                     66
                      A                      A                      A
 Frequencies --   1510.5972              1520.2193              1528.4166
 Red. masses --      3.6565                 1.0845                 2.5611
 Frc consts  --      4.9160                 1.4767                 3.5250
 IR Inten    --     48.3181                 0.8459               293.9692

                     67                     68                     69
                      A                      A                      A
 Frequencies --   1612.6930              1668.8862              1704.8614
 Red. masses --      4.3783                 1.0948                 8.4747
 Frc consts  --      6.7091                 1.7966                14.5128
 IR Inten    --     11.0977                31.0644               222.5581

                     70                     71                     72
                      A                      A                      A
 Frequencies --   1837.8659              2965.0843              3041.2512
 Red. masses --     10.1045                 1.0736                 1.0603
 Frc consts  --     20.1091                 5.5610                 5.7781
 IR Inten    --    330.9824                71.7589                14.9998

                     73                     74                     75
                      A                      A                      A
 Frequencies --   3046.2099              3070.8108              3084.2768
 Red. masses --      1.0825                 1.0612                 1.0998
 Frc consts  --      5.9186                 5.8959                 6.1643
 IR Inten    --      9.0633                16.0193                 6.4830

                     76                     77                     78
                      A                      A                      A
 Frequencies --   3112.4636              3114.6568              3246.3203
 Red. masses --      1.0921                 1.1052                 1.0961
 Frc consts  --      6.2335                 6.3171                 6.8058
 IR Inten    --     16.2445                 7.4454                 4.8327

                     79                     80                     81
                      A                      A                      A
 Frequencies --   3265.9579              3509.7210              3556.8562
 Red. masses --      1.0972                 1.0499                 1.0839
 Frc consts  --      6.8956                 7.6195                 8.0792
 IR Inten    --      1.0514                 0.3670               219.1956

                     82                     83                     84
                      A                      A                      A
 Frequencies --   3597.2188              3599.5443              3695.2926
 Red. masses --      1.0785                 1.0936                 1.0673
 Frc consts  --      8.2228                 8.3481                 8.5870
 IR Inten    --     84.5103                 3.2865               184.4735

 - Thermochemistry -
 -------------------
 Temperature   298.150 Kelvin.  Pressure   1.00000 Atm.
 Atom     1 has atomic number  8 and mass  15.99491

 Molecular mass:   226.10659 amu.
 Principal axes and moments of inertia in atomic units:
                           1         2         3
     Eigenvalues --  2533.309386088.624708231.72744
           X            0.96361   0.24789  -0.10003
           Y           -0.26520   0.93350  -0.24135
           Z            0.03355   0.25910   0.96527
 This molecule is an asymmetric top.
 Rotational symmetry number  1.
 Warning -- assumption of classical behavior for rotation
           may cause significant error
 Rotational temperatures (Kelvin)      0.03419     0.01423     0.01052
 Rotational constants (GHZ):           0.71240     0.29641     0.21924
 Zero-point vibrational energy     642927.6 (Joules/Mol)
                                  153.66339 (Kcal/Mol)
 Warning -- explicit consideration of  21 degrees of freedom as
           vibrations may cause significant error
 Vibrational temperatures:     39.82    46.23    87.18   104.86   118.02
          (Kelvin)            125.41   143.44   161.65   241.15   272.48
                              295.98   355.32   393.52   452.34   482.94
                              509.23   567.20   592.34   764.39   786.98
                              835.57   897.35   923.88   944.53   967.96
                             1019.84  1066.20  1082.74  1107.14  1150.34
                             1189.72  1192.64  1216.32  1238.42  1342.98
                             1362.60  1410.41  1416.07  1465.07  1479.41
                             1530.73  1572.54  1613.57  1624.33  1651.77
                             1673.46  1717.11  1720.51  1773.74  1813.97
                             1816.88  1842.11  1860.39  1917.38  1922.67
                             1938.48  1970.26  1997.00  2028.75  2051.87
                             2073.28  2123.65  2142.19  2173.41  2187.25
                             2199.05  2320.30  2401.15  2452.91  2644.28
                             4266.09  4375.68  4382.81  4418.21  4437.58
                             4478.14  4481.29  4670.72  4698.98  5049.70
                             5117.52  5175.59  5178.93  5316.70

 Zero-point correction=                           0.244878 (Hartree/Particle)
 Thermal correction to Energy=                    0.260897
 Thermal correction to Enthalpy=                  0.261841
 Thermal correction to Gibbs Free Energy=         0.199106
 Sum of electronic and zero-point Energies=           -795.906328
 Sum of electronic and thermal Energies=              -795.890310
 Sum of electronic and thermal Enthalpies=            -795.889365
 Sum of electronic and thermal Free Energies=         -795.952101

                     E (Thermal)             CV                S
                      KCal/Mol        Cal/Mol-Kelvin    Cal/Mol-Kelvin
 Total                  163.715             58.258            132.038
 Electronic               0.000              0.000              0.000
 Translational            0.889              2.981             42.150
 Rotational               0.889              2.981             33.207
 Vibrational            161.938             52.297             56.681
 Vibration     1          0.593              1.984              5.989
 Vibration     2          0.594              1.983              5.693
 Vibration     3          0.597              1.973              4.438
 Vibration     4          0.599              1.967              4.074
 Vibration     5          0.600              1.961              3.842
 Vibration     6          0.601              1.958              3.723
 Vibration     7          0.604              1.949              3.460
 Vibration     8          0.607              1.939              3.228
 Vibration     9          0.624              1.882              2.462
 Vibration    10          0.633              1.854              2.234
 Vibration    11          0.640              1.832              2.081
 Vibration    12          0.661              1.768              1.752
 Vibration    13          0.676              1.722              1.574
 Vibration    14          0.702              1.646              1.339
 Vibration    15          0.717              1.604              1.233
 Vibration    16          0.730              1.567              1.149
 Vibration    17          0.761              1.483              0.984
 Vibration    18          0.776              1.445              0.921
 Vibration    19          0.886              1.181              0.584
 Vibration    20          0.902              1.146              0.550
 Vibration    21          0.937              1.073              0.484

 Optimization completed.
    -- Stationary point found.
 Normal termination of Gaussian 09 at Wed Jul 28 23:49:07 2021.
