 Gaussian 09, Revision D.01,
 Gaussian 09:  ES64L-G09RevD.01 24-Apr-2013

 ----------------------------------------------------------------------
 # B3LYP/6-31+G(d,p) opt=calcfc freq=noraman nosymm integral(ultrafineg
 rid)
 ----------------------------------------------------------------------

 ------------------------------------------------------------
 Candidate Structure: Conf:422 OPT and FREQ calc in gas phase
 ------------------------------------------------------------
 Symbolic Z-matrix:
 Charge =  0 Multiplicity = 1

 SCF Done:  E(RB3LYP) =  -796.144690745     A.U. after   15 cycles
 SCF Done:  E(RB3LYP) =  -796.146999007     A.U. after   13 cycles
 SCF Done:  E(RB3LYP) =  -796.147214604     A.U. after   13 cycles
 SCF Done:  E(RB3LYP) =  -796.147202182     A.U. after   12 cycles
 SCF Done:  E(RB3LYP) =  -796.147224869     A.U. after   12 cycles
 SCF Done:  E(RB3LYP) =  -796.147225649     A.U. after   10 cycles
 SCF Done:  E(RB3LYP) =  -796.147225681     A.U. after    9 cycles
 SCF Done:  E(RB3LYP) =  -796.147225683     A.U. after    8 cycles
 Optimization completed.
    -- Stationary point found.
 Normal termination of Gaussian 09 at Wed Jul 28 23:09:15 2021.

 ----------------------------------------------------------------------
 #N Geom=AllCheck Guess=TCheck SCRF=Check GenChk RB3LYP/6-31+G(d,p) Fre
 q
 ----------------------------------------------------------------------

 Structure from the checkpoint file:  "conf-422.chk"
 ------------------------------------------------------------
 Candidate Structure: Conf:422 OPT and FREQ calc in gas phase
 ------------------------------------------------------------
 Charge =  0 Multiplicity = 1

                          Input orientation:
 ---------------------------------------------------------------------
 Center     Atomic      Atomic             Coordinates (Angstroms)
 Number     Number       Type             X           Y           Z
 ---------------------------------------------------------------------
      1          8           0        0.784898    0.693352    1.562065
      2          6           0        1.128565    0.135457    0.522631
      3          7           0        0.312843   -0.752612   -0.135223
      4          6           0       -0.950003   -1.194369    0.416303
      5          6           0       -0.894675   -2.699553    0.670359
      6          8           0       -1.862464   -3.103582    1.521728
      7          8           0       -0.107531   -3.463388    0.152103
      8          6           0       -2.160782   -0.886881   -0.502215
      9          6           0       -2.421624    0.577794   -0.690124
     10          6           0       -2.043519    1.714692   -0.010294
     11          7           0       -2.613203    2.838723   -0.576472
     12          6           0       -3.330390    2.399589   -1.585661
     13          7           0       -3.249617    1.036809   -1.702900
     14          6           0        2.458816    0.421978   -0.158096
     15          6           0        3.578938    0.705348    0.847252
     16          7           0        4.801834    1.094369    0.136212
     17          1           0        0.713161   -1.319815   -0.870445
     18          1           0       -1.078773   -0.683359    1.374718
     19          1           0       -1.788144   -4.069119    1.615831
     20          1           0       -3.042667   -1.376112   -0.068026
     21          1           0       -1.983686   -1.364907   -1.476544
     22          1           0       -1.379311    1.787760    0.839220
     23          1           0       -3.919417    3.005149   -2.260493
     24          1           0       -3.713727    0.470278   -2.397594
     25          1           0        2.738689   -0.405420   -0.823488
     26          1           0        2.326617    1.306724   -0.793637
     27          1           0        3.706764   -0.169557    1.505842
     28          1           0        3.269282    1.537388    1.484379
     29          1           0        5.224310    0.300289   -0.338314
     30          1           0        5.494837    1.462887    0.780880
 ---------------------------------------------------------------------

 SCF Done:  E(RB3LYP) =  -796.147225683     A.U. after    1 cycles

 Alpha  occ. eigenvalues --  -19.23437 -19.17939 -19.13197 -14.40077 -14.37928
 Alpha  occ. eigenvalues --  -14.32658 -14.31944 -10.35427 -10.30285 -10.26634
 Alpha  occ. eigenvalues --  -10.24494 -10.23104 -10.23077 -10.21636 -10.20201
 Alpha  occ. eigenvalues --  -10.19808  -1.14182  -1.05388  -1.04817  -1.01954
 Alpha  occ. eigenvalues --   -0.94539  -0.88869  -0.87648  -0.82099  -0.76896
 Alpha  occ. eigenvalues --   -0.74718  -0.69263  -0.65674  -0.62061  -0.61733
 Alpha  occ. eigenvalues --   -0.60056  -0.58844  -0.55396  -0.53052  -0.52061
 Alpha  occ. eigenvalues --   -0.50952  -0.49119  -0.49011  -0.48421  -0.46145
 Alpha  occ. eigenvalues --   -0.45735  -0.44797  -0.43896  -0.42916  -0.42447
 Alpha  occ. eigenvalues --   -0.41527  -0.40848  -0.40528  -0.39495  -0.38889
 Alpha  occ. eigenvalues --   -0.36262  -0.35489  -0.35198  -0.31354  -0.28641
 Alpha  occ. eigenvalues --   -0.27799  -0.27181  -0.26728  -0.24630  -0.23035
 Alpha virt. eigenvalues --   -0.03029  -0.01887  -0.00820  -0.00198   0.00418
 Alpha virt. eigenvalues --    0.00952   0.01234   0.02322   0.02957   0.03442
 Alpha virt. eigenvalues --    0.03979   0.04480   0.05410   0.05691   0.06173

 Mulliken charges:
               1
     1  O   -0.463410
     2  C    0.033091
     3  N   -0.249970
     4  C   -0.085820
     5  C    0.398623
     6  O   -0.404102
     7  O   -0.426516
     8  C   -1.338346
     9  C    0.961106
    10  C    0.048517
    11  N   -0.282966
    12  C    0.196994
    13  N   -0.398418
    14  C   -0.094881
    15  C   -0.301940
    16  N   -0.605049
    17  H    0.316852
    18  H    0.208911
    19  H    0.374838
    20  H    0.187463
    21  H    0.152248
    22  H    0.157411
    23  H    0.134853
    24  H    0.300262
    25  H    0.122541
    26  H    0.197631
    27  H    0.130495
    28  H    0.169639
    29  H    0.273283
    30  H    0.286659
 Sum of Mulliken charges =   0.00000

 Dipole moment (field-independent basis, Debye):
    X=             -1.1295    Y=             -5.3015    Z=             -2.8372  Tot=              6.1181
 Quadrupole moment (field-independent basis, Debye-Ang):
   XX=            -76.8189   YY=           -106.7494   ZZ=            -90.5884
   XY=              8.0864   XZ=             12.1453   YZ=             -4.5494

  Exact polarizability: 151.826   0.275 154.947  10.772  -4.144 124.198
 Approx polarizability: 190.754  -0.739 221.112   9.643  15.570 201.251

                      1                      2                      3
                      A                      A                      A
 Frequencies --     19.6798                35.1899                45.6312
 Red. masses --      4.2470                 2.9831                 9.6452
 Frc consts  --      0.0010                 0.0022                 0.0118
 IR Inten    --      1.0874                 2.5721                 2.3279

                      4                      5                      6
                      A                      A                      A
 Frequencies --     49.6111                60.1336                71.6206
 Red. masses --      3.9218                 5.2957                 3.6078
 Frc consts  --      0.0057                 0.0113                 0.0109
 IR Inten    --      3.9140                11.9884                 1.6449

                      7                      8                      9
                      A                      A                      A
 Frequencies --     89.0584                98.2365               142.8009
 Red. masses --      4.5241                 4.1172                 3.8323
 Frc consts  --      0.0211                 0.0234                 0.0460
 IR Inten    --      0.1812                 5.4505                 4.7391

                     10                     11                     12
                      A                      A                      A
 Frequencies --    178.5711               217.0674               240.0484
 Red. masses --      6.5426                 3.3435                 1.9984
 Frc consts  --      0.1229                 0.0928                 0.0678
 IR Inten    --      2.0931                 8.5802                16.9905

                     13                     14                     15
                      A                      A                      A
 Frequencies --    251.4704               279.7730               305.6004
 Red. masses --      1.8246                 3.4075                 4.4090
 Frc consts  --      0.0680                 0.1571                 0.2426
 IR Inten    --     37.4398                 2.3527                 6.5329

                     16                     17                     18
                      A                      A                      A
 Frequencies --    348.6656               395.4412               444.3421
 Red. masses --      4.4890                 3.8517                 3.1872
 Frc consts  --      0.3215                 0.3549                 0.3708
 IR Inten    --      2.9656                13.2029                19.9411

                     19                     20                     21
                      A                      A                      A
 Frequencies --    485.7382               495.5243               528.7962
 Red. masses --      1.5050                 1.4768                 3.2018
 Frc consts  --      0.2092                 0.2136                 0.5275
 IR Inten    --     60.2039                83.4125                14.6976

                     22                     23                     24
                      A                      A                      A
 Frequencies --    600.9836               619.4827               641.6015
 Red. masses --      1.3778                 2.5857                 2.6250
 Frc consts  --      0.2932                 0.5846                 0.6367
 IR Inten    --     95.5961                 3.8791                36.4257

                     25                     26                     27
                      A                      A                      A
 Frequencies --    647.7335               673.4476               691.6582
 Red. masses --      4.0204                 3.3800                 3.2645
 Frc consts  --      0.9938                 0.9032                 0.9201
 IR Inten    --     38.6288                 7.7559                25.5728

                     28                     29                     30
                      A                      A                      A
 Frequencies --    733.7129               781.2572               796.3439
 Red. masses --      4.5289                 4.2365                 1.3115
 Frc consts  --      1.4365                 1.5235                 0.4900
 IR Inten    --      9.8010                19.6074                27.0061

                     31                     32                     33
                      A                      A                      A
 Frequencies --    800.4937               829.7672               871.0544
 Red. masses --      1.3685                 1.3253                 1.3898
 Frc consts  --      0.5167                 0.5376                 0.6213
 IR Inten    --     25.7026               116.4164                17.2024

                     34                     35                     36
                      A                      A                      A
 Frequencies --    896.7820               918.6155               930.7416
 Red. masses --      1.8659                 4.1407                 5.8391
 Frc consts  --      0.8841                 2.0587                 2.9803
 IR Inten    --     15.4810                 8.3109                 6.1122

                     37                     38                     39
                      A                      A                      A
 Frequencies --    975.1888               993.4963              1023.1564
 Red. masses --      2.4247                 2.7644                 3.7844
 Frc consts  --      1.3586                 1.6076                 2.3342
 IR Inten    --      5.3107                 8.1361                11.4727

                     40                     41                     42
                      A                      A                      A
 Frequencies --   1057.3427              1062.3979              1092.4828
 Red. masses --      3.0110                 2.9172                 2.2545
 Frc consts  --      1.9833                 1.9399                 1.5854
 IR Inten    --     19.5019                 6.8371                41.3014

                     43                     44                     45
                      A                      A                      A
 Frequencies --   1112.4607              1118.4656              1147.8622
 Red. masses --      1.7346                 2.1829                 2.3373
 Frc consts  --      1.2648                 1.6089                 1.8144
 IR Inten    --     23.1760                57.6688                23.1369

                     46                     47                     48
                      A                      A                      A
 Frequencies --   1154.9676              1174.9289              1206.3093
 Red. masses --      1.6513                 2.1004                 1.9024
 Frc consts  --      1.2978                 1.7083                 1.6310
 IR Inten    --    105.5469                99.3416                31.5266

                     49                     50                     51
                      A                      A                      A
 Frequencies --   1231.2362              1254.7192              1264.3309
 Red. masses --      1.6495                 1.4150                 1.4536
 Frc consts  --      1.4733                 1.3125                 1.3691
 IR Inten    --     33.7504                26.9577                29.4314

                     52                     53                     54
                      A                      A                      A
 Frequencies --   1280.9151              1294.3271              1335.9759
 Red. masses --      1.3295                 1.4501                 1.1094
 Frc consts  --      1.2852                 1.4313                 1.1666
 IR Inten    --      9.7096                 1.4007                 5.1054

                     55                     56                     57
                      A                      A                      A
 Frequencies --   1338.5046              1355.2231              1369.8571
 Red. masses --      1.4744                 1.7828                 1.6397
 Frc consts  --      1.5564                 1.9291                 1.8129
 IR Inten    --      7.2724                 5.3823                14.1192

                     58                     59                     60
                      A                      A                      A
 Frequencies --   1395.8697              1413.5561              1428.0651
 Red. masses --      2.1984                 2.1948                 1.5199
 Frc consts  --      2.5238                 2.5838                 1.8263
 IR Inten    --    105.9373                25.0172                50.8976

                     61                     62                     63
                      A                      A                      A
 Frequencies --   1433.5105              1473.3560              1488.9906
 Red. masses --      2.8189                 1.0914                 1.2394
 Frc consts  --      3.4130                 1.3959                 1.6190
 IR Inten    --     17.5134                 9.6395                27.0661

                     64                     65                     66
                      A                      A                      A
 Frequencies --   1509.5860              1519.1352              1541.8288
 Red. masses --      3.1715                 1.0830                 1.8700
 Frc consts  --      4.2582                 1.4726                 2.6191
 IR Inten    --     14.0912                 1.3988               250.4457

                     67                     68                     69
                      A                      A                      A
 Frequencies --   1613.5772              1667.9135              1746.4143
 Red. masses --      4.2168                 1.0918                 8.8722
 Frc consts  --      6.4687                 1.7895                15.9432
 IR Inten    --     13.3006                33.7102               213.2356

                     70                     71                     72
                      A                      A                      A
 Frequencies --   1812.8734              2973.6621              3013.1929
 Red. masses --     10.0262                 1.0736                 1.0620
 Frc consts  --     19.4142                 5.5936                 5.6812
 IR Inten    --    283.8981                66.4043                33.7163

                     73                     74                     75
                      A                      A                      A
 Frequencies --   3032.7717              3052.1656              3077.9958
 Red. masses --      1.0621                 1.0992                 1.0982
 Frc consts  --      5.7559                 6.0334                 6.1304
 IR Inten    --     19.8458                10.7177                 8.2413

                     76                     77                     78
                      A                      A                      A
 Frequencies --   3108.1677              3115.4155              3261.5910
 Red. masses --      1.0843                 1.0915                 1.0953
 Frc consts  --      6.1720                 6.2415                 6.8653
 IR Inten    --     11.2738                13.6176                 1.2051

                     79                     80                     81
                      A                      A                      A
 Frequencies --   3266.4212              3507.0917              3596.9314
 Red. masses --      1.0993                 1.0499                 1.0934
 Frc consts  --      6.9103                 7.6082                 8.3345
 IR Inten    --      3.3075                 0.5429                 1.7600

                     82                     83                     84
                      A                      A                      A
 Frequencies --   3626.6668              3657.2280              3745.6678
 Red. masses --      1.0772                 1.0812                 1.0645
 Frc consts  --      8.3480                 8.5205                 8.7995
 IR Inten    --     35.1563                45.5156                79.1122

 - Thermochemistry -
 -------------------
 Temperature   298.150 Kelvin.  Pressure   1.00000 Atm.
 Atom     1 has atomic number  8 and mass  15.99491

 Molecular mass:   226.10659 amu.
 Principal axes and moments of inertia in atomic units:
                           1         2         3
     Eigenvalues --  3328.977405301.841857834.80214
           X            0.97479   0.13183  -0.18003
           Y           -0.08230   0.96235   0.25905
           Z            0.20740  -0.23771   0.94894
 This molecule is an asymmetric top.
 Rotational symmetry number  1.
 Warning -- assumption of classical behavior for rotation
           may cause significant error
 Rotational temperatures (Kelvin)      0.02602     0.01634     0.01106
 Rotational constants (GHZ):           0.54213     0.34040     0.23035
 Zero-point vibrational energy     640842.3 (Joules/Mol)
                                  153.16499 (Kcal/Mol)
 Warning -- explicit consideration of  23 degrees of freedom as
           vibrations may cause significant error
 Vibrational temperatures:     28.31    50.63    65.65    71.38    86.52
          (Kelvin)            103.05   128.14   141.34   205.46   256.92
                              312.31   345.38   361.81   402.53   439.69
                              501.65   568.95   639.31   698.87   712.95
                              760.82   864.68   891.30   923.12   931.94
                              968.94   995.14  1055.65  1124.05  1145.76
                             1151.73  1193.85  1253.25  1290.27  1321.68
                             1339.13  1403.08  1429.42  1472.09  1521.28
                             1528.55  1571.84  1600.58  1609.22  1651.52
                             1661.74  1690.46  1735.61  1771.47  1805.26
                             1819.09  1842.95  1862.25  1922.17  1925.81
                             1949.86  1970.92  2008.34  2033.79  2054.66
                             2062.50  2119.83  2142.32  2171.95  2185.69
                             2218.35  2321.57  2399.75  2512.70  2608.32
                             4278.43  4335.31  4363.48  4391.38  4428.54
                             4471.95  4482.38  4692.70  4699.65  5045.92
                             5175.18  5217.96  5261.93  5389.17

 Zero-point correction=                           0.244084 (Hartree/Particle)
 Thermal correction to Energy=                    0.260629
 Thermal correction to Enthalpy=                  0.261574
 Thermal correction to Gibbs Free Energy=         0.196598
 Sum of electronic and zero-point Energies=           -795.903142
 Sum of electronic and thermal Energies=              -795.886596
 Sum of electronic and thermal Enthalpies=            -795.885652
 Sum of electronic and thermal Free Energies=         -795.950628

                     E (Thermal)             CV                S
                      KCal/Mol        Cal/Mol-Kelvin    Cal/Mol-Kelvin
 Total                  163.547             59.106            136.753
 Electronic               0.000              0.000              0.000
 Translational            0.889              2.981             42.150
 Rotational               0.889              2.981             33.291
 Vibrational            161.770             53.145             61.312
 Vibration     1          0.593              1.986              6.666
 Vibration     2          0.594              1.982              5.513
 Vibration     3          0.595              1.979              4.998
 Vibration     4          0.595              1.978              4.833
 Vibration     5          0.597              1.973              4.453
 Vibration     6          0.598              1.968              4.108
 Vibration     7          0.602              1.957              3.681
 Vibration     8          0.604              1.950              3.489
 Vibration     9          0.616              1.910              2.766
 Vibration    10          0.629              1.869              2.343
 Vibration    11          0.646              1.815              1.983
 Vibration    12          0.657              1.779              1.803
 Vibration    13          0.663              1.760              1.720
 Vibration    14          0.680              1.711              1.535
 Vibration    15          0.696              1.663              1.386
 Vibration    16          0.726              1.578              1.172
 Vibration    17          0.762              1.480              0.980
 Vibration    18          0.804              1.373              0.813
 Vibration    19          0.842              1.282              0.695
 Vibration    20          0.851              1.260              0.669
 Vibration    21          0.884              1.186              0.590
 Vibration    22          0.959              1.030              0.448
 Vibration    23          0.979              0.991              0.417

 Optimization completed.
    -- Stationary point found.
 Normal termination of Gaussian 09 at Wed Jul 28 23:49:29 2021.
