 Gaussian 09, Revision D.01,
 Gaussian 09:  ES64L-G09RevD.01 24-Apr-2013

 ----------------------------------------------------------------------
 # B3LYP/6-31+G(d,p) opt=calcfc freq=noraman nosymm integral(ultrafineg
 rid)
 ----------------------------------------------------------------------

 ------------------------------------------------------------
 Candidate Structure: Conf:900 OPT and FREQ calc in gas phase
 ------------------------------------------------------------
 Symbolic Z-matrix:
 Charge =  0 Multiplicity = 1

 SCF Done:  E(RB3LYP) =  -796.155070297     A.U. after   14 cycles
 SCF Done:  E(RB3LYP) =  -796.157541141     A.U. after   12 cycles
 SCF Done:  E(RB3LYP) =  -796.157853982     A.U. after   12 cycles
 SCF Done:  E(RB3LYP) =  -796.157845322     A.U. after   13 cycles
 SCF Done:  E(RB3LYP) =  -796.157891870     A.U. after   12 cycles
 SCF Done:  E(RB3LYP) =  -796.157893212     A.U. after    9 cycles
 SCF Done:  E(RB3LYP) =  -796.157893376     A.U. after    9 cycles
 SCF Done:  E(RB3LYP) =  -796.157893389     A.U. after    8 cycles
 Optimization completed.
    -- Stationary point found.
 Normal termination of Gaussian 09 at Wed Jul 28 23:10:42 2021.

 ----------------------------------------------------------------------
 #N Geom=AllCheck Guess=TCheck SCRF=Check GenChk RB3LYP/6-31+G(d,p) Fre
 q
 ----------------------------------------------------------------------

 Structure from the checkpoint file:  "conf-900.chk"
 ------------------------------------------------------------
 Candidate Structure: Conf:900 OPT and FREQ calc in gas phase
 ------------------------------------------------------------
 Charge =  0 Multiplicity = 1

                          Input orientation:
 ---------------------------------------------------------------------
 Center     Atomic      Atomic             Coordinates (Angstroms)
 Number     Number       Type             X           Y           Z
 ---------------------------------------------------------------------
      1          8           0       -0.769388    0.513197   -1.177403
      2          6           0       -1.200328   -0.564351   -0.742591
      3          7           0       -0.432476   -1.401590   -0.001874
      4          6           0        0.971729   -1.154207    0.281522
      5          6           0        1.578554   -2.476486    0.721394
      6          8           0        2.920458   -2.411230    0.791459
      7          8           0        0.942027   -3.473503    0.999884
      8          6           0        1.209010   -0.036375    1.372467
      9          6           0        1.979739    1.145629    0.883361
     10          6           0        3.152106    1.735314    1.306095
     11          7           0        3.451751    2.838019    0.536879
     12          6           0        2.475172    2.915298   -0.347147
     13          7           0        1.556868    1.919933   -0.180098
     14          6           0       -2.617807   -1.046099   -1.026842
     15          6           0       -3.563338    0.091286   -1.419301
     16          7           0       -3.706711    1.047858   -0.316469
     17          1           0       -0.806553   -2.285151    0.325214
     18          1           0        1.474749   -0.845255   -0.640595
     19          1           0        3.244626   -3.273342    1.104418
     20          1           0        0.217110    0.260888    1.731716
     21          1           0        1.741728   -0.454077    2.231376
     22          1           0        3.791316    1.425100    2.121693
     23          1           0        2.385271    3.663249   -1.122694
     24          1           0        0.727483    1.711447   -0.733425
     25          1           0       -3.012252   -1.568920   -0.148105
     26          1           0       -2.558017   -1.776727   -1.845658
     27          1           0       -4.547052   -0.343961   -1.624236
     28          1           0       -3.204013    0.548725   -2.352924
     29          1           0       -2.887498    1.648244   -0.270108
     30          1           0       -4.514128    1.647380   -0.457880
 ---------------------------------------------------------------------

 SCF Done:  E(RB3LYP) =  -796.157893389     A.U. after    1 cycles

 Alpha  occ. eigenvalues --  -19.23985 -19.18701 -19.15308 -14.39277 -14.38050
 Alpha  occ. eigenvalues --  -14.32895 -14.31177 -10.36305 -10.32026 -10.27481
 Alpha  occ. eigenvalues --  -10.23479 -10.22657 -10.22512 -10.21980 -10.21464
 Alpha  occ. eigenvalues --  -10.19552  -1.14949  -1.06762  -1.05962  -1.00810
 Alpha  occ. eigenvalues --   -0.95798  -0.89374  -0.86567  -0.82026  -0.77543
 Alpha  occ. eigenvalues --   -0.74975  -0.69096  -0.66823  -0.62347  -0.61278
 Alpha  occ. eigenvalues --   -0.60506  -0.58437  -0.54727  -0.53954  -0.52558
 Alpha  occ. eigenvalues --   -0.51678  -0.50065  -0.49429  -0.48867  -0.48282
 Alpha  occ. eigenvalues --   -0.45794  -0.44661  -0.44087  -0.43509  -0.42496
 Alpha  occ. eigenvalues --   -0.40685  -0.40367  -0.40000  -0.39828  -0.39117
 Alpha  occ. eigenvalues --   -0.38014  -0.37126  -0.36124  -0.32236  -0.29314
 Alpha  occ. eigenvalues --   -0.28984  -0.27565  -0.26438  -0.25197  -0.22343
 Alpha virt. eigenvalues --   -0.03761  -0.01910  -0.01366  -0.00402   0.00668
 Alpha virt. eigenvalues --    0.01403   0.01571   0.02159   0.02767   0.03399
 Alpha virt. eigenvalues --    0.04017   0.04292   0.04825   0.05277   0.05919

 Mulliken charges:
               1
     1  O   -0.578599
     2  C    0.456260
     3  N   -0.270372
     4  C   -0.591079
     5  C    0.639674
     6  O   -0.399602
     7  O   -0.448290
     8  C   -0.613206
     9  C    0.409864
    10  C   -0.211382
    11  N   -0.294798
    12  C    0.266649
    13  N   -0.316771
    14  C   -0.162606
    15  C   -0.348833
    16  N   -0.604618
    17  H    0.331340
    18  H    0.191435
    19  H    0.382034
    20  H    0.181859
    21  H    0.160963
    22  H    0.121741
    23  H    0.130906
    24  H    0.360050
    25  H    0.166377
    26  H    0.171780
    27  H    0.132189
    28  H    0.147162
    29  H    0.300887
    30  H    0.288986
 Sum of Mulliken charges =   0.00000

 Dipole moment (field-independent basis, Debye):
    X=             -3.1124    Y=             -3.6871    Z=             -1.1079  Tot=              4.9507
 Quadrupole moment (field-independent basis, Debye-Ang):
   XX=           -100.3779   YY=           -100.7436   ZZ=            -93.4920
   XY=            -18.9835   XZ=              6.1532   YZ=             -4.3043

  Exact polarizability: 159.184  13.708 157.066  17.929 -14.233 118.672
 Approx polarizability: 212.065  24.400 221.531  17.042 -28.143 182.308

                      1                      2                      3
                      A                      A                      A
 Frequencies --     21.0867                36.3172                55.8840
 Red. masses --      3.6477                 6.3293                 4.4511
 Frc consts  --      0.0010                 0.0049                 0.0082
 IR Inten    --      1.1313                 1.1613                 0.9760

                      4                      5                      6
                      A                      A                      A
 Frequencies --     56.9190                79.7716                90.5806
 Red. masses --      9.4151                 5.0903                 6.1002
 Frc consts  --      0.0180                 0.0191                 0.0295
 IR Inten    --      1.6108                 1.1420                 6.3544

                      7                      8                      9
                      A                      A                      A
 Frequencies --    110.7322               131.5139               140.4475
 Red. masses --      4.3884                 3.9066                 5.3609
 Frc consts  --      0.0317                 0.0398                 0.0623
 IR Inten    --      2.3649                 5.1323                 3.5886

                     10                     11                     12
                      A                      A                      A
 Frequencies --    191.3863               243.5814               286.9995
 Red. masses --      4.6772                 2.3112                 5.2279
 Frc consts  --      0.1009                 0.0808                 0.2537
 IR Inten    --      2.1072                37.5419                 5.1864

                     13                     14                     15
                      A                      A                      A
 Frequencies --    288.0526               298.5419               318.4805
 Red. masses --      1.9271                 1.5494                 4.0124
 Frc consts  --      0.0942                 0.0814                 0.2398
 IR Inten    --     28.8843                17.5994                 4.2953

                     16                     17                     18
                      A                      A                      A
 Frequencies --    350.0950               403.9829               436.7042
 Red. masses --      5.1097                 3.5975                 2.6351
 Frc consts  --      0.3690                 0.3459                 0.2961
 IR Inten    --      1.4348                11.1618                28.7460

                     19                     20                     21
                      A                      A                      A
 Frequencies --    537.8653               562.1714               596.2172
 Red. masses --      1.6352                 2.9985                 1.5188
 Frc consts  --      0.2787                 0.5583                 0.3181
 IR Inten    --     60.8354                38.3988                70.2334

                     22                     23                     24
                      A                      A                      A
 Frequencies --    626.9287               629.0387               643.0073
 Red. masses --      4.0834                 2.1004                 2.6928
 Frc consts  --      0.9456                 0.4897                 0.6560
 IR Inten    --     31.6067                10.4712                 0.5155

                     25                     26                     27
                      A                      A                      A
 Frequencies --    670.4739               678.6493               714.5663
 Red. masses --      3.6001                 2.8856                 3.4150
 Frc consts  --      0.9535                 0.7830                 1.0274
 IR Inten    --     48.9385                 5.4621                23.3713

                     28                     29                     30
                      A                      A                      A
 Frequencies --    768.5248               775.3744               815.8077
 Red. masses --      4.2458                 1.0927                 1.4025
 Frc consts  --      1.4775                 0.3870                 0.5499
 IR Inten    --     13.3336                34.7095                25.8350

                     31                     32                     33
                      A                      A                      A
 Frequencies --    840.3900               851.1061               856.9247
 Red. masses --      1.4718                 1.5053                 2.1234
 Frc consts  --      0.6124                 0.6424                 0.9187
 IR Inten    --     26.4345                87.7446                40.7871

                     34                     35                     36
                      A                      A                      A
 Frequencies --    888.1742               896.4240               934.6949
 Red. masses --      1.9417                 2.2499                 6.0129
 Frc consts  --      0.9025                 1.0652                 3.0951
 IR Inten    --     13.5646                12.5990                12.6905

                     37                     38                     39
                      A                      A                      A
 Frequencies --    951.5251               978.2047              1016.9977
 Red. masses --      2.9119                 3.8646                 2.8772
 Frc consts  --      1.5534                 2.1788                 1.7533
 IR Inten    --      3.0916                 6.2305                21.0391

                     40                     41                     42
                      A                      A                      A
 Frequencies --   1022.6271              1059.0543              1099.7682
 Red. masses --      3.8713                 2.3952                 3.1384
 Frc consts  --      2.3853                 1.5828                 2.2365
 IR Inten    --      2.1508                16.2420                40.1906

                     43                     44                     45
                      A                      A                      A
 Frequencies --   1123.1233              1133.5693              1151.9399
 Red. masses --      1.8859                 1.7504                 1.9129
 Frc consts  --      1.4016                 1.3252                 1.4956
 IR Inten    --     18.9025                53.2534                 5.1192

                     46                     47                     48
                      A                      A                      A
 Frequencies --   1169.8675              1183.7564              1209.4278
 Red. masses --      1.6377                 2.1319                 1.2789
 Frc consts  --      1.3205                 1.7601                 1.1021
 IR Inten    --    100.5057                98.5528                 7.8483

                     49                     50                     51
                      A                      A                      A
 Frequencies --   1234.1006              1259.4042              1268.3197
 Red. masses --      1.2648                 1.5175                 2.0615
 Frc consts  --      1.1349                 1.4181                 1.9539
 IR Inten    --     11.3044                25.3461                 4.5518

                     52                     53                     54
                      A                      A                      A
 Frequencies --   1278.5034              1288.2304              1325.3616
 Red. masses --      1.4866                 1.3621                 1.3749
 Frc consts  --      1.4317                 1.3318                 1.4229
 IR Inten    --      7.0480                15.2286                 3.0686

                     55                     56                     57
                      A                      A                      A
 Frequencies --   1348.5191              1359.3118              1384.0355
 Red. masses --      1.2452                 1.4707                 1.5763
 Frc consts  --      1.3342                 1.6011                 1.7791
 IR Inten    --      8.3497                39.1441                42.8186

                     58                     59                     60
                      A                      A                      A
 Frequencies --   1391.7265              1419.3949              1424.0613
 Red. masses --      3.6766                 2.1083                 1.5002
 Frc consts  --      4.1957                 2.5026                 1.7924
 IR Inten    --     11.9522                71.5140                37.4534

                     61                     62                     63
                      A                      A                      A
 Frequencies --   1447.6350              1454.2517              1481.2656
 Red. masses --      2.5209                 1.1083                 1.1419
 Frc consts  --      3.1126                 1.3809                 1.4762
 IR Inten    --     69.8620                16.7415                14.0654

                     64                     65                     66
                      A                      A                      A
 Frequencies --   1502.4148              1509.0700              1547.7991
 Red. masses --      1.0849                 3.5158                 2.3796
 Frc consts  --      1.4428                 4.7173                 3.3588
 IR Inten    --      3.8365                32.0100               323.7112

                     67                     68                     69
                      A                      A                      A
 Frequencies --   1614.0345              1659.0704              1713.5348
 Red. masses --      4.2179                 1.1521                 5.9241
 Frc consts  --      6.4739                 1.8683                10.2484
 IR Inten    --     14.1256                93.7771               185.9303

                     70                     71                     72
                      A                      A                      A
 Frequencies --   1804.7754              3005.6072              3034.1001
 Red. masses --      9.7844                 1.0691                 1.0634
 Frc consts  --     18.7772                 5.6905                 5.7676
 IR Inten    --    326.5604                53.2205                13.6978

                     73                     74                     75
                      A                      A                      A
 Frequencies --   3052.9154              3080.3853              3081.9364
 Red. masses --      1.0649                 1.0941                 1.0843
 Frc consts  --      5.8479                 6.1166                 6.0680
 IR Inten    --     16.8847                27.6421                 7.4922

                     76                     77                     78
                      A                      A                      A
 Frequencies --   3090.2742              3108.6035              3250.6010
 Red. masses --      1.0995                 1.0996                 1.0959
 Frc consts  --      6.1863                 6.2606                 6.8227
 IR Inten    --     20.6225                 9.0549                 7.9241

                     79                     80                     81
                      A                      A                      A
 Frequencies --   3262.5495              3514.4586              3515.6964
 Red. masses --      1.0970                 1.0819                 1.0525
 Frc consts  --      6.8798                 7.8734                 7.6646
 IR Inten    --      1.4451               388.1195                21.9592

                     82                     83                     84
                      A                      A                      A
 Frequencies --   3591.8336              3602.7468              3750.9157
 Red. masses --      1.0781                 1.0937                 1.0646
 Frc consts  --      8.1949                 8.3642                 8.8247
 IR Inten    --     87.2464                 6.4413                94.5030

 - Thermochemistry -
 -------------------
 Temperature   298.150 Kelvin.  Pressure   1.00000 Atm.
 Atom     1 has atomic number  8 and mass  15.99491

 Molecular mass:   226.10659 amu.
 Principal axes and moments of inertia in atomic units:
                           1         2         3
     Eigenvalues --  3097.016414874.395697474.69550
           X            0.94164  -0.15490  -0.29887
           Y            0.20418   0.96869   0.14125
           Z            0.26763  -0.19403   0.94378
 This molecule is an asymmetric top.
 Rotational symmetry number  1.
 Warning -- assumption of classical behavior for rotation
           may cause significant error
 Rotational temperatures (Kelvin)      0.02797     0.01777     0.01159
 Rotational constants (GHZ):           0.58274     0.37025     0.24145
 Zero-point vibrational energy     643499.5 (Joules/Mol)
                                  153.80008 (Kcal/Mol)
 Warning -- explicit consideration of  21 degrees of freedom as
           vibrations may cause significant error
 Vibrational temperatures:     30.34    52.25    80.40    81.89   114.77
          (Kelvin)            130.33   159.32   189.22   202.07   275.36
                              350.46   412.93   414.44   429.53   458.22
                              503.71   581.24   628.32   773.87   808.84
                              857.82   902.01   905.05   925.14   964.66
                              976.42  1028.10  1105.73  1115.59  1173.76
                             1209.13  1224.55  1232.92  1277.88  1289.75
                             1344.82  1369.03  1407.42  1463.23  1471.33
                             1523.74  1582.32  1615.92  1630.95  1657.38
                             1683.18  1703.16  1740.09  1775.59  1812.00
                             1824.83  1839.48  1853.47  1906.90  1940.22
                             1955.74  1991.32  2002.38  2042.19  2048.90
                             2082.82  2092.34  2131.21  2161.64  2171.21
                             2226.93  2322.23  2387.03  2465.39  2596.67
                             4324.39  4365.39  4392.46  4431.98  4434.21
                             4446.21  4472.58  4676.88  4694.08  5056.52
                             5058.30  5167.84  5183.54  5396.72

 Zero-point correction=                           0.245096 (Hartree/Particle)
 Thermal correction to Energy=                    0.261025
 Thermal correction to Enthalpy=                  0.261969
 Thermal correction to Gibbs Free Energy=         0.199229
 Sum of electronic and zero-point Energies=           -795.912797
 Sum of electronic and thermal Energies=              -795.896868
 Sum of electronic and thermal Enthalpies=            -795.895924
 Sum of electronic and thermal Free Energies=         -795.958665

                     E (Thermal)             CV                S
                      KCal/Mol        Cal/Mol-Kelvin    Cal/Mol-Kelvin
 Total                  163.796             58.103            132.049
 Electronic               0.000              0.000              0.000
 Translational            0.889              2.981             42.150
 Rotational               0.889              2.981             33.089
 Vibrational            162.018             52.141             56.810
 Vibration     1          0.593              1.985              6.529
 Vibration     2          0.594              1.982              5.450
 Vibration     3          0.596              1.975              4.598
 Vibration     4          0.596              1.975              4.561
 Vibration     5          0.600              1.963              3.896
 Vibration     6          0.602              1.956              3.647
 Vibration     7          0.607              1.941              3.256
 Vibration     8          0.612              1.922              2.924
 Vibration     9          0.615              1.913              2.798
 Vibration    10          0.634              1.852              2.214
 Vibration    11          0.659              1.773              1.777
 Vibration    12          0.684              1.698              1.492
 Vibration    13          0.685              1.696              1.485
 Vibration    14          0.692              1.676              1.425
 Vibration    15          0.705              1.638              1.318
 Vibration    16          0.727              1.575              1.166
 Vibration    17          0.769              1.462              0.948
 Vibration    18          0.797              1.390              0.837
 Vibration    19          0.893              1.166              0.570
 Vibration    20          0.918              1.113              0.520
 Vibration    21          0.954              1.040              0.456

 Normal termination of Gaussian 09 at Wed Jul 28 23:51:01 2021.
