 Gaussian 09, Revision D.01,
 Gaussian 09:  ES64L-G09RevD.01 24-Apr-2013

 ----------------------------------------------------------------------
 # B3LYP/6-31+G(d,p) opt=calcfc freq=noraman nosymm integral(ultrafineg
 rid)
 ----------------------------------------------------------------------

 ------------------------------------------------------------
 Candidate Structure: Conf:609 OPT and FREQ calc in gas phase
 ------------------------------------------------------------
 Symbolic Z-matrix:
 Charge =  0 Multiplicity = 1

 SCF Done:  E(RB3LYP) =  -796.141930380     A.U. after   15 cycles
 SCF Done:  E(RB3LYP) =  -796.145097607     A.U. after   16 cycles
 SCF Done:  E(RB3LYP) =  -796.145550630     A.U. after   16 cycles
 SCF Done:  E(RB3LYP) =  -796.145807282     A.U. after   14 cycles
 SCF Done:  E(RB3LYP) =  -796.145873142     A.U. after   13 cycles
 SCF Done:  E(RB3LYP) =  -796.145955350     A.U. after   14 cycles
 SCF Done:  E(RB3LYP) =  -796.145959698     A.U. after   11 cycles
 SCF Done:  E(RB3LYP) =  -796.145962688     A.U. after   11 cycles
 SCF Done:  E(RB3LYP) =  -796.145962773     A.U. after   11 cycles
 Optimization completed.
    -- Stationary point found.
 Normal termination of Gaussian 09 at Wed Jul 28 23:15:37 2021.

 ----------------------------------------------------------------------
 #N Geom=AllCheck Guess=TCheck SCRF=Check GenChk RB3LYP/6-31+G(d,p) Fre
 q
 ----------------------------------------------------------------------

 Structure from the checkpoint file:  "conf-609.chk"
 ------------------------------------------------------------
 Candidate Structure: Conf:609 OPT and FREQ calc in gas phase
 ------------------------------------------------------------
 Charge =  0 Multiplicity = 1

                          Input orientation:
 ---------------------------------------------------------------------
 Center     Atomic      Atomic             Coordinates (Angstroms)
 Number     Number       Type             X           Y           Z
 ---------------------------------------------------------------------
      1          8           0        1.429855    1.084259   -0.636455
      2          6           0        1.633222    0.260403    0.253247
      3          7           0        0.619082   -0.530453    0.729430
      4          6           0       -0.697797   -0.517043    0.101615
      5          6           0       -0.539520   -0.893976   -1.383146
      6          8           0       -1.393441   -0.239746   -2.214059
      7          8           0        0.228080   -1.736203   -1.786621
      8          6           0       -1.480603    0.795289    0.393807
      9          6           0       -2.970059    0.647936    0.444479
     10          6           0       -3.850381    0.666229    1.506250
     11          7           0       -5.150630    0.507869    1.078801
     12          6           0       -5.070141    0.393365   -0.230844
     13          7           0       -3.776710    0.473251   -0.665770
     14          6           0        3.002870    0.063462    0.880086
     15          6           0        4.066998   -0.299443   -0.185963
     16          7           0        5.434599   -0.423704    0.307632
     17          1           0        0.854637   -1.315802    1.317721
     18          1           0       -1.256932   -1.347841    0.547486
     19          1           0       -1.197035   -0.556001   -3.113193
     20          1           0       -1.156381    1.131214    1.382464
     21          1           0       -1.171028    1.566168   -0.316683
     22          1           0       -3.614422    0.798139    2.553746
     23          1           0       -5.902450    0.253167   -0.906581
     24          1           0       -3.436653    0.389825   -1.613086
     25          1           0        3.281415    1.011703    1.355810
     26          1           0        2.979074   -0.702341    1.665569
     27          1           0        3.791246   -1.245656   -0.664997
     28          1           0        4.047295    0.464800   -0.967741
     29          1           0        5.521697   -1.146579    1.016405
     30          1           0        5.774182    0.447717    0.705038
 ---------------------------------------------------------------------

 SCF Done:  E(RB3LYP) =  -796.145962773     A.U. after    1 cycles

 Alpha  occ. eigenvalues --  -19.23638 -19.17362 -19.14137 -14.39594 -14.39054
 Alpha  occ. eigenvalues --  -14.33276 -14.32122 -10.35377 -10.31029 -10.27448
 Alpha  occ. eigenvalues --  -10.24477 -10.22861 -10.22470 -10.21777 -10.21171
 Alpha  occ. eigenvalues --  -10.20307  -1.14076  -1.06041  -1.04868  -1.01893
 Alpha  occ. eigenvalues --   -0.95138  -0.89596  -0.87598  -0.81819  -0.77356
 Alpha  occ. eigenvalues --   -0.74602  -0.68955  -0.66320  -0.63072  -0.61898
 Alpha  occ. eigenvalues --   -0.60070  -0.59365  -0.55600  -0.53318  -0.52274
 Alpha  occ. eigenvalues --   -0.51507  -0.51389  -0.49114  -0.47297  -0.46133
 Alpha  occ. eigenvalues --   -0.45648  -0.44391  -0.43901  -0.43104  -0.42539
 Alpha  occ. eigenvalues --   -0.41659  -0.41191  -0.40338  -0.39996  -0.39297
 Alpha  occ. eigenvalues --   -0.38150  -0.35764  -0.35011  -0.30862  -0.29135
 Alpha  occ. eigenvalues --   -0.28579  -0.28088  -0.27345  -0.24894  -0.23143
 Alpha virt. eigenvalues --   -0.03499  -0.01943  -0.01246  -0.00364   0.00204
 Alpha virt. eigenvalues --    0.01068   0.01417   0.01907   0.02817   0.03128
 Alpha virt. eigenvalues --    0.03901   0.04323   0.04638   0.05337   0.05447

 Mulliken charges:
               1
     1  O   -0.435547
     2  C    0.149676
     3  N   -0.269651
     4  C   -0.188138
     5  C    0.464856
     6  O   -0.489438
     7  O   -0.402494
     8  C   -1.266159
     9  C    1.084053
    10  C   -0.116355
    11  N   -0.290884
    12  C    0.259617
    13  N   -0.330783
    14  C   -0.339069
    15  C   -0.238563
    16  N   -0.597276
    17  H    0.306252
    18  H    0.171226
    19  H    0.392235
    20  H    0.162605
    21  H    0.202446
    22  H    0.121313
    23  H    0.133090
    24  H    0.322685
    25  H    0.170966
    26  H    0.126599
    27  H    0.154386
    28  H    0.174622
    29  H    0.282357
    30  H    0.285373
 Sum of Mulliken charges =   0.00000

 Dipole moment (field-independent basis, Debye):
    X=              1.5235    Y=             -1.3633    Z=              0.4498  Tot=              2.0933
 Quadrupole moment (field-independent basis, Debye-Ang):
   XX=           -119.2052   YY=            -99.5889   ZZ=            -86.3674
   XY=              4.4938   XZ=             29.1534   YZ=             -3.4511

  Exact polarizability: 192.589  -5.377 109.776   0.860   2.622 136.610
 Approx polarizability: 229.268  -3.035 174.307  -1.800  -6.486 214.394

                      1                      2                      3
                      A                      A                      A
 Frequencies --     21.9684                29.2741                41.9914
 Red. masses --      4.2902                 5.1985                 5.1722
 Frc consts  --      0.0012                 0.0026                 0.0054
 IR Inten    --      1.0073                 8.5048                 8.2717

                      4                      5                      6
                      A                      A                      A
 Frequencies --     57.2731                71.9957                88.4085
 Red. masses --      4.4838                 2.7738                 9.6918
 Frc consts  --      0.0087                 0.0085                 0.0446
 IR Inten    --      1.9189                 2.4587                 2.3732

                      7                      8                      9
                      A                      A                      A
 Frequencies --     91.7966               121.3479               141.5106
 Red. masses --      2.7924                 5.9296                 6.3591
 Frc consts  --      0.0139                 0.0514                 0.0750
 IR Inten    --      2.8365                 2.0950                 5.1230

                     10                     11                     12
                      A                      A                      A
 Frequencies --    189.4039               221.7011               278.5211
 Red. masses --      4.4043                 5.3266                 3.9401
 Frc consts  --      0.0931                 0.1543                 0.1801
 IR Inten    --      9.3613                 3.0023                10.1971

                     13                     14                     15
                      A                      A                      A
 Frequencies --    295.6949               305.8068               336.2255
 Red. masses --      1.1334                 3.4273                 3.8343
 Frc consts  --      0.0584                 0.1888                 0.2554
 IR Inten    --     44.2646                 7.4485                 1.5338

                     16                     17                     18
                      A                      A                      A
 Frequencies --    365.3790               387.4045               428.7203
 Red. masses --      3.6902                 3.5197                 1.2470
 Frc consts  --      0.2903                 0.3112                 0.1350
 IR Inten    --      1.5106                13.0751                67.3445

                     19                     20                     21
                      A                      A                      A
 Frequencies --    438.6514               519.1948               545.3479
 Red. masses --      4.3131                 3.6225                 2.9803
 Frc consts  --      0.4890                 0.5753                 0.5222
 IR Inten    --      2.1730                30.7400                27.4266

                     22                     23                     24
                      A                      A                      A
 Frequencies --    588.3875               608.1023               665.5048
 Red. masses --      1.5613                 2.0712                 2.4955
 Frc consts  --      0.3185                 0.4513                 0.6512
 IR Inten    --     32.4127                80.2195                57.9071

                     25                     26                     27
                      A                      A                      A
 Frequencies --    674.9284               685.6972               724.5996
 Red. masses --      3.0121                 1.9567                 3.7426
 Frc consts  --      0.8084                 0.5420                 1.1578
 IR Inten    --     40.8202                 4.0220                29.6824

                     28                     29                     30
                      A                      A                      A
 Frequencies --    735.1640               766.0229               776.6684
 Red. masses --      4.8120                 1.4982                 2.2876
 Frc consts  --      1.5323                 0.5180                 0.8130
 IR Inten    --      2.5978                 3.4234                 3.2173

                     31                     32                     33
                      A                      A                      A
 Frequencies --    796.6521               808.5896               841.7762
 Red. masses --      1.4566                 1.3856                 1.7370
 Frc consts  --      0.5447                 0.5337                 0.7252
 IR Inten    --    235.5991                25.4040                25.6703

                     34                     35                     36
                      A                      A                      A
 Frequencies --    852.9098               911.6693               931.5229
 Red. masses --      2.3828                 2.6311                 5.8908
 Frc consts  --      1.0213                 1.2885                 3.0117
 IR Inten    --     10.3141                 0.3913                10.8471

                     37                     38                     39
                      A                      A                      A
 Frequencies --    966.2312               985.9164              1015.8020
 Red. masses --      1.6579                 2.1955                 4.9292
 Frc consts  --      0.9119                 1.2574                 2.9967
 IR Inten    --      6.9196                10.8368                61.1920

                     40                     41                     42
                      A                      A                      A
 Frequencies --   1026.4722              1046.9104              1085.9631
 Red. masses --      3.7749                 4.5774                 2.0439
 Frc consts  --      2.3434                 2.9559                 1.4201
 IR Inten    --     19.3690                 4.9205                17.5566

                     43                     44                     45
                      A                      A                      A
 Frequencies --   1100.2596              1117.2058              1137.1732
 Red. masses --      3.4732                 1.5652                 1.6589
 Frc consts  --      2.4773                 1.1510                 1.2639
 IR Inten    --     34.5740                44.8939                42.9906

                     46                     47                     48
                      A                      A                      A
 Frequencies --   1150.0293              1161.8304              1198.8288
 Red. masses --      2.0367                 2.1855                 1.4890
 Frc consts  --      1.5871                 1.7381                 1.2609
 IR Inten    --     31.2575               170.5058                46.4086

                     49                     50                     51
                      A                      A                      A
 Frequencies --   1248.4935              1265.7894              1277.2085
 Red. masses --      1.7805                 2.3835                 1.3699
 Frc consts  --      1.6352                 2.2501                 1.3166
 IR Inten    --     66.6871                18.9711                 6.1553

                     52                     53                     54
                      A                      A                      A
 Frequencies --   1291.6749              1305.2462              1328.9169
 Red. masses --      1.3126                 1.2874                 1.4116
 Frc consts  --      1.2903                 1.2923                 1.4688
 IR Inten    --      3.2474                 2.0499                17.1867

                     55                     56                     57
                      A                      A                      A
 Frequencies --   1338.2150              1351.8739              1380.6747
 Red. masses --      1.4467                 1.8624                 1.5405
 Frc consts  --      1.5264                 2.0054                 1.7302
 IR Inten    --     32.1842                 7.9489                 8.1487

                     58                     59                     60
                      A                      A                      A
 Frequencies --   1383.0507              1392.5767              1397.4426
 Red. masses --      1.2915                 1.2646                 3.0555
 Frc consts  --      1.4555                 1.4449                 3.5156
 IR Inten    --      4.3256                26.4686                16.4523

                     61                     62                     63
                      A                      A                      A
 Frequencies --   1433.6154              1480.7651              1489.1831
 Red. masses --      2.9559                 1.1101                 1.1260
 Frc consts  --      3.5793                 1.4341                 1.4712
 IR Inten    --     23.4044                 3.5332                10.5894

                     64                     65                     66
                      A                      A                      A
 Frequencies --   1503.6408              1507.0275              1528.0065
 Red. masses --      1.0893                 3.5953                 1.9409
 Frc consts  --      1.4510                 4.8109                 2.6699
 IR Inten    --      4.7694                44.4802               227.4725

                     67                     68                     69
                      A                      A                      A
 Frequencies --   1609.6531              1668.0650              1741.4822
 Red. masses --      4.3719                 1.0926                 9.1781
 Frc consts  --      6.6740                 1.7913                16.3998
 IR Inten    --      7.1523                34.3441               193.4869

                     70                     71                     72
                      A                      A                      A
 Frequencies --   1824.2627              3035.2727              3059.2545
 Red. masses --     10.2873                 1.0596                 1.0667
 Frc consts  --     20.1709                 5.7514                 5.8822
 IR Inten    --    303.2503                16.8937                21.0550

                     73                     74                     75
                      A                      A                      A
 Frequencies --   3066.3521              3081.0373              3081.5849
 Red. masses --      1.0827                 1.0985                 1.0631
 Frc consts  --      5.9979                 6.1437                 5.9478
 IR Inten    --      2.7381                 8.7552                12.9384

                     76                     77                     78
                      A                      A                      A
 Frequencies --   3119.2182              3127.6564              3249.3636
 Red. masses --      1.1043                 1.1039                 1.0959
 Frc consts  --      6.3304                 6.3625                 6.8175
 IR Inten    --     17.8103                 2.9009                 7.4250

                     79                     80                     81
                      A                      A                      A
 Frequencies --   3262.4347              3508.3073              3600.3525
 Red. masses --      1.0971                 1.0483                 1.0948
 Frc consts  --      6.8798                 7.6020                 8.3613
 IR Inten    --      1.4457                 1.2409                 1.5385

                     82                     83                     84
                      A                      A                      A
 Frequencies --   3649.9680              3656.0755              3743.6937
 Red. masses --      1.0787                 1.0814                 1.0644
 Frc consts  --      8.4673                 8.5167                 8.7891
 IR Inten    --     30.0173               109.8987                81.0781

 - Thermochemistry -
 -------------------
 Temperature   298.150 Kelvin.  Pressure   1.00000 Atm.
 Atom     1 has atomic number  8 and mass  15.99491

 Molecular mass:   226.10659 amu.
 Principal axes and moments of inertia in atomic units:
                           1         2         3
     Eigenvalues --  1334.580468060.675258816.57895
           X            0.99611   0.04819   0.07380
           Y           -0.08679   0.39019   0.91664
           Z           -0.01538   0.91947  -0.39285
 This molecule is an asymmetric top.
 Rotational symmetry number  1.
 Warning -- assumption of classical behavior for rotation
           may cause significant error
 Rotational temperatures (Kelvin)      0.06490     0.01075     0.00982
 Rotational constants (GHZ):           1.35229     0.22389     0.20470
 Zero-point vibrational energy     641951.3 (Joules/Mol)
                                  153.43003 (Kcal/Mol)
 Warning -- explicit consideration of  23 degrees of freedom as
           vibrations may cause significant error
 Vibrational temperatures:     31.61    42.12    60.42    82.40   103.59
          (Kelvin)            127.20   132.07   174.59   203.60   272.51
                              318.98   400.73   425.44   439.99   483.75
                              525.70   557.39   616.83   631.12   747.00
                              784.63   846.56   874.92   957.51   971.07
                              986.56  1042.54  1057.74  1102.13  1117.45
                             1146.20  1163.38  1211.13  1227.15  1311.69
                             1340.25  1390.19  1418.51  1461.51  1476.86
                             1506.27  1562.46  1583.03  1607.41  1636.14
                             1654.63  1671.61  1724.85  1796.30  1821.19
                             1837.62  1858.43  1877.96  1912.01  1925.39
                             1945.04  1986.48  1989.90  2003.60  2010.61
                             2062.65  2130.49  2142.60  2163.40  2168.27
                             2198.46  2315.93  2399.97  2505.60  2624.70
                             4367.08  4401.58  4411.79  4432.92  4433.71
                             4487.85  4499.99  4675.10  4693.91  5047.67
                             5180.10  5251.48  5260.27  5386.33

 Zero-point correction=                           0.244506 (Hartree/Particle)
 Thermal correction to Energy=                    0.260775
 Thermal correction to Enthalpy=                  0.261719
 Thermal correction to Gibbs Free Energy=         0.197914
 Sum of electronic and zero-point Energies=           -795.901456
 Sum of electronic and thermal Energies=              -795.885188
 Sum of electronic and thermal Enthalpies=            -795.884243
 Sum of electronic and thermal Free Energies=         -795.948049

                     E (Thermal)             CV                S
                      KCal/Mol        Cal/Mol-Kelvin    Cal/Mol-Kelvin
 Total                  163.639             59.012            134.290
 Electronic               0.000              0.000              0.000
 Translational            0.889              2.981             42.150
 Rotational               0.889              2.981             32.917
 Vibrational            161.861             53.050             59.223
 Vibration     1          0.593              1.985              6.448
 Vibration     2          0.593              1.984              5.878
 Vibration     3          0.595              1.980              5.163
 Vibration     4          0.596              1.975              4.549
 Vibration     5          0.598              1.967              4.098
 Vibration     6          0.601              1.957              3.695
 Vibration     7          0.602              1.955              3.621
 Vibration     8          0.609              1.931              3.079
 Vibration     9          0.615              1.912              2.783
 Vibration    10          0.633              1.854              2.234
 Vibration    11          0.648              1.808              1.945
 Vibration    12          0.679              1.713              1.543
 Vibration    13          0.690              1.682              1.441
 Vibration    14          0.696              1.663              1.385
 Vibration    15          0.717              1.603              1.230
 Vibration    16          0.739              1.544              1.099
 Vibration    17          0.756              1.497              1.010
 Vibration    18          0.790              1.408              0.863
 Vibration    19          0.799              1.386              0.831
 Vibration    20          0.874              1.207              0.612
 Vibration    21          0.901              1.150              0.554
 Vibration    22          0.946              1.057              0.470
 Vibration    23          0.967              1.015              0.436

 Optimization completed.
    -- Stationary point found.
 Normal termination of Gaussian 09 at Wed Jul 28 23:54:08 2021.
