 Gaussian 09, Revision D.01,
 Gaussian 09:  ES64L-G09RevD.01 24-Apr-2013

 ----------------------------------------------------------------------
 # B3LYP/6-31+G(d,p) opt=calcfc freq=noraman nosymm integral(ultrafineg
 rid)
 ----------------------------------------------------------------------

 ------------------------------------------------------------
 Candidate Structure: Conf:150 OPT and FREQ calc in gas phase
 ------------------------------------------------------------
 Symbolic Z-matrix:
 Charge =  0 Multiplicity = 1

 SCF Done:  E(RB3LYP) =  -796.149726639     A.U. after   14 cycles
 SCF Done:  E(RB3LYP) =  -796.151111167     A.U. after   15 cycles
 SCF Done:  E(RB3LYP) =  -796.144573898     A.U. after   15 cycles
 SCF Done:  E(RB3LYP) =  -796.151657461     A.U. after   12 cycles
 SCF Done:  E(RB3LYP) =  -796.152276927     A.U. after   13 cycles
 SCF Done:  E(RB3LYP) =  -796.152544641     A.U. after   13 cycles
 SCF Done:  E(RB3LYP) =  -796.152399308     A.U. after   13 cycles
 SCF Done:  E(RB3LYP) =  -796.152458786     A.U. after   15 cycles
 SCF Done:  E(RB3LYP) =  -796.152706973     A.U. after   13 cycles
 SCF Done:  E(RB3LYP) =  -796.152724939     A.U. after   11 cycles
 SCF Done:  E(RB3LYP) =  -796.152731307     A.U. after   10 cycles
 SCF Done:  E(RB3LYP) =  -796.152734883     A.U. after   11 cycles
 SCF Done:  E(RB3LYP) =  -796.152736306     A.U. after   11 cycles
 SCF Done:  E(RB3LYP) =  -796.152736335     A.U. after    8 cycles
 SCF Done:  E(RB3LYP) =  -796.152736342     A.U. after    8 cycles
 Optimization completed.
    -- Stationary point found.
 Normal termination of Gaussian 09 at Wed Jul 28 23:43:32 2021.

 ----------------------------------------------------------------------
 #N Geom=AllCheck Guess=TCheck SCRF=Check GenChk RB3LYP/6-31+G(d,p) Fre
 q
 ----------------------------------------------------------------------

 Structure from the checkpoint file:  "conf-150.chk"
 ------------------------------------------------------------
 Candidate Structure: Conf:150 OPT and FREQ calc in gas phase
 ------------------------------------------------------------
 Charge =  0 Multiplicity = 1

                          Input orientation:
 ---------------------------------------------------------------------
 Center     Atomic      Atomic             Coordinates (Angstroms)
 Number     Number       Type             X           Y           Z
 ---------------------------------------------------------------------
      1          8           0       -1.330802   -2.045184   -0.157097
      2          6           0       -1.449447   -0.858906    0.145541
      3          7           0       -0.432109   -0.164963    0.749434
      4          6           0        0.738460   -0.856622    1.268735
      5          6           0        1.260826   -0.063389    2.457057
      6          8           0        2.300582   -0.678356    3.053223
      7          8           0        0.806092    0.996119    2.836882
      8          6           0        1.840960   -1.092009    0.194578
      9          6           0        2.491356    0.145295   -0.335317
     10          6           0        3.764552    0.652612   -0.187148
     11          7           0        3.914456    1.834389   -0.879907
     12          6           0        2.747202    2.053162   -1.447070
     13          7           0        1.850988    1.061882   -1.153187
     14          6           0       -2.717374   -0.062342   -0.126362
     15          6           0       -3.329291   -0.380851   -1.496247
     16          7           0       -4.552690    0.407622   -1.687515
     17          1           0       -0.616764    0.747779    1.151023
     18          1           0        0.429562   -1.846972    1.626615
     19          1           0        2.600838   -0.108300    3.781944
     20          1           0        1.368423   -1.671496   -0.606049
     21          1           0        2.614541   -1.726041    0.635990
     22          1           0        4.581241    0.221151    0.375379
     23          1           0        2.493608    2.898023   -2.072206
     24          1           0        0.887669    1.010952   -1.449712
     25          1           0       -2.542034    1.015746   -0.043369
     26          1           0       -3.436344   -0.328738    0.661504
     27          1           0       -2.622594   -0.091824   -2.283325
     28          1           0       -3.470189   -1.467098   -1.576093
     29          1           0       -5.293220    0.085500   -1.068431
     30          1           0       -4.898186    0.312466   -2.638333
 ---------------------------------------------------------------------

 SCF Done:  E(RB3LYP) =  -796.152736342     A.U. after    1 cycles

 Alpha  occ. eigenvalues --  -19.23525 -19.18142 -19.14093 -14.40134 -14.38620
 Alpha  occ. eigenvalues --  -14.33540 -14.32352 -10.35730 -10.31083 -10.26904
 Alpha  occ. eigenvalues --  -10.24768 -10.23111 -10.22759 -10.22252 -10.21234
 Alpha  occ. eigenvalues --  -10.20531  -1.14408  -1.05942  -1.05360  -1.02208
 Alpha  occ. eigenvalues --   -0.95004  -0.89818  -0.87897  -0.82115  -0.77599
 Alpha  occ. eigenvalues --   -0.75097  -0.69492  -0.66118  -0.62452  -0.62029
 Alpha  occ. eigenvalues --   -0.60688  -0.59640  -0.54494  -0.54364  -0.52078
 Alpha  occ. eigenvalues --   -0.50796  -0.50379  -0.50120  -0.47702  -0.47158
 Alpha  occ. eigenvalues --   -0.45866  -0.45101  -0.44715  -0.43427  -0.42542
 Alpha  occ. eigenvalues --   -0.41399  -0.41300  -0.40632  -0.39753  -0.39083
 Alpha  occ. eigenvalues --   -0.38239  -0.35880  -0.35611  -0.31631  -0.29062
 Alpha  occ. eigenvalues --   -0.28723  -0.27913  -0.27612  -0.25238  -0.23389
 Alpha virt. eigenvalues --   -0.03184  -0.01763  -0.01300  -0.00381   0.00129
 Alpha virt. eigenvalues --    0.00582   0.01133   0.01783   0.02902   0.03391
 Alpha virt. eigenvalues --    0.04229   0.04532   0.04648   0.04981   0.05805

 Mulliken charges:
               1
     1  O   -0.493172
     2  C    0.278673
     3  N   -0.298910
     4  C   -0.431650
     5  C    0.469046
     6  O   -0.375027
     7  O   -0.424119
     8  C   -0.263143
     9  C    0.048654
    10  C   -0.129682
    11  N   -0.287424
    12  C    0.245133
    13  N   -0.276376
    14  C   -0.228332
    15  C   -0.242127
    16  N   -0.598975
    17  H    0.330842
    18  H    0.191089
    19  H    0.379030
    20  H    0.189987
    21  H    0.171067
    22  H    0.126115
    23  H    0.134841
    24  H    0.302338
    25  H    0.155753
    26  H    0.167130
    27  H    0.132809
    28  H    0.163457
    29  H    0.276094
    30  H    0.286879
 Sum of Mulliken charges =   0.00000

 Dipole moment (field-independent basis, Debye):
    X=             -2.9917    Y=             -0.9442    Z=              0.5684  Tot=              3.1882
 Quadrupole moment (field-independent basis, Debye-Ang):
   XX=           -100.7990   YY=           -108.3373   ZZ=            -85.8115
   XY=             -8.4236   XZ=             11.3205   YZ=             -4.2388

  Exact polarizability: 165.538   7.408 135.894  14.926  -8.336 128.534
 Approx polarizability: 216.856   4.812 219.782  17.166  -6.527 177.380

                      1                      2                      3
                      A                      A                      A
 Frequencies --     20.4396                36.8854                46.6206
 Red. masses --      3.7453                 3.8588                 7.1874
 Frc consts  --      0.0009                 0.0031                 0.0092
 IR Inten    --      0.4706                 1.7739                 8.1013

                      4                      5                      6
                      A                      A                      A
 Frequencies --     51.4004                63.9723                69.8537
 Red. masses --      2.5760                 5.9290                 8.9247
 Frc consts  --      0.0040                 0.0143                 0.0257
 IR Inten    --      5.5264                 0.2299                 0.8616

                      7                      8                      9
                      A                      A                      A
 Frequencies --     75.0323                97.4755               164.4169
 Red. masses --      4.2796                 4.3868                 4.9026
 Frc consts  --      0.0142                 0.0246                 0.0781
 IR Inten    --      3.6835                 4.0546                 9.7236

                     10                     11                     12
                      A                      A                      A
 Frequencies --    188.2613               202.5660               242.9786
 Red. masses --      4.2296                 4.6068                 1.3937
 Frc consts  --      0.0883                 0.1114                 0.0485
 IR Inten    --      1.9129                16.3491                41.9897

                     13                     14                     15
                      A                      A                      A
 Frequencies --    260.5527               314.5006               323.6239
 Red. masses --      3.3595                 4.5181                 4.9118
 Frc consts  --      0.1344                 0.2633                 0.3031
 IR Inten    --      8.7771                 0.7365                 1.5562

                     16                     17                     18
                      A                      A                      A
 Frequencies --    364.2596               394.1442               478.5792
 Red. masses --      2.4348                 4.0036                 3.2273
 Frc consts  --      0.1903                 0.3664                 0.4355
 IR Inten    --      1.6190                 5.9940                 8.3858

                     19                     20                     21
                      A                      A                      A
 Frequencies --    510.1805               529.0444               582.0466
 Red. masses --      1.3988                 2.8222                 2.6926
 Frc consts  --      0.2145                 0.4654                 0.5374
 IR Inten    --    114.0992                38.9401                20.1435

                     22                     23                     24
                      A                      A                      A
 Frequencies --    604.3394               615.2520               637.8888
 Red. masses --      1.7657                 1.9326                 2.4152
 Frc consts  --      0.3799                 0.4310                 0.5790
 IR Inten    --     38.1983                88.8214                 1.3141

                     25                     26                     27
                      A                      A                      A
 Frequencies --    649.7578               677.1919               701.1874
 Red. masses --      2.2726                 2.7899                 3.3514
 Frc consts  --      0.5653                 0.7538                 0.9708
 IR Inten    --     24.4593                 4.0607                54.2893

                     28                     29                     30
                      A                      A                      A
 Frequencies --    747.4467               779.0188               796.2849
 Red. masses --      3.8926                 3.0910                 1.3104
 Frc consts  --      1.2813                 1.1052                 0.4895
 IR Inten    --      4.5412                17.7537                24.8898

                     31                     32                     33
                      A                      A                      A
 Frequencies --    808.9612               841.4079               851.4384
 Red. masses --      1.3957                 1.3390                 1.4339
 Frc consts  --      0.5381                 0.5585                 0.6125
 IR Inten    --     26.5815                97.7221                37.5865

                     34                     35                     36
                      A                      A                      A
 Frequencies --    869.6241               921.3814               932.4116
 Red. masses --      2.7151                 4.0966                 4.6908
 Frc consts  --      1.2098                 2.0491                 2.4028
 IR Inten    --      6.9181                 6.8977                10.7181

                     37                     38                     39
                      A                      A                      A
 Frequencies --    966.2179               985.4819              1019.3357
 Red. masses --      2.7951                 2.1537                 3.0331
 Frc consts  --      1.5374                 1.2323                 1.8569
 IR Inten    --      7.7180                 2.5623                24.4535

                     40                     41                     42
                      A                      A                      A
 Frequencies --   1025.5370              1051.1083              1088.8873
 Red. masses --      3.0121                 2.4454                 2.6136
 Frc consts  --      1.8665                 1.5918                 1.8258
 IR Inten    --      0.6500                 2.8383                54.2924

                     43                     44                     45
                      A                      A                      A
 Frequencies --   1111.0387              1129.5127              1149.6582
 Red. masses --      1.5822                 2.6892                 2.1630
 Frc consts  --      1.1507                 2.0214                 1.6844
 IR Inten    --     22.3006                42.6569                16.8401

                     46                     47                     48
                      A                      A                      A
 Frequencies --   1157.4647              1179.4379              1205.6706
 Red. masses --      1.3363                 2.3006                 1.3588
 Frc consts  --      1.0548                 1.8855                 1.1637
 IR Inten    --     13.3314               197.9721                12.3604

                     49                     50                     51
                      A                      A                      A
 Frequencies --   1225.3446              1251.9668              1267.0483
 Red. masses --      1.7272                 1.8585                 1.7853
 Frc consts  --      1.5280                 1.7163                 1.6887
 IR Inten    --     50.4143                 6.0619                 4.8001

                     52                     53                     54
                      A                      A                      A
 Frequencies --   1290.2393              1293.9504              1312.8111
 Red. masses --      1.3231                 1.3492                 1.3730
 Frc consts  --      1.2977                 1.3310                 1.3942
 IR Inten    --      0.5527                 4.7036                 2.2844

                     55                     56                     57
                      A                      A                      A
 Frequencies --   1319.6563              1361.7390              1379.0454
 Red. masses --      1.2657                 1.4007                 1.6820
 Frc consts  --      1.2987                 1.5303                 1.8847
 IR Inten    --      1.2418                 5.8710                 8.0832

                     58                     59                     60
                      A                      A                      A
 Frequencies --   1393.5939              1410.1201              1428.5581
 Red. masses --      2.3800                 2.4811                 1.5367
 Frc consts  --      2.7234                 2.9068                 1.8477
 IR Inten    --     30.8177               155.1766                45.8443

                     61                     62                     63
                      A                      A                      A
 Frequencies --   1432.0969              1475.5227              1485.7859
 Red. masses --      2.8673                 1.0947                 1.1447
 Frc consts  --      3.4647                 1.4043                 1.4888
 IR Inten    --     28.0389                10.1915                12.0783

                     64                     65                     66
                      A                      A                      A
 Frequencies --   1506.6359              1522.9709              1525.2142
 Red. masses --      3.6543                 1.0866                 2.1109
 Frc consts  --      4.8873                 1.4849                 2.8931
 IR Inten    --     91.2478                 1.3639               257.7386

                     67                     68                     69
                      A                      A                      A
 Frequencies --   1612.8744              1666.4056              1739.0156
 Red. masses --      4.5015                 1.0902                 9.3463
 Frc consts  --      6.8994                 1.7837                16.6532
 IR Inten    --      7.5747                38.4863               254.8396

                     70                     71                     72
                      A                      A                      A
 Frequencies --   1810.3559              3022.3625              3029.6749
 Red. masses --      9.9937                 1.0611                 1.0673
 Frc consts  --     19.2977                 5.7107                 5.7722
 IR Inten    --    231.9266                23.0234                17.0450

                     73                     74                     75
                      A                      A                      A
 Frequencies --   3055.4535              3065.0457              3066.9006
 Red. masses --      1.0805                 1.0974                 1.0665
 Frc consts  --      5.9434                 6.0742                 5.9102
 IR Inten    --     10.1810                20.1542                 8.8891

                     76                     77                     78
                      A                      A                      A
 Frequencies --   3093.1615              3121.4805              3254.2745
 Red. masses --      1.1007                 1.1008                 1.0959
 Frc consts  --      6.2045                 6.3194                 6.8379
 IR Inten    --     28.3184                 6.0854                 5.8691

                     79                     80                     81
                      A                      A                      A
 Frequencies --   3263.8142              3502.0801              3585.9970
 Red. masses --      1.0974                 1.0501                 1.0778
 Frc consts  --      6.8876                 7.5879                 8.1660
 IR Inten    --      0.9850                 0.3243                72.3302

                     82                     83                     84
                      A                      A                      A
 Frequencies --   3591.6342              3664.4381              3752.4446
 Red. masses --      1.0931                 1.0814                 1.0646
 Frc consts  --      8.3079                 8.5555                 8.8319
 IR Inten    --      1.8695                56.4585                91.0177

 - Thermochemistry -
 -------------------
 Temperature   298.150 Kelvin.  Pressure   1.00000 Atm.
 Atom     1 has atomic number  8 and mass  15.99491

 Molecular mass:   226.10659 amu.
 Principal axes and moments of inertia in atomic units:
                           1         2         3
     Eigenvalues --  2523.052915994.914527342.81691
           X            0.96237  -0.13001  -0.23864
           Y            0.16432  -0.42102   0.89204
           Z            0.21644   0.89769   0.38381
 This molecule is an asymmetric top.
 Rotational symmetry number  1.
 Warning -- assumption of classical behavior for rotation
           may cause significant error
 Rotational temperatures (Kelvin)      0.03433     0.01445     0.01180
 Rotational constants (GHZ):           0.71530     0.30105     0.24578
 Zero-point vibrational energy     641793.5 (Joules/Mol)
                                  153.39232 (Kcal/Mol)
 Warning -- explicit consideration of  23 degrees of freedom as
           vibrations may cause significant error
 Vibrational temperatures:     29.41    53.07    67.08    73.95    92.04
          (Kelvin)            100.50   107.95   140.25   236.56   270.87
                              291.45   349.59   374.88   452.50   465.62
                              524.09   567.08   688.57   734.04   761.18
                              837.43   869.51   885.21   917.78   934.86
                              974.33  1008.85  1075.41  1120.83  1145.67
                             1163.91  1210.60  1225.03  1251.19  1325.66
                             1341.53  1390.17  1417.89  1466.59  1475.52
                             1512.31  1566.66  1598.53  1625.11  1654.10
                             1665.33  1696.95  1734.69  1763.00  1801.30
                             1823.00  1856.36  1861.70  1888.84  1898.69
                             1959.24  1984.14  2005.07  2028.85  2055.37
                             2060.47  2122.95  2137.71  2167.71  2191.21
                             2194.44  2320.56  2397.58  2502.05  2604.70
                             4348.50  4359.02  4396.11  4409.91  4412.58
                             4450.36  4491.11  4682.17  4695.89  5038.71
                             5159.44  5167.55  5272.30  5398.92

 Zero-point correction=                           0.244446 (Hartree/Particle)
 Thermal correction to Energy=                    0.260778
 Thermal correction to Enthalpy=                  0.261722
 Thermal correction to Gibbs Free Energy=         0.197334
 Sum of electronic and zero-point Energies=           -795.908290
 Sum of electronic and thermal Energies=              -795.891959
 Sum of electronic and thermal Enthalpies=            -795.891015
 Sum of electronic and thermal Free Energies=         -795.955402

                     E (Thermal)             CV                S
                      KCal/Mol        Cal/Mol-Kelvin    Cal/Mol-Kelvin
 Total                  163.640             58.691            135.516
 Electronic               0.000              0.000              0.000
 Translational            0.889              2.981             42.150
 Rotational               0.889              2.981             33.074
 Vibrational            161.863             52.729             60.292
 Vibration     1          0.593              1.986              6.591
 Vibration     2          0.594              1.982              5.420
 Vibration     3          0.595              1.979              4.956
 Vibration     4          0.596              1.977              4.763
 Vibration     5          0.597              1.971              4.331
 Vibration     6          0.598              1.968              4.157
 Vibration     7          0.599              1.966              4.017
 Vibration     8          0.603              1.951              3.504
 Vibration     9          0.623              1.886              2.498
 Vibration    10          0.633              1.856              2.245
 Vibration    11          0.639              1.836              2.110
 Vibration    12          0.659              1.774              1.781
 Vibration    13          0.669              1.745              1.658
 Vibration    14          0.702              1.646              1.339
 Vibration    15          0.708              1.628              1.292
 Vibration    16          0.738              1.546              1.104
 Vibration    17          0.761              1.483              0.984
 Vibration    18          0.835              1.298              0.714
 Vibration    19          0.865              1.227              0.633
 Vibration    20          0.884              1.186              0.589
 Vibration    21          0.939              1.070              0.482
 Vibration    22          0.963              1.023              0.442
 Vibration    23          0.975              1.000              0.424

 Optimization completed.
    -- Stationary point found.
 Normal termination of Gaussian 09 at Thu Jul 29 00:22:01 2021.
