 Gaussian 09, Revision D.01,
 Gaussian 09:  ES64L-G09RevD.01 24-Apr-2013

 ----------------------------------------------------------------------
 # B3LYP/6-31+G(d,p) opt=calcfc freq=noraman nosymm integral(ultrafineg
 rid)
 ----------------------------------------------------------------------

 ------------------------------------------------------------
 Candidate Structure: Conf:640 OPT and FREQ calc in gas phase
 ------------------------------------------------------------
 Symbolic Z-matrix:
 Charge =  0 Multiplicity = 1

 SCF Done:  E(RB3LYP) =  -796.151144108     A.U. after   15 cycles
 SCF Done:  E(RB3LYP) =  -796.153892465     A.U. after   13 cycles
 SCF Done:  E(RB3LYP) =  -796.154338495     A.U. after   14 cycles
 SCF Done:  E(RB3LYP) =  -796.154227075     A.U. after   13 cycles
 SCF Done:  E(RB3LYP) =  -796.154395559     A.U. after   13 cycles
 SCF Done:  E(RB3LYP) =  -796.154396490     A.U. after   11 cycles
 SCF Done:  E(RB3LYP) =  -796.154396535     A.U. after   10 cycles
 SCF Done:  E(RB3LYP) =  -796.154396556     A.U. after    9 cycles
 Optimization completed.
    -- Stationary point found.
 Normal termination of Gaussian 09 at Wed Jul 28 23:11:29 2021.

 ----------------------------------------------------------------------
 #N Geom=AllCheck Guess=TCheck SCRF=Check GenChk RB3LYP/6-31+G(d,p) Fre
 q
 ----------------------------------------------------------------------

 Structure from the checkpoint file:  "conf-640.chk"
 ------------------------------------------------------------
 Candidate Structure: Conf:640 OPT and FREQ calc in gas phase
 ------------------------------------------------------------
 Charge =  0 Multiplicity = 1

                          Input orientation:
 ---------------------------------------------------------------------
 Center     Atomic      Atomic             Coordinates (Angstroms)
 Number     Number       Type             X           Y           Z
 ---------------------------------------------------------------------
      1          8           0        0.920840   -1.278025   -1.011109
      2          6           0        1.181877   -0.134519   -0.616268
      3          7           0        0.270687    0.878363   -0.682914
      4          6           0       -0.985960    0.744227   -1.396937
      5          6           0       -1.146926    1.950992   -2.314299
      6          8           0       -2.105414    1.754421   -3.241642
      7          8           0       -0.519694    2.984989   -2.212279
      8          6           0       -2.245283    0.629980   -0.488201
      9          6           0       -2.194657   -0.436328    0.565240
     10          6           0       -2.829154   -0.508620    1.787366
     11          7           0       -2.589134   -1.719720    2.397844
     12          6           0       -1.811025   -2.375501    1.560775
     13          7           0       -1.556920   -1.656007    0.426069
     14          6           0        2.525503    0.203611    0.002565
     15          6           0        2.832514   -0.685139    1.234864
     16          7           0        4.141463   -0.482032    1.844261
     17          1           0        0.567652    1.821974   -0.468441
     18          1           0       -0.913306   -0.154706   -2.016952
     19          1           0       -2.183727    2.570629   -3.765624
     20          1           0       -3.098312    0.468471   -1.159557
     21          1           0       -2.416789    1.590537    0.011503
     22          1           0       -3.454076    0.242363    2.252067
     23          1           0       -1.398116   -3.361654    1.721381
     24          1           0       -0.840477   -1.869516   -0.265896
     25          1           0        2.580470    1.262923    0.281101
     26          1           0        3.287421    0.023434   -0.765725
     27          1           0        2.070670   -0.512886    2.003650
     28          1           0        2.747650   -1.733561    0.935704
     29          1           0        4.264125    0.467686    2.183616
     30          1           0        4.898176   -0.686512    1.197786
 ---------------------------------------------------------------------

 SCF Done:  E(RB3LYP) =  -796.154396556     A.U. after    1 cycles

 Alpha  occ. eigenvalues --  -19.24289 -19.18817 -19.15056 -14.39602 -14.38547
 Alpha  occ. eigenvalues --  -14.33514 -14.31501 -10.36414 -10.32025 -10.27677
 Alpha  occ. eigenvalues --  -10.23642 -10.22954 -10.22870 -10.22561 -10.21593
 Alpha  occ. eigenvalues --  -10.19755  -1.15103  -1.06751  -1.06086  -1.01107
 Alpha  occ. eigenvalues --   -0.95960  -0.89898  -0.86884  -0.82493  -0.77680
 Alpha  occ. eigenvalues --   -0.75243  -0.69105  -0.66648  -0.63159  -0.61937
 Alpha  occ. eigenvalues --   -0.60490  -0.58786  -0.55661  -0.53132  -0.53011
 Alpha  occ. eigenvalues --   -0.52079  -0.50723  -0.49936  -0.49013  -0.47296
 Alpha  occ. eigenvalues --   -0.45743  -0.45153  -0.44009  -0.43173  -0.43017
 Alpha  occ. eigenvalues --   -0.42028  -0.41344  -0.40691  -0.40132  -0.39461
 Alpha  occ. eigenvalues --   -0.38086  -0.36329  -0.36067  -0.32417  -0.29604
 Alpha  occ. eigenvalues --   -0.29068  -0.27957  -0.26740  -0.25192  -0.22518
 Alpha virt. eigenvalues --   -0.03818  -0.02236  -0.01683  -0.00660   0.00935
 Alpha virt. eigenvalues --    0.01079   0.01626   0.02089   0.02407   0.03608
 Alpha virt. eigenvalues --    0.03915   0.04551   0.04856   0.05645   0.05923

 Mulliken charges:
               1
     1  O   -0.496641
     2  C    0.054270
     3  N   -0.274235
     4  C   -0.375840
     5  C    0.607057
     6  O   -0.408265
     7  O   -0.438382
     8  C   -1.075598
     9  C    0.545241
    10  C    0.113215
    11  N   -0.273413
    12  C    0.171675
    13  N   -0.315202
    14  C   -0.064558
    15  C   -0.220822
    16  N   -0.600023
    17  H    0.329546
    18  H    0.198200
    19  H    0.379591
    20  H    0.190573
    21  H    0.159887
    22  H    0.120579
    23  H    0.133970
    24  H    0.338263
    25  H    0.130129
    26  H    0.172737
    27  H    0.156331
    28  H    0.172566
    29  H    0.284052
    30  H    0.285099
 Sum of Mulliken charges =   0.00000

 Dipole moment (field-independent basis, Debye):
    X=              1.5348    Y=              3.8172    Z=             -4.0968  Tot=              5.8061
 Quadrupole moment (field-independent basis, Debye-Ang):
   XX=            -93.8851   YY=            -98.2110   ZZ=           -103.8512
   XY=             -5.3702   XZ=             10.4327   YZ=              4.4140

  Exact polarizability: 148.652  -5.546 144.899   3.411 -22.148 140.901
 Approx polarizability: 192.639  -8.541 226.935  -4.514  -8.690 201.241

                      1                      2                      3
                      A                      A                      A
 Frequencies --     22.1666                33.3688                56.8989
 Red. masses --      5.1768                 3.2509                 7.1846
 Frc consts  --      0.0015                 0.0021                 0.0137
 IR Inten    --      0.8517                 2.3038                 3.3366

                      4                      5                      6
                      A                      A                      A
 Frequencies --     63.2629                72.4454                83.6964
 Red. masses --      4.9336                 4.6268                 2.0087
 Frc consts  --      0.0116                 0.0143                 0.0083
 IR Inten    --      1.6503                 4.3502                 1.8702

                      7                      8                      9
                      A                      A                      A
 Frequencies --    100.1861               131.3970               164.9634
 Red. masses --      6.1117                 5.9403                 6.0211
 Frc consts  --      0.0361                 0.0604                 0.0965
 IR Inten    --      1.1387                12.2881                 9.4065

                     10                     11                     12
                      A                      A                      A
 Frequencies --    182.0164               203.3790               257.6192
 Red. masses --      4.3075                 5.2467                 4.9808
 Frc consts  --      0.0841                 0.1279                 0.1948
 IR Inten    --     10.6042                 8.7601                 0.7721

                     13                     14                     15
                      A                      A                      A
 Frequencies --    290.8447               297.6701               319.1774
 Red. masses --      2.2778                 1.3129                 6.5749
 Frc consts  --      0.1135                 0.0685                 0.3946
 IR Inten    --     12.0557                34.3245                 3.4759

                     16                     17                     18
                      A                      A                      A
 Frequencies --    340.0045               392.2240               450.7228
 Red. masses --      3.4896                 3.6492                 3.7215
 Frc consts  --      0.2377                 0.3308                 0.4454
 IR Inten    --      7.1483                 3.5535                 9.0904

                     19                     20                     21
                      A                      A                      A
 Frequencies --    523.3077               541.0923               602.3761
 Red. masses --      2.9328                 1.3483                 1.3642
 Frc consts  --      0.4732                 0.2326                 0.2916
 IR Inten    --     33.7782                71.7610                96.1776

                     22                     23                     24
                      A                      A                      A
 Frequencies --    621.0238               625.1641               650.2947
 Red. masses --      3.4346                 3.6117                 3.7175
 Frc consts  --      0.7804                 0.8317                 0.9262
 IR Inten    --     12.6427                26.1705                43.4797

                     25                     26                     27
                      A                      A                      A
 Frequencies --    669.1479               695.7190               718.7341
 Red. masses --      3.5569                 3.0904                 1.2296
 Frc consts  --      0.9384                 0.8813                 0.3742
 IR Inten    --     41.0390                30.7355               100.9845

                     28                     29                     30
                      A                      A                      A
 Frequencies --    750.3550               771.1081               781.0469
 Red. masses --      4.3014                 1.2650                 4.1798
 Frc consts  --      1.4269                 0.4432                 1.5023
 IR Inten    --      2.3581                 1.9034                12.0914

                     31                     32                     33
                      A                      A                      A
 Frequencies --    792.5351               812.4320               837.2372
 Red. masses --      1.4492                 1.3858                 1.3381
 Frc consts  --      0.5363                 0.5389                 0.5526
 IR Inten    --    234.2181                18.1437                28.6827

                     34                     35                     36
                      A                      A                      A
 Frequencies --    890.7235               927.9803               934.2379
 Red. masses --      2.0724                 4.7677                 5.8052
 Frc consts  --      0.9688                 2.4190                 2.9853
 IR Inten    --      4.5558                 0.1391                15.0717

                     37                     38                     39
                      A                      A                      A
 Frequencies --    973.8215               992.3758              1012.9878
 Red. masses --      1.3721                 3.5111                 4.4780
 Frc consts  --      0.7667                 2.0372                 2.7073
 IR Inten    --      4.6405                 6.2506                68.5706

                     40                     41                     42
                      A                      A                      A
 Frequencies --   1017.4121              1046.4659              1097.9992
 Red. masses --      3.7337                 3.1368                 3.1843
 Frc consts  --      2.2771                 2.0239                 2.2619
 IR Inten    --     16.5388                 5.6875                17.9036

                     43                     44                     45
                      A                      A                      A
 Frequencies --   1111.8880              1142.7404              1148.3821
 Red. masses --      2.1342                 1.8907                 1.9605
 Frc consts  --      1.5546                 1.4547                 1.5233
 IR Inten    --     47.6154                35.4999               100.0034

                     46                     47                     48
                      A                      A                      A
 Frequencies --   1156.5347              1179.9490              1229.4635
 Red. masses --      1.7736                 2.1402                 1.4425
 Frc consts  --      1.3977                 1.7557                 1.2847
 IR Inten    --     11.4159               111.0343                17.1424

                     49                     50                     51
                      A                      A                      A
 Frequencies --   1248.6289              1267.1487              1279.3466
 Red. masses --      1.5542                 1.7890                 1.3989
 Frc consts  --      1.4276                 1.6924                 1.3490
 IR Inten    --     19.2874                 6.1090                 5.9592

                     52                     53                     54
                      A                      A                      A
 Frequencies --   1283.5059              1294.1519              1337.5315
 Red. masses --      1.6543                 1.3106                 1.3740
 Frc consts  --      1.6057                 1.2933                 1.4483
 IR Inten    --     18.4496                 4.8895                 9.2459

                     55                     56                     57
                      A                      A                      A
 Frequencies --   1350.3846              1370.4920              1382.5792
 Red. masses --      1.8528                 1.4374                 1.2047
 Frc consts  --      1.9906                 1.5907                 1.3568
 IR Inten    --      8.7127                17.5432                 3.2576

                     58                     59                     60
                      A                      A                      A
 Frequencies --   1391.9551              1397.5074              1402.7087
 Red. masses --      1.2928                 2.4131                 2.5609
 Frc consts  --      1.4759                 2.7767                 2.9688
 IR Inten    --      2.6370                37.1993               177.6032

                     61                     62                     63
                      A                      A                      A
 Frequencies --   1459.9077              1478.7195              1488.3734
 Red. masses --      2.2829                 1.1272                 1.1761
 Frc consts  --      2.8667                 1.4522                 1.5350
 IR Inten    --     36.6940                 6.2195                22.3148

                     64                     65                     66
                      A                      A                      A
 Frequencies --   1503.6835              1506.3302              1545.5381
 Red. masses --      1.0967                 3.2710                 2.0728
 Frc consts  --      1.4610                 4.3730                 2.9172
 IR Inten    --      6.1464                19.1475               255.2226

                     67                     68                     69
                      A                      A                      A
 Frequencies --   1611.4688              1668.2121              1711.4151
 Red. masses --      3.6786                 1.0953                 7.8920
 Frc consts  --      5.6282                 1.7958                13.6191
 IR Inten    --      9.2102                38.1772               215.2644

                     70                     71                     72
                      A                      A                      A
 Frequencies --   1810.8437              3036.7119              3038.6638
 Red. masses --      9.9891                 1.0612                 1.0589
 Frc consts  --     19.2992                 5.7657                 5.7605
 IR Inten    --    291.9395                18.7776                11.5207

                     73                     74                     75
                      A                      A                      A
 Frequencies --   3058.0032              3075.1804              3083.9546
 Red. masses --      1.0651                 1.0988                 1.1014
 Frc consts  --      5.8686                 6.1224                 6.1717
 IR Inten    --     25.9935                 7.5856                 7.7680

                     76                     77                     78
                      A                      A                      A
 Frequencies --   3096.4758              3117.7013              3247.7919
 Red. masses --      1.0869                 1.1047                 1.0959
 Frc consts  --      6.1402                 6.3267                 6.8109
 IR Inten    --      6.9694                18.8758                 7.5701

                     79                     80                     81
                      A                      A                      A
 Frequencies --   3264.4212              3503.8967              3510.5199
 Red. masses --      1.0969                 1.0848                 1.0483
 Frc consts  --      6.8873                 7.8467                 7.6117
 IR Inten    --      1.1894               294.8569                 1.5605

                     82                     83                     84
                      A                      A                      A
 Frequencies --   3603.0923              3614.9988              3745.1958
 Red. masses --      1.0950                 1.0777                 1.0645
 Frc consts  --      8.3753                 8.2976                 8.7974
 IR Inten    --      1.8697                58.0436                90.1818

 - Thermochemistry -
 -------------------
 Temperature   298.150 Kelvin.  Pressure   1.00000 Atm.
 Atom     1 has atomic number  8 and mass  15.99491

 Molecular mass:   226.10659 amu.
 Principal axes and moments of inertia in atomic units:
                           1         2         3
     Eigenvalues --  3602.917284371.559537106.48410
           X            0.77294   0.63134  -0.06297
           Y           -0.37687   0.53669   0.75494
           Z            0.51042  -0.55980   0.65276
 This molecule is an asymmetric top.
 Rotational symmetry number  1.
 Warning -- assumption of classical behavior for rotation
           may cause significant error
 Rotational temperatures (Kelvin)      0.02404     0.01981     0.01219
 Rotational constants (GHZ):           0.50091     0.41284     0.25396
 Zero-point vibrational energy     643014.4 (Joules/Mol)
                                  153.68414 (Kcal/Mol)
 Warning -- explicit consideration of  21 degrees of freedom as
           vibrations may cause significant error
 Vibrational temperatures:     31.89    48.01    81.86    91.02   104.23
          (Kelvin)            120.42   144.15   189.05   237.35   261.88
                              292.62   370.66   418.46   428.28   459.22
                              489.19   564.32   648.49   752.92   778.51
                              866.68   893.51   899.47   935.63   962.75
                             1000.98  1034.10  1079.59  1109.45  1123.75
                             1140.28  1168.91  1204.60  1281.55  1335.16
                             1344.16  1401.11  1427.81  1457.46  1463.83
                             1505.63  1579.77  1599.76  1644.15  1652.26
                             1663.99  1697.68  1768.92  1796.50  1823.14
                             1840.69  1846.68  1861.99  1924.41  1942.90
                             1971.83  1989.22  2002.71  2010.70  2018.18
                             2100.48  2127.54  2141.43  2163.46  2167.27
                             2223.68  2318.54  2400.18  2462.34  2605.40
                             4369.15  4371.95  4399.78  4424.49  4437.12
                             4455.13  4485.67  4672.84  4696.77  5041.32
                             5050.85  5184.04  5201.17  5388.49

 Zero-point correction=                           0.244911 (Hartree/Particle)
 Thermal correction to Energy=                    0.261004
 Thermal correction to Enthalpy=                  0.261948
 Thermal correction to Gibbs Free Energy=         0.198813
 Sum of electronic and zero-point Energies=           -795.909485
 Sum of electronic and thermal Energies=              -795.893393
 Sum of electronic and thermal Enthalpies=            -795.892449
 Sum of electronic and thermal Free Energies=         -795.955584

                     E (Thermal)             CV                S
                      KCal/Mol        Cal/Mol-Kelvin    Cal/Mol-Kelvin
 Total                  163.782             58.430            132.879
 Electronic               0.000              0.000              0.000
 Translational            0.889              2.981             42.150
 Rotational               0.889              2.981             33.081
 Vibrational            162.005             52.468             57.647
 Vibration     1          0.593              1.985              6.430
 Vibration     2          0.594              1.983              5.618
 Vibration     3          0.596              1.975              4.562
 Vibration     4          0.597              1.972              4.353
 Vibration     5          0.599              1.967              4.086
 Vibration     6          0.601              1.960              3.802
 Vibration     7          0.604              1.949              3.451
 Vibration     8          0.612              1.922              2.925
 Vibration     9          0.623              1.886              2.492
 Vibration    10          0.630              1.864              2.308
 Vibration    11          0.639              1.835              2.102
 Vibration    12          0.667              1.750              1.678
 Vibration    13          0.687              1.691              1.469
 Vibration    14          0.691              1.678              1.430
 Vibration    15          0.705              1.637              1.314
 Vibration    16          0.720              1.596              1.212
 Vibration    17          0.760              1.487              0.992
 Vibration    18          0.810              1.359              0.794
 Vibration    19          0.878              1.198              0.602
 Vibration    20          0.896              1.159              0.563
 Vibration    21          0.961              1.027              0.446

 Optimization completed.
    -- Stationary point found.
 Normal termination of Gaussian 09 at Wed Jul 28 23:52:35 2021.
