 Gaussian 09, Revision D.01,
 Gaussian 09:  ES64L-G09RevD.01 24-Apr-2013

 ----------------------------------------------------------------------
 # B3LYP/6-31+G(d,p) opt=calcfc freq=noraman nosymm integral(ultrafineg
 rid)
 ----------------------------------------------------------------------

 ------------------------------------------------------------
 Candidate Structure: Conf:295 OPT and FREQ calc in gas phase
 ------------------------------------------------------------
 Symbolic Z-matrix:
 Charge =  0 Multiplicity = 1

 SCF Done:  E(RB3LYP) =  -796.145875756     A.U. after   14 cycles
 SCF Done:  E(RB3LYP) =  -796.149725527     A.U. after   12 cycles
 SCF Done:  E(RB3LYP) =  -796.150691903     A.U. after   13 cycles
 SCF Done:  E(RB3LYP) =  -796.151015685     A.U. after   15 cycles
 SCF Done:  E(RB3LYP) =  -796.151279321     A.U. after   12 cycles
 SCF Done:  E(RB3LYP) =  -796.151409955     A.U. after   12 cycles
 SCF Done:  E(RB3LYP) =  -796.151494664     A.U. after   12 cycles
 SCF Done:  E(RB3LYP) =  -796.151557674     A.U. after   11 cycles
 SCF Done:  E(RB3LYP) =  -796.151570005     A.U. after   12 cycles
 SCF Done:  E(RB3LYP) =  -796.151570324     A.U. after   11 cycles
 SCF Done:  E(RB3LYP) =  -796.151574463     A.U. after   11 cycles
 SCF Done:  E(RB3LYP) =  -796.151574720     A.U. after    9 cycles
 SCF Done:  E(RB3LYP) =  -796.151574732     A.U. after    8 cycles
 Optimization completed on the basis of negligible forces.
    -- Stationary point found.
 Normal termination of Gaussian 09 at Wed Jul 28 23:27:48 2021.

 ----------------------------------------------------------------------
 #N Geom=AllCheck Guess=TCheck SCRF=Check GenChk RB3LYP/6-31+G(d,p) Fre
 q
 ----------------------------------------------------------------------

 Structure from the checkpoint file:  "conf-295.chk"
 ------------------------------------------------------------
 Candidate Structure: Conf:295 OPT and FREQ calc in gas phase
 ------------------------------------------------------------
 Charge =  0 Multiplicity = 1

                          Input orientation:
 ---------------------------------------------------------------------
 Center     Atomic      Atomic             Coordinates (Angstroms)
 Number     Number       Type             X           Y           Z
 ---------------------------------------------------------------------
      1          8           0        1.364207    1.039671   -0.606103
      2          6           0        1.766539    0.102335    0.083295
      3          7           0        0.919739   -0.606706    0.888539
      4          6           0       -0.471914   -0.226365    1.053359
      5          6           0       -0.931927   -0.812062    2.379501
      6          8           0       -2.195879   -0.449516    2.714956
      7          8           0       -0.271914   -1.547477    3.082862
      8          6           0       -1.357847   -0.703910   -0.152254
      9          6           0       -2.529707    0.156263   -0.505859
     10          6           0       -2.788696    0.888613   -1.644842
     11          7           0       -4.019376    1.502546   -1.573064
     12          6           0       -4.509780    1.154992   -0.401565
     13          7           0       -3.655598    0.333868    0.280753
     14          6           0        3.222485   -0.353836    0.108077
     15          6           0        4.077506    0.335550   -0.956789
     16          7           0        3.625915   -0.033909   -2.302192
     17          1           0        1.281165   -1.311328    1.519432
     18          1           0       -0.541086    0.867052    1.104694
     19          1           0       -2.392128   -0.873141    3.569032
     20          1           0       -0.694573   -0.701609   -1.019140
     21          1           0       -1.658461   -1.747373    0.012636
     22          1           0       -2.149343    1.002142   -2.509387
     23          1           0       -5.464565    1.462407    0.002226
     24          1           0       -3.760974   -0.003631    1.226184
     25          1           0        3.628462   -0.143095    1.107346
     26          1           0        3.260563   -1.440322   -0.037449
     27          1           0        5.110492   -0.008506   -0.836370
     28          1           0        4.068171    1.421024   -0.773546
     29          1           0        2.758703    0.454242   -2.512421
     30          1           0        4.309841    0.242085   -3.000670
 ---------------------------------------------------------------------

 SCF Done:  E(RB3LYP) =  -796.151574732     A.U. after    1 cycles

 Alpha  occ. eigenvalues --  -19.25154 -19.19385 -19.13755 -14.39473 -14.38189
 Alpha  occ. eigenvalues --  -14.31861 -14.31815 -10.36926 -10.30621 -10.27363
 Alpha  occ. eigenvalues --  -10.24312 -10.22669 -10.22484 -10.21771 -10.20590
 Alpha  occ. eigenvalues --  -10.19984  -1.15799  -1.06831  -1.05384  -1.01702
 Alpha  occ. eigenvalues --   -0.94835  -0.88357  -0.87421  -0.81932  -0.77090
 Alpha  occ. eigenvalues --   -0.74898  -0.69588  -0.66376  -0.62121  -0.61523
 Alpha  occ. eigenvalues --   -0.60438  -0.59165  -0.55149  -0.53536  -0.53173
 Alpha  occ. eigenvalues --   -0.50698  -0.50628  -0.49075  -0.48697  -0.47051
 Alpha  occ. eigenvalues --   -0.46484  -0.44973  -0.43800  -0.43015  -0.42327
 Alpha  occ. eigenvalues --   -0.41025  -0.40841  -0.40116  -0.39864  -0.38161
 Alpha  occ. eigenvalues --   -0.37144  -0.36898  -0.36317  -0.32697  -0.28589
 Alpha  occ. eigenvalues --   -0.28132  -0.27235  -0.27086  -0.24198  -0.22922
 Alpha virt. eigenvalues --   -0.04373  -0.02768  -0.00272  -0.00148   0.00837
 Alpha virt. eigenvalues --    0.01087   0.01577   0.01782   0.02612   0.03392
 Alpha virt. eigenvalues --    0.04148   0.04750   0.04840   0.05147   0.05617

 Mulliken charges:
               1
     1  O   -0.521319
     2  C    0.344080
     3  N   -0.264726
     4  C   -0.587552
     5  C    0.654659
     6  O   -0.487159
     7  O   -0.446707
     8  C   -0.376312
     9  C    0.210044
    10  C   -0.143934
    11  N   -0.302953
    12  C    0.247681
    13  N   -0.276720
    14  C   -0.110960
    15  C   -0.376492
    16  N   -0.607196
    17  H    0.329158
    18  H    0.199129
    19  H    0.394476
    20  H    0.184105
    21  H    0.158566
    22  H    0.130617
    23  H    0.132162
    24  H    0.312397
    25  H    0.163537
    26  H    0.177196
    27  H    0.128627
    28  H    0.143425
    29  H    0.308045
    30  H    0.284127
 Sum of Mulliken charges =   0.00000

 Dipole moment (field-independent basis, Debye):
    X=              0.7401    Y=             -2.3517    Z=              4.8553  Tot=              5.4454
 Quadrupole moment (field-independent basis, Debye-Ang):
   XX=            -87.6966   YY=           -104.1779   ZZ=            -93.8835
   XY=             10.2735   XZ=            -19.3398   YZ=              2.9396

  Exact polarizability: 172.543 -15.769 118.533  -5.318 -21.211 143.863
 Approx polarizability: 215.338 -25.278 189.513  -3.374 -36.807 211.316

                      1                      2                      3
                      A                      A                      A
 Frequencies --     20.0081                31.7889                34.4285
 Red. masses --      3.5479                 4.5299                 7.5386
 Frc consts  --      0.0008                 0.0027                 0.0053
 IR Inten    --      1.8643                 1.2496                 1.3522

                      4                      5                      6
                      A                      A                      A
 Frequencies --     49.6986                65.8023                73.3234
 Red. masses --      4.3896                 9.2604                 4.8168
 Frc consts  --      0.0064                 0.0236                 0.0153
 IR Inten    --      1.6866                 4.1134                 2.2440

                      7                      8                      9
                      A                      A                      A
 Frequencies --    123.5662               132.4749               150.2976
 Red. masses --      5.0950                 5.2690                 3.6758
 Frc consts  --      0.0458                 0.0545                 0.0489
 IR Inten    --      6.0519                 2.9329                 4.4223

                     10                     11                     12
                      A                      A                      A
 Frequencies --    191.0803               242.6586               274.4252
 Red. masses --      4.7710                 2.6824                 5.4015
 Frc consts  --      0.1026                 0.0931                 0.2397
 IR Inten    --      1.0474                29.9989                 1.6156

                     13                     14                     15
                      A                      A                      A
 Frequencies --    302.0838               317.3019               327.0561
 Red. masses --      2.6600                 1.2328                 3.9003
 Frc consts  --      0.1430                 0.0731                 0.2458
 IR Inten    --      5.5910                47.8910                 1.0464

                     16                     17                     18
                      A                      A                      A
 Frequencies --    343.6694               381.9290               428.2408
 Red. masses --      4.2038                 4.0770                 2.6798
 Frc consts  --      0.2925                 0.3504                 0.2896
 IR Inten    --     10.7198                 6.0992                37.0729

                     19                     20                     21
                      A                      A                      A
 Frequencies --    496.6991               558.9958               564.0773
 Red. masses --      1.3517                 2.2735                 1.9763
 Frc consts  --      0.1965                 0.4186                 0.3705
 IR Inten    --     74.5205                26.1181                35.6704

                     22                     23                     24
                      A                      A                      A
 Frequencies --    597.0704               613.1506               627.8024
 Red. masses --      1.8401                 2.0244                 3.3787
 Frc consts  --      0.3865                 0.4484                 0.7846
 IR Inten    --     39.4112                 1.7354                37.1961

                     25                     26                     27
                      A                      A                      A
 Frequencies --    661.7101               674.7078               679.3733
 Red. masses --      2.2132                 3.1519                 2.3278
 Frc consts  --      0.5710                 0.8454                 0.6330
 IR Inten    --    105.8437                 4.9880                 1.2288

                     28                     29                     30
                      A                      A                      A
 Frequencies --    735.4372               768.4612               806.4176
 Red. masses --      3.3125                 4.1167                 1.3927
 Frc consts  --      1.0556                 1.4323                 0.5336
 IR Inten    --     23.6527                 5.5116                24.2339

                     31                     32                     33
                      A                      A                      A
 Frequencies --    810.4047               854.2894               862.7599
 Red. masses --      2.6828                 1.3985                 1.5251
 Frc consts  --      1.0381                 0.6013                 0.6689
 IR Inten    --      9.8078                16.2425               108.8876

                     34                     35                     36
                      A                      A                      A
 Frequencies --    883.8531               900.7665               930.3618
 Red. masses --      1.9231                 2.0596                 5.8903
 Frc consts  --      0.8851                 0.9846                 3.0040
 IR Inten    --      9.6062                28.3128                 9.3770

                     37                     38                     39
                      A                      A                      A
 Frequencies --    955.0513              1001.7826              1012.9867
 Red. masses --      2.3022                 4.1701                 3.4641
 Frc consts  --      1.2372                 2.4657                 2.0944
 IR Inten    --      7.2430                 8.1358                 8.1272

                     40                     41                     42
                      A                      A                      A
 Frequencies --   1027.3445              1061.9183              1099.8100
 Red. masses --      3.5913                 2.4795                 3.5440
 Frc consts  --      2.2332                 1.6474                 2.5257
 IR Inten    --     11.0406                15.3598                41.9535

                     43                     44                     45
                      A                      A                      A
 Frequencies --   1120.0702              1121.7811              1150.7545
 Red. masses --      1.6281                 1.6993                 1.9867
 Frc consts  --      1.2034                 1.2599                 1.5501
 IR Inten    --     12.6623                41.5545                16.0856

                     46                     47                     48
                      A                      A                      A
 Frequencies --   1165.8061              1186.6243              1189.0761
 Red. masses --      1.7127                 2.3781                 1.3290
 Frc consts  --      1.3715                 1.9729                 1.1071
 IR Inten    --    136.0264                44.1566                55.6394

                     49                     50                     51
                      A                      A                      A
 Frequencies --   1234.6929              1242.2339              1266.5611
 Red. masses --      1.2122                 1.6554                 2.3339
 Frc consts  --      1.0887                 1.5051                 2.2059
 IR Inten    --      5.5930                36.2168                16.6334

                     52                     53                     54
                      A                      A                      A
 Frequencies --   1276.6705              1301.6148              1321.1506
 Red. masses --      1.4675                 1.3884                 1.2370
 Frc consts  --      1.4092                 1.3859                 1.2721
 IR Inten    --      6.3271                 4.8039                 4.1284

                     55                     56                     57
                      A                      A                      A
 Frequencies --   1349.6732              1357.5519              1377.5246
 Red. masses --      1.2342                 1.6124                 1.5499
 Frc consts  --      1.3246                 1.7508                 1.7329
 IR Inten    --      7.2451                51.5232                22.5560

                     58                     59                     60
                      A                      A                      A
 Frequencies --   1391.7891              1412.8668              1425.8330
 Red. masses --      2.8496                 2.2440                 1.4105
 Frc consts  --      3.2522                 2.6392                 1.6895
 IR Inten    --     27.9319                67.5071                17.1073

                     61                     62                     63
                      A                      A                      A
 Frequencies --   1435.1862              1454.1546              1475.9602
 Red. masses --      2.7217                 1.1112                 1.1454
 Frc consts  --      3.3030                 1.3844                 1.4701
 IR Inten    --     30.4073                20.6584                18.6949

                     64                     65                     66
                      A                      A                      A
 Frequencies --   1503.4221              1507.8076              1533.6081
 Red. masses --      1.0837                 3.5623                 2.1280
 Frc consts  --      1.4432                 4.7717                 2.9488
 IR Inten    --      2.7183                29.1499               328.3062

                     67                     68                     69
                      A                      A                      A
 Frequencies --   1610.3995              1657.0717              1738.6823
 Red. masses --      4.3135                 1.1259                 7.2584
 Frc consts  --      6.5909                 1.8215                12.9279
 IR Inten    --      5.1509                86.8781               177.2650

                     70                     71                     72
                      A                      A                      A
 Frequencies --   1811.8158              2995.4918              3030.2732
 Red. masses --      9.5894                 1.0699                 1.0715
 Frc consts  --     18.5469                 5.6563                 5.7969
 IR Inten    --    315.6783                60.0298                25.4391

                     73                     74                     75
                      A                      A                      A
 Frequencies --   3031.2099              3064.5287              3074.4677
 Red. masses --      1.0626                 1.0833                 1.0930
 Frc consts  --      5.7522                 5.9941                 6.0872
 IR Inten    --     15.8678                10.2949                33.5005

                     76                     77                     78
                      A                      A                      A
 Frequencies --   3082.5280              3132.1777              3257.9375
 Red. masses --      1.0998                 1.0927                 1.0950
 Frc consts  --      6.1570                 6.3160                 6.8478
 IR Inten    --     18.2237                 1.5995                 6.1124

                     79                     80                     81
                      A                      A                      A
 Frequencies --   3261.9146              3510.9554              3599.1687
 Red. masses --      1.0984                 1.0496                 1.0937
 Frc consts  --      6.8855                 7.6230                 8.3473
 IR Inten    --      0.7442                 4.9884                 8.7448

                     82                     83                     84
                      A                      A                      A
 Frequencies --   3607.5529              3662.3028              3741.0403
 Red. masses --      1.0780                 1.0812                 1.0644
 Frc consts  --      8.2661                 8.5437                 8.7771
 IR Inten    --     71.9648               105.5936                91.0441

 - Thermochemistry -
 -------------------
 Temperature   298.150 Kelvin.  Pressure   1.00000 Atm.
 Atom     1 has atomic number  8 and mass  15.99491

 Molecular mass:   226.10659 amu.
 Principal axes and moments of inertia in atomic units:
                           1         2         3
     Eigenvalues --  2464.214726122.241748253.94962
           X            0.99065   0.07479   0.11415
           Y           -0.07411  -0.40750   0.91019
           Z           -0.11458   0.91014   0.39815
 This molecule is an asymmetric top.
 Rotational symmetry number  1.
 Warning -- assumption of classical behavior for rotation
           may cause significant error
 Rotational temperatures (Kelvin)      0.03515     0.01415     0.01049
 Rotational constants (GHZ):           0.73238     0.29478     0.21865
 Zero-point vibrational energy     642077.6 (Joules/Mol)
                                  153.46024 (Kcal/Mol)
 Warning -- explicit consideration of  23 degrees of freedom as
           vibrations may cause significant error
 Vibrational temperatures:     28.79    45.74    49.53    71.51    94.67
          (Kelvin)            105.50   177.78   190.60   216.24   274.92
                              349.13   394.84   434.63   456.53   470.56
                              494.46   549.51   616.14   714.64   804.27
                              811.58   859.05   882.19   903.27   952.05
                              970.75   977.47  1058.13  1105.64  1160.25
                             1165.99  1229.13  1241.32  1271.67  1296.00
                             1338.58  1374.10  1441.34  1457.46  1478.12
                             1527.86  1582.38  1611.53  1613.99  1655.68
                             1677.33  1707.29  1710.81  1776.45  1787.30
                             1822.30  1836.84  1872.73  1900.84  1941.88
                             1953.21  1981.95  2002.47  2032.80  2051.45
                             2064.91  2092.20  2123.57  2163.09  2169.40
                             2206.52  2317.00  2384.15  2501.57  2606.80
                             4309.84  4359.88  4361.23  4409.17  4423.47
                             4435.06  4506.50  4687.44  4693.16  5051.48
                             5178.39  5190.46  5269.23  5382.52

 Zero-point correction=                           0.244554 (Hartree/Particle)
 Thermal correction to Energy=                    0.260703
 Thermal correction to Enthalpy=                  0.261648
 Thermal correction to Gibbs Free Energy=         0.197712
 Sum of electronic and zero-point Energies=           -795.907020
 Sum of electronic and thermal Energies=              -795.890871
 Sum of electronic and thermal Enthalpies=            -795.889927
 Sum of electronic and thermal Free Energies=         -795.953863

                     E (Thermal)             CV                S
                      KCal/Mol        Cal/Mol-Kelvin    Cal/Mol-Kelvin
 Total                  163.594             58.658            134.564
 Electronic               0.000              0.000              0.000
 Translational            0.889              2.981             42.150
 Rotational               0.889              2.981             33.187
 Vibrational            161.816             52.696             59.227
 Vibration     1          0.593              1.986              6.633
 Vibration     2          0.594              1.983              5.715
 Vibration     3          0.594              1.983              5.556
 Vibration     4          0.595              1.978              4.829
 Vibration     5          0.597              1.971              4.275
 Vibration     6          0.599              1.967              4.062
 Vibration     7          0.610              1.929              3.044
 Vibration     8          0.613              1.921              2.910
 Vibration     9          0.618              1.902              2.668
 Vibration    10          0.634              1.852              2.217
 Vibration    11          0.659              1.775              1.783
 Vibration    12          0.677              1.721              1.568
 Vibration    13          0.694              1.670              1.405
 Vibration    14          0.704              1.641              1.324
 Vibration    15          0.711              1.621              1.275
 Vibration    16          0.722              1.588              1.195
 Vibration    17          0.751              1.509              1.032
 Vibration    18          0.790              1.409              0.864
 Vibration    19          0.852              1.257              0.666
 Vibration    20          0.915              1.120              0.526
 Vibration    21          0.920              1.109              0.516
 Vibration    22          0.955              1.038              0.455
 Vibration    23          0.972              1.004              0.428

 Optimization completed on the basis of negligible forces.
    -- Stationary point found.
 Normal termination of Gaussian 09 at Thu Jul 29 00:07:16 2021.
