 Gaussian 09, Revision D.01,
 Gaussian 09:  ES64L-G09RevD.01 24-Apr-2013

 ----------------------------------------------------------------------
 # B3LYP/6-31+G(d,p) opt=calcfc freq=noraman nosymm integral(ultrafineg
 rid)
 ----------------------------------------------------------------------

 ------------------------------------------------------------
 Candidate Structure: Conf:118 OPT and FREQ calc in gas phase
 ------------------------------------------------------------
 Symbolic Z-matrix:
 Charge =  0 Multiplicity = 1

 SCF Done:  E(RB3LYP) =  -796.155818024     A.U. after   15 cycles
 SCF Done:  E(RB3LYP) =  -796.158907685     A.U. after   14 cycles
 SCF Done:  E(RB3LYP) =  -796.159647439     A.U. after   15 cycles
 SCF Done:  E(RB3LYP) =  -796.159996142     A.U. after   12 cycles
 SCF Done:  E(RB3LYP) =  -796.160062614     A.U. after   12 cycles
 SCF Done:  E(RB3LYP) =  -796.160127597     A.U. after   12 cycles
 SCF Done:  E(RB3LYP) =  -796.160134723     A.U. after   11 cycles
 SCF Done:  E(RB3LYP) =  -796.160136734     A.U. after   10 cycles
 SCF Done:  E(RB3LYP) =  -796.160136778     A.U. after    8 cycles
 Optimization completed.
    -- Stationary point found.
 Normal termination of Gaussian 09 at Wed Jul 28 23:17:05 2021.

 ----------------------------------------------------------------------
 #N Geom=AllCheck Guess=TCheck SCRF=Check GenChk RB3LYP/6-31+G(d,p) Fre
 q
 ----------------------------------------------------------------------

 Structure from the checkpoint file:  "conf-118.chk"
 ------------------------------------------------------------
 Candidate Structure: Conf:118 OPT and FREQ calc in gas phase
 ------------------------------------------------------------
 Charge =  0 Multiplicity = 1

                          Input orientation:
 ---------------------------------------------------------------------
 Center     Atomic      Atomic             Coordinates (Angstroms)
 Number     Number       Type             X           Y           Z
 ---------------------------------------------------------------------
      1          8           0       -1.007027   -1.913995    1.786191
      2          6           0       -1.041545   -1.279330    0.715386
      3          7           0        0.069793   -0.684481    0.218199
      4          6           0        1.406691   -0.862624    0.791647
      5          6           0        1.579225   -0.064259    2.109993
      6          8           0        0.752011   -0.408208    3.092528
      7          8           0        2.427591    0.796046    2.258247
      8          6           0        2.480771   -0.521468   -0.263765
      9          6           0        2.302034    0.796300   -0.952979
     10          6           0        1.936416    1.115602   -2.246308
     11          7           0        1.899613    2.480958   -2.425567
     12          6           0        2.237601    2.988864   -1.256013
     13          7           0        2.492938    2.016317   -0.334007
     14          6           0       -2.327570   -1.123052   -0.067440
     15          6           0       -3.440475   -0.448812    0.777832
     16          7           0       -4.735884   -0.326010    0.123642
     17          1           0        0.007261   -0.100628   -0.608917
     18          1           0        1.505474   -1.922269    1.061941
     19          1           0        0.100289   -1.096177    2.781321
     20          1           0        2.459342   -1.305589   -1.027292
     21          1           0        3.457552   -0.575493    0.227474
     22          1           0        1.726522    0.434201   -3.060628
     23          1           0        2.312908    4.042123   -1.024104
     24          1           0        2.721571    2.115579    0.649772
     25          1           0       -2.655205   -2.131150   -0.349451
     26          1           0       -2.161447   -0.559118   -0.992931
     27          1           0       -3.568796   -1.019831    1.701554
     28          1           0       -3.112387    0.555534    1.069979
     29          1           0       -4.690521    0.231455   -0.724316
     30          1           0       -5.134649   -1.230479   -0.110497
 ---------------------------------------------------------------------

 SCF Done:  E(RB3LYP) =  -796.160136778     A.U. after    1 cycles

 Alpha  occ. eigenvalues --  -19.20624 -19.16677 -19.16599 -14.41063 -14.40056
 Alpha  occ. eigenvalues --  -14.34142 -14.33012 -10.34552 -10.33338 -10.27989
 Alpha  occ. eigenvalues --  -10.25306 -10.23970 -10.23694 -10.23532 -10.22572
 Alpha  occ. eigenvalues --  -10.21603  -1.12195  -1.08013  -1.03931  -1.02696
 Alpha  occ. eigenvalues --   -0.97050  -0.90598  -0.88368  -0.82971  -0.78608
 Alpha  occ. eigenvalues --   -0.75446  -0.69288  -0.66293  -0.63177  -0.62875
 Alpha  occ. eigenvalues --   -0.61731  -0.60443  -0.57124  -0.56014  -0.53341
 Alpha  occ. eigenvalues --   -0.52165  -0.51541  -0.48489  -0.47356  -0.46957
 Alpha  occ. eigenvalues --   -0.46193  -0.45584  -0.44795  -0.44211  -0.43298
 Alpha  occ. eigenvalues --   -0.42323  -0.42164  -0.41733  -0.40618  -0.39774
 Alpha  occ. eigenvalues --   -0.38739  -0.37030  -0.33732  -0.32606  -0.30518
 Alpha  occ. eigenvalues --   -0.29583  -0.28803  -0.28227  -0.25847  -0.24472
 Alpha virt. eigenvalues --   -0.03495  -0.02829  -0.01361  -0.00912   0.00169
 Alpha virt. eigenvalues --    0.00344   0.00966   0.01801   0.02403   0.03198
 Alpha virt. eigenvalues --    0.03831   0.04061   0.04408   0.04645   0.05877

 Mulliken charges:
               1
     1  O   -0.528806
     2  C    0.258177
     3  N   -0.239574
     4  C   -0.225300
     5  C    0.418737
     6  O   -0.422410
     7  O   -0.483393
     8  C   -0.481000
     9  C   -0.012714
    10  C   -0.118452
    11  N   -0.289411
    12  C    0.236329
    13  N   -0.317345
    14  C   -0.080609
    15  C   -0.216177
    16  N   -0.599882
    17  H    0.320959
    18  H    0.193599
    19  H    0.414444
    20  H    0.161894
    21  H    0.184933
    22  H    0.127228
    23  H    0.138900
    24  H    0.347591
    25  H    0.176632
    26  H    0.134666
    27  H    0.176319
    28  H    0.150935
    29  H    0.286411
    30  H    0.287319
 Sum of Mulliken charges =   0.00000

 Dipole moment (field-independent basis, Debye):
    X=             -0.8023    Y=             -2.6467    Z=             -2.5009  Tot=              3.7287
 Quadrupole moment (field-independent basis, Debye-Ang):
   XX=            -98.5898   YY=            -95.4990   ZZ=           -117.7806
   XY=             -1.3353   XZ=              7.2851   YZ=              9.8419

  Exact polarizability: 151.173  16.406 140.652   1.202 -13.109 142.263
 Approx polarizability: 193.344  20.023 213.113   7.636 -15.246 215.721

                      1                      2                      3
                      A                      A                      A
 Frequencies --     24.1260                45.4882                59.6089
 Red. masses --      4.4450                 7.2961                 2.7861
 Frc consts  --      0.0015                 0.0089                 0.0058
 IR Inten    --      0.1553                 1.5211                 4.9854

                      4                      5                      6
                      A                      A                      A
 Frequencies --     76.2264                85.7454                93.8948
 Red. masses --      3.9454                 3.1634                 4.5578
 Frc consts  --      0.0135                 0.0137                 0.0237
 IR Inten    --      6.9457                 0.1464                 4.5491

                      7                      8                      9
                      A                      A                      A
 Frequencies --    130.7206               153.2600               192.6291
 Red. masses --      8.9440                 5.6602                 4.2579
 Frc consts  --      0.0900                 0.0783                 0.0931
 IR Inten    --     10.8366                 6.3949                12.0964

                     10                     11                     12
                      A                      A                      A
 Frequencies --    212.6287               226.7476               269.6945
 Red. masses --      4.8122                 6.9369                 6.8721
 Frc consts  --      0.1282                 0.2101                 0.2945
 IR Inten    --      4.9644                14.7471                 0.7603

                     13                     14                     15
                      A                      A                      A
 Frequencies --    298.1323               301.1532               343.9952
 Red. masses --      1.1124                 5.2428                 4.8559
 Frc consts  --      0.0583                 0.2802                 0.3386
 IR Inten    --     45.5792                 2.1423                 5.2383

                     16                     17                     18
                      A                      A                      A
 Frequencies --    360.5922               381.7158               438.5664
 Red. masses --      2.4079                 4.0289                 3.3876
 Frc consts  --      0.1845                 0.3459                 0.3839
 IR Inten    --      5.5981                 5.5773                25.2075

                     19                     20                     21
                      A                      A                      A
 Frequencies --    556.8185               572.1402               603.3063
 Red. masses --      1.4076                 4.0739                 3.7567
 Frc consts  --      0.2571                 0.7857                 0.8056
 IR Inten    --     43.2966                16.3159                 9.5694

                     22                     23                     24
                      A                      A                      A
 Frequencies --    626.4141               655.7406               666.7639
 Red. masses --      3.6091                 2.7197                 3.5462
 Frc consts  --      0.8344                 0.6890                 0.9289
 IR Inten    --      6.8536                 3.4954                41.3194

                     25                     26                     27
                      A                      A                      A
 Frequencies --    725.2467               735.5953               758.2596
 Red. masses --      2.3756                 1.5074                 4.7938
 Frc consts  --      0.7362                 0.4806                 1.6239
 IR Inten    --      6.9502                66.0932                15.0962

                     28                     29                     30
                      A                      A                      A
 Frequencies --    767.4122               778.5510               788.6065
 Red. masses --      1.4877                 2.1797                 1.9105
 Frc consts  --      0.5162                 0.7784                 0.7000
 IR Inten    --      3.9453                62.2436               206.5108

                     31                     32                     33
                      A                      A                      A
 Frequencies --    827.8755               844.0788               856.6014
 Red. masses --      1.3857                 1.5958                 2.2566
 Frc consts  --      0.5596                 0.6699                 0.9756
 IR Inten    --     24.7171                27.2415                13.0119

                     34                     35                     36
                      A                      A                      A
 Frequencies --    923.2199               933.3413               943.9370
 Red. masses --      1.2293                 5.5535                 2.2134
 Frc consts  --      0.6173                 2.8503                 1.1620
 IR Inten    --     80.3589                 7.0160                15.1659

                     37                     38                     39
                      A                      A                      A
 Frequencies --    973.9451               985.9027              1008.2037
 Red. masses --      1.3753                 4.5378                 3.8182
 Frc consts  --      0.7686                 2.5988                 2.2867
 IR Inten    --      1.6719                 4.9321                18.6144

                     40                     41                     42
                      A                      A                      A
 Frequencies --   1010.2951              1058.1353              1091.3882
 Red. masses --      4.8783                 2.4087                 2.3376
 Frc consts  --      2.9337                 1.5889                 1.6405
 IR Inten    --     45.2576                12.4139                 7.2201

                     43                     44                     45
                      A                      A                      A
 Frequencies --   1104.9785              1121.2341              1138.8064
 Red. masses --      3.8276                 1.5837                 1.4063
 Frc consts  --      2.7535                 1.1731                 1.0746
 IR Inten    --     27.9015                51.6590                 3.6364

                     46                     47                     48
                      A                      A                      A
 Frequencies --   1150.8073              1224.8908              1241.5715
 Red. masses --      2.0238                 1.5200                 2.2620
 Frc consts  --      1.5791                 1.3437                 2.0544
 IR Inten    --      9.2624                10.0349                33.4087

                     49                     50                     51
                      A                      A                      A
 Frequencies --   1253.4515              1268.6006              1289.5273
 Red. masses --      1.6222                 2.2400                 1.3033
 Frc consts  --      1.5017                 2.1240                 1.2769
 IR Inten    --     27.3541                 3.1127                 7.6767

                     52                     53                     54
                      A                      A                      A
 Frequencies --   1291.5974              1309.4008              1354.6550
 Red. masses --      1.3151                 1.5093                 1.6717
 Frc consts  --      1.2926                 1.5247                 1.8075
 IR Inten    --      0.8640                25.0587                 8.1181

                     55                     56                     57
                      A                      A                      A
 Frequencies --   1370.4918              1382.8432              1384.6922
 Red. masses --      1.5264                 1.4636                 1.1830
 Frc consts  --      1.6892                 1.6490                 1.3364
 IR Inten    --      9.0786                 4.8034                 7.4905

                     58                     59                     60
                      A                      A                      A
 Frequencies --   1392.8162              1397.3609              1433.2986
 Red. masses --      1.2699                 3.1173                 2.7909
 Frc consts  --      1.4515                 3.5863                 3.3780
 IR Inten    --     26.6256                34.5397                67.2426

                     61                     62                     63
                      A                      A                      A
 Frequencies --   1455.6962              1475.3794              1480.1750
 Red. masses --      1.4627                 1.1344                 1.1227
 Frc consts  --      1.8262                 1.4548                 1.4493
 IR Inten    --    227.3631                22.7994                 3.1367

                     64                     65                     66
                      A                      A                      A
 Frequencies --   1502.9309              1508.8763              1538.5333
 Red. masses --      1.0900                 3.5825                 2.4327
 Frc consts  --      1.4507                 4.8056                 3.3928
 IR Inten    --      5.6418                22.9980               457.9224

                     67                     68                     69
                      A                      A                      A
 Frequencies --   1605.1821              1668.2598              1679.9809
 Red. masses --      4.3518                 1.1478                 5.6406
 Frc consts  --      6.6065                 1.8821                 9.3795
 IR Inten    --     12.0842                72.4699               188.2793

                     70                     71                     72
                      A                      A                      A
 Frequencies --   1806.3789              3041.4799              3043.8465
 Red. masses --      8.4307                 1.0593                 1.0827
 Frc consts  --     16.2081                 5.7734                 5.9100
 IR Inten    --    379.0810                 5.5546                 4.3061

                     73                     74                     75
                      A                      A                      A
 Frequencies --   3055.5832              3066.4765              3086.9840
 Red. masses --      1.0655                 1.0617                 1.1018
 Frc consts  --      5.8614                 5.8822                 6.1861
 IR Inten    --     27.0792                19.8105                 5.5689

                     76                     77                     78
                      A                      A                      A
 Frequencies --   3109.9176              3118.3667              3222.8594
 Red. masses --      1.1044                 1.1039                 1.0751
 Frc consts  --      6.2931                 6.3247                 6.5792
 IR Inten    --      4.8305                17.1872               736.8151

                     79                     80                     81
                      A                      A                      A
 Frequencies --   3243.9817              3266.0260              3513.4918
 Red. masses --      1.0960                 1.0972                 1.0482
 Frc consts  --      6.7953                 6.8958                 7.6242
 IR Inten    --      7.2255                 0.9232                 1.4208

                     82                     83                     84
                      A                      A                      A
 Frequencies --   3571.2385              3585.6451              3606.7016
 Red. masses --      1.0790                 1.0830                 1.0952
 Frc consts  --      8.1080                 8.2041                 8.3939
 IR Inten    --    112.6402               204.0231                 2.5704

 - Thermochemistry -
 -------------------
 Temperature   298.150 Kelvin.  Pressure   1.00000 Atm.
 Atom     1 has atomic number  8 and mass  15.99491

 Molecular mass:   226.10659 amu.
 Principal axes and moments of inertia in atomic units:
                           1         2         3
     Eigenvalues --  2661.487765565.711267105.22881
           X            0.86898   0.42514  -0.25325
           Y            0.42030  -0.36393   0.83121
           Z           -0.26121   0.82874   0.49494
 This molecule is an asymmetric top.
 Rotational symmetry number  1.
 Warning -- assumption of classical behavior for rotation
           may cause significant error
 Rotational temperatures (Kelvin)      0.03254     0.01556     0.01219
 Rotational constants (GHZ):           0.67809     0.32426     0.25400
 Zero-point vibrational energy     644498.4 (Joules/Mol)
                                  154.03882 (Kcal/Mol)
 Warning -- explicit consideration of  21 degrees of freedom as
           vibrations may cause significant error
 Vibrational temperatures:     34.71    65.45    85.76   109.67   123.37
          (Kelvin)            135.09   188.08   220.51   277.15   305.92
                              326.24   388.03   428.95   433.29   494.93
                              518.81   549.20   631.00   801.14   823.18
                              868.02   901.27   943.46   959.32  1043.47
                             1058.36  1090.97  1104.13  1120.16  1134.63
                             1191.13  1214.44  1232.46  1328.31  1342.87
                             1358.11  1401.29  1418.49  1450.58  1453.59
                             1522.42  1570.26  1589.82  1613.20  1638.49
                             1655.75  1762.34  1786.34  1803.43  1825.23
                             1855.34  1858.32  1883.93  1949.04  1971.83
                             1989.60  1992.26  2003.95  2010.49  2062.19
                             2094.42  2122.74  2129.64  2162.38  2170.93
                             2213.60  2309.50  2400.25  2417.11  2598.97
                             4376.01  4379.41  4396.30  4411.97  4441.48
                             4474.47  4486.63  4636.97  4667.36  4699.08
                             5055.12  5138.21  5158.94  5189.23

 Zero-point correction=                           0.245476 (Hartree/Particle)
 Thermal correction to Energy=                    0.261012
 Thermal correction to Enthalpy=                  0.261956
 Thermal correction to Gibbs Free Energy=         0.200819
 Sum of electronic and zero-point Energies=           -795.914660
 Sum of electronic and thermal Energies=              -795.899125
 Sum of electronic and thermal Enthalpies=            -795.898181
 Sum of electronic and thermal Free Energies=         -795.959317

                     E (Thermal)             CV                S
                      KCal/Mol        Cal/Mol-Kelvin    Cal/Mol-Kelvin
 Total                  163.787             57.370            128.673
 Electronic               0.000              0.000              0.000
 Translational            0.889              2.981             42.150
 Rotational               0.889              2.981             33.020
 Vibrational            162.010             51.408             53.503
 Vibration     1          0.593              1.985              6.262
 Vibration     2          0.595              1.979              5.004
 Vibration     3          0.597              1.974              4.470
 Vibration     4          0.599              1.965              3.986
 Vibration     5          0.601              1.959              3.755
 Vibration     6          0.603              1.954              3.577
 Vibration     7          0.612              1.923              2.935
 Vibration     8          0.619              1.899              2.631
 Vibration     9          0.635              1.850              2.202
 Vibration    10          0.644              1.822              2.021
 Vibration    11          0.650              1.800              1.905
 Vibration    12          0.674              1.729              1.598
 Vibration    13          0.691              1.677              1.427
 Vibration    14          0.693              1.672              1.410
 Vibration    15          0.723              1.587              1.194
 Vibration    16          0.735              1.553              1.120
 Vibration    17          0.751              1.509              1.032
 Vibration    18          0.799              1.386              0.831
 Vibration    19          0.912              1.125              0.530
 Vibration    20          0.928              1.092              0.500
 Vibration    21          0.962              1.025              0.444

 Optimization completed.
    -- Stationary point found.
 Normal termination of Gaussian 09 at Thu Jul 29 00:00:01 2021.
