 Gaussian 09, Revision D.01,
 Gaussian 09:  ES64L-G09RevD.01 24-Apr-2013

 ----------------------------------------------------------------------
 # B3LYP/6-31+G(d,p) opt=calcfc freq=noraman nosymm integral(ultrafineg
 rid)
 ----------------------------------------------------------------------

 ------------------------------------------------------------
 Candidate Structure: Conf:599 OPT and FREQ calc in gas phase
 ------------------------------------------------------------
 Symbolic Z-matrix:
 Charge =  0 Multiplicity = 1

 SCF Done:  E(RB3LYP) =  -796.141121999     A.U. after   15 cycles
 SCF Done:  E(RB3LYP) =  -796.144432913     A.U. after   12 cycles
 SCF Done:  E(RB3LYP) =  -796.144601029     A.U. after   12 cycles
 SCF Done:  E(RB3LYP) =  -796.144611406     A.U. after   11 cycles
 SCF Done:  E(RB3LYP) =  -796.144612246     A.U. after   11 cycles
 SCF Done:  E(RB3LYP) =  -796.144612439     A.U. after   10 cycles
 Optimization completed.
    -- Stationary point found.
 Normal termination of Gaussian 09 at Wed Jul 28 23:01:42 2021.

 ----------------------------------------------------------------------
 #N Geom=AllCheck Guess=TCheck SCRF=Check GenChk RB3LYP/6-31+G(d,p) Fre
 q
 ----------------------------------------------------------------------

 Structure from the checkpoint file:  "conf-599.chk"
 ------------------------------------------------------------
 Candidate Structure: Conf:599 OPT and FREQ calc in gas phase
 ------------------------------------------------------------
 Charge =  0 Multiplicity = 1

                          Input orientation:
 ---------------------------------------------------------------------
 Center     Atomic      Atomic             Coordinates (Angstroms)
 Number     Number       Type             X           Y           Z
 ---------------------------------------------------------------------
      1          8           0        2.671769    1.649674    0.887287
      2          6           0        1.887821    0.814628    0.457629
      3          7           0        1.014944    1.170741   -0.573022
      4          6           0       -0.231661    0.488019   -0.929545
      5          6           0       -0.311040    0.302991   -2.462211
      6          8           0        0.857746    0.373881   -3.114582
      7          8           0       -1.346530    0.078366   -3.052204
      8          6           0       -1.493136    1.192240   -0.350088
      9          6           0       -2.672078    0.303797   -0.100227
     10          6           0       -3.329433   -0.018235    1.069420
     11          7           0       -4.391025   -0.858585    0.822053
     12          6           0       -4.381687   -1.048465   -0.483042
     13          7           0       -3.367611   -0.364906   -1.088716
     14          6           0        1.852942   -0.621160    0.962975
     15          6           0        3.031701   -0.950039    1.902707
     16          7           0        4.366559   -0.902370    1.322414
     17          1           0        1.018581    2.179243   -0.711126
     18          1           0       -0.186674   -0.525201   -0.519225
     19          1           0        1.548717    0.618566   -2.467729
     20          1           0       -1.763155    2.032729   -1.003333
     21          1           0       -1.205600    1.620349    0.614944
     22          1           0       -3.100216    0.321607    2.070751
     23          1           0       -5.076342   -1.665091   -1.036206
     24          1           0       -3.093230   -0.369348   -2.065253
     25          1           0        0.904461   -0.780647    1.496780
     26          1           0        1.846266   -1.313566    0.110063
     27          1           0        3.010330   -0.258487    2.749985
     28          1           0        2.865838   -1.954984    2.306774
     29          1           0        4.477612   -1.550941    0.548651
     30          1           0        4.594058    0.035253    1.006364
 ---------------------------------------------------------------------

 SCF Done:  E(RB3LYP) =  -796.144612439     A.U. after    1 cycles

 Alpha  occ. eigenvalues --  -19.23890 -19.18478 -19.16616 -14.41155 -14.39678
 Alpha  occ. eigenvalues --  -14.33142 -14.32530 -10.36458 -10.33551 -10.29259
 Alpha  occ. eigenvalues --  -10.24849 -10.24152 -10.23597 -10.23237 -10.22994
 Alpha  occ. eigenvalues --  -10.21023  -1.14722  -1.08313  -1.06468  -1.02303
 Alpha  occ. eigenvalues --   -0.97207  -0.89835  -0.87977  -0.82602  -0.78731
 Alpha  occ. eigenvalues --   -0.75955  -0.69920  -0.67137  -0.65211  -0.61885
 Alpha  occ. eigenvalues --   -0.60611  -0.59971  -0.58273  -0.55484  -0.54504
 Alpha  occ. eigenvalues --   -0.52287  -0.50107  -0.49491  -0.49113  -0.48239
 Alpha  occ. eigenvalues --   -0.46816  -0.45268  -0.44958  -0.44393  -0.44129
 Alpha  occ. eigenvalues --   -0.42804  -0.41876  -0.41608  -0.40899  -0.39886
 Alpha  occ. eigenvalues --   -0.39282  -0.37520  -0.36008  -0.33461  -0.31250
 Alpha  occ. eigenvalues --   -0.29468  -0.28990  -0.27737  -0.25225  -0.23823
 Alpha virt. eigenvalues --   -0.04505  -0.03545  -0.02317  -0.01060  -0.00242
 Alpha virt. eigenvalues --    0.00349   0.01028   0.01751   0.02253   0.02806
 Alpha virt. eigenvalues --    0.03150   0.03932   0.04217   0.04800   0.05174

 Mulliken charges:
               1
     1  O   -0.458675
     2  C    0.383797
     3  N   -0.496299
     4  C   -0.457497
     5  C    0.502432
     6  O   -0.385478
     7  O   -0.477532
     8  C   -0.611773
     9  C    0.393078
    10  C   -0.164701
    11  N   -0.298724
    12  C    0.246355
    13  N   -0.305271
    14  C    0.037689
    15  C   -0.426634
    16  N   -0.585636
    17  H    0.336593
    18  H    0.187457
    19  H    0.390769
    20  H    0.176795
    21  H    0.166552
    22  H    0.124110
    23  H    0.136521
    24  H    0.343608
    25  H    0.176476
    26  H    0.165214
    27  H    0.165801
    28  H    0.140814
    29  H    0.279807
    30  H    0.314351
 Sum of Mulliken charges =   0.00000

 Dipole moment (field-independent basis, Debye):
    X=              1.3677    Y=              0.3508    Z=             -1.6615  Tot=              2.1805
 Quadrupole moment (field-independent basis, Debye-Ang):
   XX=           -123.6630   YY=            -94.2357   ZZ=           -109.1230
   XY=             -6.3881   XZ=             -1.3832   YZ=              0.6802

  Exact polarizability: 175.909  18.198 118.600   9.840  -0.761 142.361
 Approx polarizability: 226.603  33.974 180.915  10.179   5.870 214.739

                      1                      2                      3
                      A                      A                      A
 Frequencies --     19.0962                39.6052                50.4856
 Red. masses --      5.7191                 4.7530                 3.6192
 Frc consts  --      0.0012                 0.0044                 0.0054
 IR Inten    --      0.2752                 0.5115                 2.0229

                      4                      5                      6
                      A                      A                      A
 Frequencies --     63.0404                81.5654                89.6813
 Red. masses --      6.6937                 5.1389                 6.0316
 Frc consts  --      0.0157                 0.0201                 0.0286
 IR Inten    --      0.9108                 1.2873                10.9750

                      7                      8                      9
                      A                      A                      A
 Frequencies --    135.3532               140.0021               149.7975
 Red. masses --      4.6092                 5.7267                 3.4886
 Frc consts  --      0.0498                 0.0661                 0.0461
 IR Inten    --      6.6584                 9.2069                 4.2514

                     10                     11                     12
                      A                      A                      A
 Frequencies --    207.2149               245.5311               286.0528
 Red. masses --      4.4382                 2.6552                 4.3120
 Frc consts  --      0.1123                 0.0943                 0.2079
 IR Inten    --      6.9570                 7.5047                10.1735

                     13                     14                     15
                      A                      A                      A
 Frequencies --    309.5705               343.8696               351.4769
 Red. masses --      4.1590                 2.6367                 1.1858
 Frc consts  --      0.2348                 0.1837                 0.0863
 IR Inten    --      0.6375                 2.4244                62.6918

                     16                     17                     18
                      A                      A                      A
 Frequencies --    356.5109               414.0305               438.1972
 Red. masses --      5.0591                 3.6237                 4.0958
 Frc consts  --      0.3789                 0.3660                 0.4634
 IR Inten    --     14.1428                11.3344                 0.7232

                     19                     20                     21
                      A                      A                      A
 Frequencies --    525.2797               555.4205               598.9229
 Red. masses --      2.3168                 2.9204                 4.1053
 Frc consts  --      0.3766                 0.5308                 0.8676
 IR Inten    --     11.5803                 4.2239                 7.8090

                     22                     23                     24
                      A                      A                      A
 Frequencies --    621.6062               644.8836               668.2540
 Red. masses --      3.4954                 3.3495                 3.0708
 Frc consts  --      0.7958                 0.8207                 0.8079
 IR Inten    --     30.0584                 8.3739                36.4784

                     25                     26                     27
                      A                      A                      A
 Frequencies --    686.8068               717.4087               732.3349
 Red. masses --      1.4920                 3.7974                 1.2583
 Frc consts  --      0.4147                 1.1515                 0.3976
 IR Inten    --     68.2749                 5.2592                58.7151

                     28                     29                     30
                      A                      A                      A
 Frequencies --    738.9365               788.7033               810.1242
 Red. masses --      3.1215                 1.5744                 1.2698
 Frc consts  --      1.0042                 0.5770                 0.4910
 IR Inten    --      6.7073               272.4648                66.9244

                     31                     32                     33
                      A                      A                      A
 Frequencies --    817.6891               821.4906               832.4972
 Red. masses --      2.0256                 1.5613                 2.2143
 Frc consts  --      0.7980                 0.6208                 0.9042
 IR Inten    --     75.8417                12.3535                22.2237

                     34                     35                     36
                      A                      A                      A
 Frequencies --    848.6160               884.6333               923.9607
 Red. masses --      1.3934                 2.5166                 1.6657
 Frc consts  --      0.5912                 1.1603                 0.8378
 IR Inten    --     25.9890                 4.3921                 3.7997

                     37                     38                     39
                      A                      A                      A
 Frequencies --    933.7346               979.8309              1018.9133
 Red. masses --      5.8795                 2.7706                 2.1895
 Frc consts  --      3.0202                 1.5672                 1.3393
 IR Inten    --     11.1063                 3.7981                40.7660

                     40                     41                     42
                      A                      A                      A
 Frequencies --   1024.4119              1046.2741              1108.8044
 Red. masses --      4.0106                 4.0973                 2.7563
 Frc consts  --      2.4797                 2.6426                 1.9966
 IR Inten    --      6.5637                18.6472                 9.8583

                     43                     44                     45
                      A                      A                      A
 Frequencies --   1123.7196              1128.5310              1152.5104
 Red. masses --      1.5884                 3.6668                 1.9631
 Frc consts  --      1.1817                 2.7515                 1.5363
 IR Inten    --     64.9475                31.2259                11.3955

                     46                     47                     48
                      A                      A                      A
 Frequencies --   1160.8448              1195.3495              1201.0501
 Red. masses --      1.4379                 1.5798                 1.5945
 Frc consts  --      1.1417                 1.3300                 1.3552
 IR Inten    --     28.2537                13.1343                15.1676

                     49                     50                     51
                      A                      A                      A
 Frequencies --   1240.8776              1266.5059              1269.4922
 Red. masses --      1.5898                 1.6963                 2.1641
 Frc consts  --      1.4422                 1.6031                 2.0549
 IR Inten    --     73.2222                94.7189                52.7245

                     52                     53                     54
                      A                      A                      A
 Frequencies --   1277.1375              1302.6453              1322.6054
 Red. masses --      1.6133                 1.2673                 1.3344
 Frc consts  --      1.5504                 1.2670                 1.3753
 IR Inten    --     48.2112                 3.5457                32.6178

                     55                     56                     57
                      A                      A                      A
 Frequencies --   1362.6409              1368.3812              1381.7304
 Red. masses --      1.9305                 1.5520                 1.5386
 Frc consts  --      2.1120                 1.7122                 1.7307
 IR Inten    --    276.7142                 6.0426               182.1783

                     58                     59                     60
                      A                      A                      A
 Frequencies --   1393.9412              1396.4945              1407.5203
 Red. masses --      3.2358                 1.3122                 1.4962
 Frc consts  --      3.7044                 1.5077                 1.7464
 IR Inten    --     29.0880                 3.4021                68.0469

                     61                     62                     63
                      A                      A                      A
 Frequencies --   1437.6328              1456.4766              1478.1874
 Red. masses --      2.8785                 1.1347                 1.4086
 Frc consts  --      3.5052                 1.4181                 1.8134
 IR Inten    --     35.2346                 7.8336                38.8580

                     64                     65                     66
                      A                      A                      A
 Frequencies --   1481.3031              1486.1092              1507.9704
 Red. masses --      1.1440                 1.0937                 3.4539
 Frc consts  --      1.4790                 1.4231                 4.6275
 IR Inten    --      9.3944                 9.6154                25.8565

                     67                     68                     69
                      A                      A                      A
 Frequencies --   1606.6963              1662.1304              1764.8099
 Red. masses --      4.3432                 1.0967                 8.0527
 Frc consts  --      6.6058                 1.7850                14.7771
 IR Inten    --     12.7104                33.3669               433.4145

                     70                     71                     72
                      A                      A                      A
 Frequencies --   1826.7385              3017.4754              3033.1105
 Red. masses --     10.0275                 1.0611                 1.0671
 Frc consts  --     19.7149                 5.6926                 5.7841
 IR Inten    --    260.5976                21.9020                23.6180

                     73                     74                     75
                      A                      A                      A
 Frequencies --   3054.3534              3061.0658              3097.0804
 Red. masses --      1.0790                 1.0844                 1.0857
 Frc consts  --      5.9308                 5.9869                 6.1356
 IR Inten    --     12.6309                31.4807                 8.9878

                     76                     77                     78
                      A                      A                      A
 Frequencies --   3103.0984              3109.6207              3247.6400
 Red. masses --      1.0937                 1.1025                 1.0961
 Frc consts  --      6.2050                 6.2810                 6.8116
 IR Inten    --      2.0821                16.6647                 6.7114

                     79                     80                     81
                      A                      A                      A
 Frequencies --   3265.3108              3517.4519              3539.3056
 Red. masses --      1.0972                 1.0482                 1.0753
 Frc consts  --      6.8923                 7.6407                 7.9361
 IR Inten    --      1.2625                 1.8441                23.3081

                     82                     83                     84
                      A                      A                      A
 Frequencies --   3589.3821              3616.0813              3636.5227
 Red. masses --      1.0827                 1.0952                 1.0647
 Frc consts  --      8.2186                 8.4374                 8.2960
 IR Inten    --    204.0427                 6.6905               202.3931

 - Thermochemistry -
 -------------------
 Temperature   298.150 Kelvin.  Pressure   1.00000 Atm.
 Atom     1 has atomic number  8 and mass  15.99491

 Molecular mass:   226.10659 amu.
 Principal axes and moments of inertia in atomic units:
                           1         2         3
     Eigenvalues --  2332.720376560.998097869.81080
           X            0.97745  -0.18693  -0.09823
           Y            0.05121  -0.24146   0.96906
           Z            0.20486   0.95224   0.22644
 This molecule is an asymmetric top.
 Rotational symmetry number  1.
 Warning -- assumption of classical behavior for rotation
           may cause significant error
 Rotational temperatures (Kelvin)      0.03713     0.01320     0.01101
 Rotational constants (GHZ):           0.77366     0.27507     0.22932
 Zero-point vibrational energy     643579.9 (Joules/Mol)
                                  153.81928 (Kcal/Mol)
 Warning -- explicit consideration of  21 degrees of freedom as
           vibrations may cause significant error
 Vibrational temperatures:     27.48    56.98    72.64    90.70   117.35
          (Kelvin)            129.03   194.74   201.43   215.52   298.14
                              353.26   411.57   445.40   494.75   505.70
                              512.94   595.70   630.47   755.76   799.13
                              861.72   894.35   927.84   961.47   988.16
                             1032.19  1053.67  1063.16  1134.77  1165.59
                             1176.47  1181.94  1197.78  1220.97  1272.79
                             1329.37  1343.43  1409.76  1465.99  1473.90
                             1505.35  1595.32  1616.78  1623.70  1658.20
                             1670.19  1719.84  1728.04  1785.34  1822.22
                             1826.51  1837.51  1874.21  1902.93  1960.53
                             1968.79  1988.00  2005.57  2009.24  2025.11
                             2068.43  2095.54  2126.78  2131.26  2138.18
                             2169.63  2311.67  2391.43  2539.16  2628.27
                             4341.47  4363.96  4394.53  4404.19  4456.00
                             4464.66  4474.05  4672.62  4698.05  5060.82
                             5092.26  5164.31  5202.73  5232.14

 Zero-point correction=                           0.245127 (Hartree/Particle)
 Thermal correction to Energy=                    0.260820
 Thermal correction to Enthalpy=                  0.261764
 Thermal correction to Gibbs Free Energy=         0.199630
 Sum of electronic and zero-point Energies=           -795.899486
 Sum of electronic and thermal Energies=              -795.883792
 Sum of electronic and thermal Enthalpies=            -795.882848
 Sum of electronic and thermal Free Energies=         -795.944983

                     E (Thermal)             CV                S
                      KCal/Mol        Cal/Mol-Kelvin    Cal/Mol-Kelvin
 Total                  163.667             57.910            130.773
 Electronic               0.000              0.000              0.000
 Translational            0.889              2.981             42.150
 Rotational               0.889              2.981             33.154
 Vibrational            161.890             51.948             55.469
 Vibration     1          0.593              1.986              6.726
 Vibration     2          0.594              1.981              5.279
 Vibration     3          0.595              1.977              4.798
 Vibration     4          0.597              1.972              4.360
 Vibration     5          0.600              1.962              3.853
 Vibration     6          0.602              1.956              3.667
 Vibration     7          0.613              1.918              2.869
 Vibration     8          0.615              1.913              2.804
 Vibration     9          0.618              1.903              2.675
 Vibration    10          0.641              1.830              2.068
 Vibration    11          0.660              1.770              1.762
 Vibration    12          0.684              1.700              1.497
 Vibration    13          0.699              1.655              1.365
 Vibration    14          0.723              1.588              1.194
 Vibration    15          0.728              1.572              1.160
 Vibration    16          0.732              1.562              1.137
 Vibration    17          0.778              1.440              0.912
 Vibration    18          0.798              1.387              0.832
 Vibration    19          0.880              1.194              0.598
 Vibration    20          0.911              1.128              0.533
 Vibration    21          0.957              1.034              0.452

 Optimization completed.
    -- Stationary point found.
 Normal termination of Gaussian 09 at Wed Jul 28 23:41:40 2021.
