 Gaussian 09, Revision D.01,
 Gaussian 09:  ES64L-G09RevD.01 24-Apr-2013

 ----------------------------------------------------------------------
 # B3LYP/6-31+G(d,p) opt=calcfc freq=noraman nosymm integral(ultrafineg
 rid)
 ----------------------------------------------------------------------

 ------------------------------------------------------------
 Candidate Structure: Conf:490 OPT and FREQ calc in gas phase
 ------------------------------------------------------------
 Symbolic Z-matrix:
 Charge =  0 Multiplicity = 1

 SCF Done:  E(RB3LYP) =  -796.145857771     A.U. after   15 cycles
 SCF Done:  E(RB3LYP) =  -796.149213465     A.U. after   12 cycles
 SCF Done:  E(RB3LYP) =  -796.149529243     A.U. after   15 cycles
 SCF Done:  E(RB3LYP) =  -796.148625138     A.U. after   15 cycles
 SCF Done:  E(RB3LYP) =  -796.150016698     A.U. after   12 cycles
 SCF Done:  E(RB3LYP) =  -796.150132216     A.U. after   12 cycles
 SCF Done:  E(RB3LYP) =  -796.150236014     A.U. after   12 cycles
 SCF Done:  E(RB3LYP) =  -796.150279457     A.U. after   11 cycles
 SCF Done:  E(RB3LYP) =  -796.150291503     A.U. after   12 cycles
 SCF Done:  E(RB3LYP) =  -796.150292699     A.U. after   10 cycles
 SCF Done:  E(RB3LYP) =  -796.150292823     A.U. after    9 cycles
 Optimization completed.
    -- Stationary point found.
 Normal termination of Gaussian 09 at Wed Jul 28 23:27:04 2021.

 ----------------------------------------------------------------------
 #N Geom=AllCheck Guess=TCheck SCRF=Check GenChk RB3LYP/6-31+G(d,p) Fre
 q
 ----------------------------------------------------------------------

 Structure from the checkpoint file:  "conf-490.chk"
 ------------------------------------------------------------
 Candidate Structure: Conf:490 OPT and FREQ calc in gas phase
 ------------------------------------------------------------
 Charge =  0 Multiplicity = 1

                          Input orientation:
 ---------------------------------------------------------------------
 Center     Atomic      Atomic             Coordinates (Angstroms)
 Number     Number       Type             X           Y           Z
 ---------------------------------------------------------------------
      1          8           0        0.888649    0.612379   -2.321961
      2          6           0        1.577252    0.205483   -1.382398
      3          7           0        1.075947    0.049875   -0.125874
      4          6           0       -0.282689    0.437768    0.180787
      5          6           0       -0.382839    0.746570    1.678303
      6          8           0       -1.508169    1.377580    2.078523
      7          8           0        0.469085    0.443354    2.481724
      8          6           0       -1.299893   -0.666653   -0.257859
      9          6           0       -2.741128   -0.285821   -0.099807
     10          6           0       -3.520236    0.688859   -0.694144
     11          7           0       -4.808349    0.664448   -0.200261
     12          6           0       -4.823614   -0.309896    0.683605
     13          7           0       -3.600677   -0.915257    0.784741
     14          6           0        3.045048   -0.174410   -1.580436
     15          6           0        4.003794    0.154818   -0.426079
     16          7           0        3.708489   -0.661743    0.763258
     17          1           0        1.704113   -0.256722    0.622508
     18          1           0       -0.519827    1.343375   -0.391235
     19          1           0       -2.127313    1.498022    1.335648
     20          1           0       -1.079811   -0.867577   -1.310272
     21          1           0       -1.082197   -1.583119    0.302373
     22          1           0       -3.227215    1.385806   -1.467747
     23          1           0       -5.675335   -0.619625    1.272785
     24          1           0       -3.357675   -1.669721    1.410799
     25          1           0        3.087335   -1.251475   -1.797275
     26          1           0        3.366432    0.337761   -2.491304
     27          1           0        5.036854    0.035511   -0.786343
     28          1           0        3.885797    1.206645   -0.142841
     29          1           0        4.175641   -0.302564    1.590694
     30          1           0        4.012345   -1.623787    0.634696
 ---------------------------------------------------------------------

 SCF Done:  E(RB3LYP) =  -796.150292823     A.U. after    1 cycles

 Alpha  occ. eigenvalues --  -19.21568 -19.16048 -19.12571 -14.41519 -14.36506
 Alpha  occ. eigenvalues --  -14.34934 -14.33597 -10.34008 -10.29629 -10.26283
 Alpha  occ. eigenvalues --  -10.25937 -10.24611 -10.23766 -10.22788 -10.21817
 Alpha  occ. eigenvalues --  -10.20769  -1.12061  -1.04340  -1.03879  -1.03499
 Alpha  occ. eigenvalues --   -0.93594  -0.90858  -0.89171  -0.81845  -0.77667
 Alpha  occ. eigenvalues --   -0.74688  -0.69000  -0.64970  -0.63446  -0.63101
 Alpha  occ. eigenvalues --   -0.61012  -0.58652  -0.57152  -0.54962  -0.52337
 Alpha  occ. eigenvalues --   -0.50465  -0.48660  -0.48232  -0.47017  -0.46809
 Alpha  occ. eigenvalues --   -0.45778  -0.44885  -0.44189  -0.43876  -0.42521
 Alpha  occ. eigenvalues --   -0.42188  -0.40969  -0.40394  -0.39953  -0.38875
 Alpha  occ. eigenvalues --   -0.38024  -0.35696  -0.33770  -0.30362  -0.29661
 Alpha  occ. eigenvalues --   -0.28733  -0.27433  -0.27077  -0.25906  -0.24489
 Alpha virt. eigenvalues --   -0.02235  -0.01351  -0.00946  -0.00058   0.00717
 Alpha virt. eigenvalues --    0.00886   0.01632   0.01863   0.02541   0.02760
 Alpha virt. eigenvalues --    0.03313   0.04078   0.04456   0.05086   0.06009

 Mulliken charges:
               1
     1  O   -0.502074
     2  C    0.294224
     3  N   -0.198743
     4  C   -0.588157
     5  C    0.505712
     6  O   -0.342602
     7  O   -0.444607
     8  C   -0.573621
     9  C    0.188586
    10  C    0.070072
    11  N   -0.278976
    12  C    0.212564
    13  N   -0.330055
    14  C   -0.208060
    15  C   -0.212785
    16  N   -0.708122
    17  H    0.389482
    18  H    0.190755
    19  H    0.370945
    20  H    0.207717
    21  H    0.144761
    22  H    0.144564
    23  H    0.141496
    24  H    0.305737
    25  H    0.162303
    26  H    0.176300
    27  H    0.136386
    28  H    0.154780
    29  H    0.299459
    30  H    0.291961
 Sum of Mulliken charges =   0.00000

 Dipole moment (field-independent basis, Debye):
    X=              3.3032    Y=             -4.0345    Z=              1.2378  Tot=              5.3592
 Quadrupole moment (field-independent basis, Debye-Ang):
   XX=            -85.1310   YY=            -90.4960   ZZ=           -112.7160
   XY=              7.9851   XZ=             -7.6498   YZ=             -3.5986

  Exact polarizability: 186.313  -8.325 112.451  -5.403  -9.367 135.301
 Approx polarizability: 230.089 -18.858 181.794   2.728 -25.944 206.952

                      1                      2                      3
                      A                      A                      A
 Frequencies --     22.4898                35.9763                45.9688
 Red. masses --      4.6509                 5.1484                 4.7274
 Frc consts  --      0.0014                 0.0039                 0.0059
 IR Inten    --      0.8738                 8.2230                 2.9376

                      4                      5                      6
                      A                      A                      A
 Frequencies --     58.1345                78.5059                84.2540
 Red. masses --      4.3827                 5.9284                 4.8645
 Frc consts  --      0.0087                 0.0215                 0.0203
 IR Inten    --      6.3290                 2.7398                 2.9999

                      7                      8                      9
                      A                      A                      A
 Frequencies --     99.2419               118.0648               173.3629
 Red. masses --      6.6868                 4.2707                 5.1699
 Frc consts  --      0.0388                 0.0351                 0.0915
 IR Inten    --      7.8131                 5.4372                 8.0390

                     10                     11                     12
                      A                      A                      A
 Frequencies --    197.5865               220.8796               286.2204
 Red. masses --      2.3088                 5.0819                 8.0184
 Frc consts  --      0.0531                 0.1461                 0.3870
 IR Inten    --      7.2137                 5.1889                 0.7211

                     13                     14                     15
                      A                      A                      A
 Frequencies --    295.3536               330.6445               344.2854
 Red. masses --      1.2971                 2.2025                 6.1569
 Frc consts  --      0.0667                 0.1419                 0.4300
 IR Inten    --      9.4324                 6.8785                 8.2715

                     16                     17                     18
                      A                      A                      A
 Frequencies --    344.9447               390.9897               472.7296
 Red. masses --      3.5788                 4.3887                 2.7831
 Frc consts  --      0.2509                 0.3953                 0.3664
 IR Inten    --      8.0247                19.9553                13.3213

                     19                     20                     21
                      A                      A                      A
 Frequencies --    506.4122               542.3512               586.6259
 Red. masses --      3.0914                 1.4221                 1.3293
 Frc consts  --      0.4671                 0.2465                 0.2695
 IR Inten    --     26.7051                89.3015                89.1345

                     22                     23                     24
                      A                      A                      A
 Frequencies --    599.0278               639.3412               662.2670
 Red. masses --      3.9979                 3.2992                 3.1477
 Frc consts  --      0.8452                 0.7946                 0.8134
 IR Inten    --      0.7973                 2.7209                21.3260

                     25                     26                     27
                      A                      A                      A
 Frequencies --    675.6867               689.6414               730.3576
 Red. masses --      3.0426                 3.1958                 3.4317
 Frc consts  --      0.8184                 0.8955                 1.0785
 IR Inten    --      8.5995                27.2749                 7.2805

                     28                     29                     30
                      A                      A                      A
 Frequencies --    757.7764               797.3790               813.4436
 Red. masses --      3.2138                 1.4300                 1.6467
 Frc consts  --      1.0873                 0.5357                 0.6420
 IR Inten    --      4.5513                39.5078                29.4951

                     31                     32                     33
                      A                      A                      A
 Frequencies --    817.8380               838.4309               856.7141
 Red. masses --      1.8076                 1.3814                 1.3804
 Frc consts  --      0.7123                 0.5721                 0.5969
 IR Inten    --      4.5846               102.6687                28.1545

                     34                     35                     36
                      A                      A                      A
 Frequencies --    889.1767               915.3439               930.4828
 Red. masses --      2.7370                 2.0089                 5.9176
 Frc consts  --      1.2750                 0.9917                 3.0186
 IR Inten    --     11.2956                17.5535                 8.4316

                     37                     38                     39
                      A                      A                      A
 Frequencies --    973.0822              1000.2522              1011.2254
 Red. masses --      2.1550                 1.6911                 3.2251
 Frc consts  --      1.2023                 0.9969                 1.9431
 IR Inten    --     17.2353                24.9733                 2.0118

                     40                     41                     42
                      A                      A                      A
 Frequencies --   1024.2246              1033.2036              1084.2159
 Red. masses --      4.3005                 2.9044                 2.6216
 Frc consts  --      2.6580                 1.8268                 1.8157
 IR Inten    --      7.8585                 7.5932                 8.3342

                     43                     44                     45
                      A                      A                      A
 Frequencies --   1115.4088              1141.3269              1146.8959
 Red. masses --      1.6314                 2.2767                 2.0809
 Frc consts  --      1.1959                 1.7474                 1.6127
 IR Inten    --     16.9381                10.7572                17.4353

                     46                     47                     48
                      A                      A                      A
 Frequencies --   1158.2874              1162.1191              1197.2715
 Red. masses --      1.7703                 1.4481                 2.1191
 Frc consts  --      1.3994                 1.1523                 1.7897
 IR Inten    --     18.1622                 5.2190                 9.9652

                     49                     50                     51
                      A                      A                      A
 Frequencies --   1249.7268              1258.4311              1280.9014
 Red. masses --      1.5698                 1.8722                 1.4131
 Frc consts  --      1.4445                 1.7468                 1.3660
 IR Inten    --     25.4782                25.7197                 4.3266

                     52                     53                     54
                      A                      A                      A
 Frequencies --   1294.3728              1307.9639              1313.9537
 Red. masses --      1.3272                 1.4830                 1.3463
 Frc consts  --      1.3101                 1.4948                 1.3694
 IR Inten    --     11.8598               121.1365                 4.0666

                     55                     56                     57
                      A                      A                      A
 Frequencies --   1320.5205              1357.5629              1369.2766
 Red. masses --      1.5642                 1.3677                 1.3989
 Frc consts  --      1.6071                 1.4851                 1.5454
 IR Inten    --     28.7800                94.2576                15.2115

                     58                     59                     60
                      A                      A                      A
 Frequencies --   1397.0568              1404.6115              1419.2490
 Red. masses --      2.3084                 2.0778                 1.4210
 Frc consts  --      2.6546                 2.4152                 1.6864
 IR Inten    --     58.4811                55.2246                20.6802

                     61                     62                     63
                      A                      A                      A
 Frequencies --   1437.2322              1466.9902              1487.8733
 Red. masses --      3.1742                 1.0827                 1.1789
 Frc consts  --      3.8631                 1.3729                 1.5377
 IR Inten    --     20.7017                14.3564                 9.4917

                     64                     65                     66
                      A                      A                      A
 Frequencies --   1499.0694              1513.6238              1552.0630
 Red. masses --      3.4611                 1.0950                 2.0638
 Frc consts  --      4.5825                 1.4781                 2.9292
 IR Inten    --     22.6702                11.5403               382.4246

                     67                     68                     69
                      A                      A                      A
 Frequencies --   1602.3069              1660.0686              1722.6815
 Red. masses --      4.0914                 1.0913                 9.1060
 Frc consts  --      6.1889                 1.7719                15.9217
 IR Inten    --      8.6057                40.8784               330.8452

                     70                     71                     72
                      A                      A                      A
 Frequencies --   1834.0685              2994.8433              3031.2831
 Red. masses --     10.0217                 1.0714                 1.0704
 Frc consts  --     19.8620                 5.6619                 5.7949
 IR Inten    --    286.9460                85.7440                 9.5765

                     73                     74                     75
                      A                      A                      A
 Frequencies --   3049.9947              3061.4628              3079.2755
 Red. masses --      1.0742                 1.0715                 1.0925
 Frc consts  --      5.8877                 5.9167                 6.1035
 IR Inten    --      5.7150                22.5279                24.8729

                     76                     77                     78
                      A                      A                      A
 Frequencies --   3111.9602              3116.3996              3254.8625
 Red. masses --      1.1031                 1.0933                 1.0961
 Frc consts  --      6.2944                 6.2561                 6.8419
 IR Inten    --      1.9583                 9.2006                 3.4299

                     79                     80                     81
                      A                      A                      A
 Frequencies --   3267.8296              3406.8615              3511.2406
 Red. masses --      1.0976                 1.0821                 1.0502
 Frc consts  --      6.9055                 7.3999                 7.6285
 IR Inten    --      1.0463               339.7146                 0.3374

                     82                     83                     84
                      A                      A                      A
 Frequencies --   3601.0595              3652.8597              3681.1769
 Red. masses --      1.0937                 1.0816                 1.0668
 Frc consts  --      8.3566                 8.5034                 8.5177
 IR Inten    --      6.2801                52.7209               203.6921

 - Thermochemistry -
 -------------------
 Temperature   298.150 Kelvin.  Pressure   1.00000 Atm.
 Atom     1 has atomic number  8 and mass  15.99491

 Molecular mass:   226.10659 amu.
 Principal axes and moments of inertia in atomic units:
                           1         2         3
     Eigenvalues --  1679.481136711.148257689.11890
           X            0.99206   0.12516   0.01228
           Y           -0.02097   0.06836   0.99744
           Z           -0.12400   0.98978  -0.07044
 This molecule is an asymmetric top.
 Rotational symmetry number  1.
 Warning -- assumption of classical behavior for rotation
           may cause significant error
 Rotational temperatures (Kelvin)      0.05157     0.01291     0.01126
 Rotational constants (GHZ):           1.07458     0.26892     0.23471
 Zero-point vibrational energy     642790.4 (Joules/Mol)
                                  153.63058 (Kcal/Mol)
 Warning -- explicit consideration of  22 degrees of freedom as
           vibrations may cause significant error
 Vibrational temperatures:     32.36    51.76    66.14    83.64   112.95
          (Kelvin)            121.22   142.79   169.87   249.43   284.28
                              317.80   411.81   424.95   475.72   495.35
                              496.30   562.55   680.15   728.61   780.32
                              844.02   861.87   919.87   952.85   972.16
                              992.24  1050.82  1090.27  1147.25  1170.36
                             1176.69  1206.31  1232.62  1279.33  1316.97
                             1338.76  1400.05  1439.14  1454.93  1473.63
                             1486.55  1559.94  1604.82  1642.11  1650.13
                             1666.52  1672.03  1722.60  1798.08  1810.60
                             1842.93  1862.31  1881.87  1890.48  1899.93
                             1953.23  1970.08  2010.05  2020.92  2041.98
                             2067.85  2110.67  2140.72  2156.82  2177.76
                             2233.07  2305.36  2388.47  2478.55  2638.81
                             4308.91  4361.33  4388.26  4404.76  4430.39
                             4477.41  4483.80  4683.02  4701.67  4901.71
                             5051.89  5181.11  5255.64  5296.39

 Zero-point correction=                           0.244826 (Hartree/Particle)
 Thermal correction to Energy=                    0.260743
 Thermal correction to Enthalpy=                  0.261687
 Thermal correction to Gibbs Free Energy=         0.198934
 Sum of electronic and zero-point Energies=           -795.905467
 Sum of electronic and thermal Energies=              -795.889550
 Sum of electronic and thermal Enthalpies=            -795.888606
 Sum of electronic and thermal Free Energies=         -795.951359

                     E (Thermal)             CV                S
                      KCal/Mol        Cal/Mol-Kelvin    Cal/Mol-Kelvin
 Total                  163.619             58.064            132.074
 Electronic               0.000              0.000              0.000
 Translational            0.889              2.981             42.150
 Rotational               0.889              2.981             32.827
 Vibrational            161.841             52.102             57.097
 Vibration     1          0.593              1.985              6.401
 Vibration     2          0.594              1.982              5.469
 Vibration     3          0.595              1.979              4.984
 Vibration     4          0.596              1.974              4.520
 Vibration     5          0.600              1.964              3.928
 Vibration     6          0.601              1.960              3.789
 Vibration     7          0.604              1.950              3.469
 Vibration     8          0.608              1.934              3.132
 Vibration     9          0.627              1.875              2.399
 Vibration    10          0.637              1.843              2.155
 Vibration    11          0.648              1.809              1.952
 Vibration    12          0.684              1.699              1.496
 Vibration    13          0.690              1.682              1.443
 Vibration    14          0.713              1.614              1.257
 Vibration    15          0.723              1.587              1.192
 Vibration    16          0.723              1.586              1.189
 Vibration    17          0.759              1.489              0.996
 Vibration    18          0.830              1.311              0.730
 Vibration    19          0.862              1.236              0.642
 Vibration    20          0.897              1.156              0.560
 Vibration    21          0.944              1.060              0.473
 Vibration    22          0.957              1.034              0.451

 Optimization completed.
    -- Stationary point found.
 Normal termination of Gaussian 09 at Thu Jul 29 00:07:29 2021.
