 Gaussian 09, Revision D.01,
 Gaussian 09:  ES64L-G09RevD.01 24-Apr-2013

 ----------------------------------------------------------------------
 # B3LYP/6-31+G(d,p) opt=calcfc freq=noraman nosymm integral(ultrafineg
 rid)
 ----------------------------------------------------------------------

 ------------------------------------------------------------
 Candidate Structure: Conf:591 OPT and FREQ calc in gas phase
 ------------------------------------------------------------
 Symbolic Z-matrix:
 Charge =  0 Multiplicity = 1

 SCF Done:  E(RB3LYP) =  -796.148383646     A.U. after   15 cycles
 SCF Done:  E(RB3LYP) =  -796.151076378     A.U. after   13 cycles
 SCF Done:  E(RB3LYP) =  -796.151121316     A.U. after   14 cycles
 SCF Done:  E(RB3LYP) =  -796.151438474     A.U. after   14 cycles
 SCF Done:  E(RB3LYP) =  -796.151760020     A.U. after   12 cycles
 SCF Done:  E(RB3LYP) =  -796.151580352     A.U. after   15 cycles
 SCF Done:  E(RB3LYP) =  -796.152000467     A.U. after   13 cycles
 SCF Done:  E(RB3LYP) =  -796.153798420     A.U. after   15 cycles
 SCF Done:  E(RB3LYP) =  -796.145079120     A.U. after   15 cycles
 SCF Done:  E(RB3LYP) =  -796.154878956     A.U. after   12 cycles
 SCF Done:  E(RB3LYP) =  -796.155438994     A.U. after   10 cycles
 SCF Done:  E(RB3LYP) =  -796.155745006     A.U. after   11 cycles
 SCF Done:  E(RB3LYP) =  -796.155958074     A.U. after   12 cycles
 SCF Done:  E(RB3LYP) =  -796.155982825     A.U. after   12 cycles
 SCF Done:  E(RB3LYP) =  -796.156156019     A.U. after   12 cycles
 SCF Done:  E(RB3LYP) =  -796.156175691     A.U. after   11 cycles
 SCF Done:  E(RB3LYP) =  -796.156177427     A.U. after   10 cycles
 SCF Done:  E(RB3LYP) =  -796.156177556     A.U. after    8 cycles
 SCF Done:  E(RB3LYP) =  -796.156177573     A.U. after    7 cycles
 Optimization completed.
    -- Stationary point found.
 Normal termination of Gaussian 09 at Thu Jul 29 00:06:09 2021.

 ----------------------------------------------------------------------
 #N Geom=AllCheck Guess=TCheck SCRF=Check GenChk RB3LYP/6-31+G(d,p) Fre
 q
 ----------------------------------------------------------------------

 Structure from the checkpoint file:  "conf-591.chk"
 ------------------------------------------------------------
 Candidate Structure: Conf:591 OPT and FREQ calc in gas phase
 ------------------------------------------------------------
 Charge =  0 Multiplicity = 1

                          Input orientation:
 ---------------------------------------------------------------------
 Center     Atomic      Atomic             Coordinates (Angstroms)
 Number     Number       Type             X           Y           Z
 ---------------------------------------------------------------------
      1          8           0       -0.823643    0.209627   -1.029184
      2          6           0       -1.275549    0.091303    0.118008
      3          7           0       -0.488036   -0.237605    1.173660
      4          6           0        0.932765   -0.518443    1.044876
      5          6           0        1.356304   -1.262443    2.300574
      6          8           0        2.595581   -1.772879    2.184565
      7          8           0        0.678581   -1.372801    3.303211
      8          6           0        1.815755    0.774481    0.833773
      9          6           0        2.565260    0.807110   -0.457547
     10          6           0        3.906819    0.927135   -0.752863
     11          7           0        4.110253    0.935009   -2.114974
     12          6           0        2.906102    0.816284   -2.642044
     13          7           0        1.936268    0.739508   -1.685728
     14          6           0       -2.747136    0.312220    0.421038
     15          6           0       -3.655559   -0.548981   -0.471167
     16          7           0       -5.061115   -0.259362   -0.167568
     17          1           0       -0.890759   -0.373260    2.093570
     18          1           0        1.089649   -1.183924    0.189793
     19          1           0        2.818346   -2.208291    3.025445
     20          1           0        2.541479    0.871663    1.646118
     21          1           0        1.135834    1.630482    0.915981
     22          1           0        4.731725    1.009884   -0.058025
     23          1           0        2.682092    0.780164   -3.699138
     24          1           0        0.932294    0.605928   -1.798288
     25          1           0       -2.981544    0.119848    1.472777
     26          1           0       -2.956803    1.372661    0.228439
     27          1           0       -3.478791   -1.607699   -0.248528
     28          1           0       -3.375103   -0.386025   -1.521025
     29          1           0       -5.675098   -0.933095   -0.616061
     30          1           0       -5.325947    0.661639   -0.509048
 ---------------------------------------------------------------------

 SCF Done:  E(RB3LYP) =  -796.156177573     A.U. after    1 cycles

 Alpha  occ. eigenvalues --  -19.23999 -19.18713 -19.15020 -14.39435 -14.37951
 Alpha  occ. eigenvalues --  -14.33722 -14.31115 -10.36320 -10.31940 -10.27471
 Alpha  occ. eigenvalues --  -10.23404 -10.23101 -10.22589 -10.21938 -10.21481
 Alpha  occ. eigenvalues --  -10.19517  -1.14962  -1.06616  -1.05943  -1.00740
 Alpha  occ. eigenvalues --   -0.95780  -0.90043  -0.86497  -0.82040  -0.77685
 Alpha  occ. eigenvalues --   -0.74975  -0.69091  -0.66630  -0.62752  -0.61353
 Alpha  occ. eigenvalues --   -0.60428  -0.58390  -0.54912  -0.54571  -0.52582
 Alpha  occ. eigenvalues --   -0.50915  -0.50772  -0.49604  -0.48896  -0.46940
 Alpha  occ. eigenvalues --   -0.46196  -0.45347  -0.44048  -0.43426  -0.42293
 Alpha  occ. eigenvalues --   -0.41402  -0.40394  -0.40143  -0.39868  -0.39409
 Alpha  occ. eigenvalues --   -0.38560  -0.36229  -0.36066  -0.32262  -0.29408
 Alpha  occ. eigenvalues --   -0.28947  -0.27491  -0.26408  -0.25518  -0.22299
 Alpha virt. eigenvalues --   -0.03775  -0.01977  -0.01231  -0.00459   0.00393
 Alpha virt. eigenvalues --    0.01283   0.01484   0.02213   0.02696   0.03825
 Alpha virt. eigenvalues --    0.03909   0.04521   0.04705   0.05349   0.06073

 Mulliken charges:
               1
     1  O   -0.562506
     2  C    0.539966
     3  N   -0.250033
     4  C   -0.656120
     5  C    0.653696
     6  O   -0.403038
     7  O   -0.454882
     8  C   -0.624524
     9  C    0.413646
    10  C   -0.157378
    11  N   -0.299068
    12  C    0.257242
    13  N   -0.325807
    14  C   -0.294856
    15  C   -0.281198
    16  N   -0.599063
    17  H    0.329429
    18  H    0.193801
    19  H    0.381822
    20  H    0.161044
    21  H    0.178900
    22  H    0.121266
    23  H    0.131186
    24  H    0.362986
    25  H    0.150881
    26  H    0.166508
    27  H    0.139927
    28  H    0.160594
    29  H    0.287552
    30  H    0.278029
 Sum of Mulliken charges =   0.00000

 Dipole moment (field-independent basis, Debye):
    X=             -3.8706    Y=             -1.1709    Z=              2.3327  Tot=              4.6684
 Quadrupole moment (field-independent basis, Debye-Ang):
   XX=           -106.6554   YY=            -92.8990   ZZ=            -98.5952
   XY=             -7.9074   XZ=             24.0740   YZ=              1.6642

  Exact polarizability: 176.563   2.473 105.618  -7.920 -12.514 155.794
 Approx polarizability: 226.899  -0.293 154.550 -12.162  -9.927 234.488

                      1                      2                      3
                      A                      A                      A
 Frequencies --     25.6430                38.2641                54.7041
 Red. masses --      3.5190                 5.7727                 4.6722
 Frc consts  --      0.0014                 0.0050                 0.0082
 IR Inten    --      1.2270                 1.5599                 1.5564

                      4                      5                      6
                      A                      A                      A
 Frequencies --     59.1675                75.3199                81.5499
 Red. masses --      7.7482                 2.6205                 4.1050
 Frc consts  --      0.0160                 0.0088                 0.0161
 IR Inten    --      1.1443                 1.9757                 0.9014

                      7                      8                      9
                      A                      A                      A
 Frequencies --     93.4853               128.2160               138.3252
 Red. masses --      6.4886                 5.7989                 4.2196
 Frc consts  --      0.0334                 0.0562                 0.0476
 IR Inten    --      9.4747                 3.5651                 9.3336

                     10                     11                     12
                      A                      A                      A
 Frequencies --    188.1979               226.8508               238.8311
 Red. masses --      4.9760                 2.8258                 1.5312
 Frc consts  --      0.1038                 0.0857                 0.0515
 IR Inten    --      1.9259                 9.0360                48.5188

                     13                     14                     15
                      A                      A                      A
 Frequencies --    280.7951               290.5539               313.4330
 Red. masses --      3.3621                 3.2005                 3.7407
 Frc consts  --      0.1562                 0.1592                 0.2165
 IR Inten    --     12.6520                 5.9516                 3.9564

                     16                     17                     18
                      A                      A                      A
 Frequencies --    353.5025               392.4600               424.7695
 Red. masses --      6.5711                 4.1942                 3.4844
 Frc consts  --      0.4838                 0.3806                 0.3704
 IR Inten    --      0.6009                 6.3427                 3.7327

                     19                     20                     21
                      A                      A                      A
 Frequencies --    531.8077               565.6099               593.4278
 Red. masses --      2.6736                 1.4718                 1.4722
 Frc consts  --      0.4455                 0.2774                 0.3055
 IR Inten    --     65.3725                35.8439                83.5246

                     22                     23                     24
                      A                      A                      A
 Frequencies --    630.3043               640.8020               649.7927
 Red. masses --      3.9679                 3.7205                 2.2137
 Frc consts  --      0.9288                 0.9001                 0.5507
 IR Inten    --     26.8810                 7.2437                 5.7572

                     25                     26                     27
                      A                      A                      A
 Frequencies --    670.1004               714.4089               752.7742
 Red. masses --      3.6088                 3.4206                 5.2118
 Frc consts  --      0.9548                 1.0286                 1.7401
 IR Inten    --     49.1764                22.5854                12.1052

                     28                     29                     30
                      A                      A                      A
 Frequencies --    775.3217               778.1069               795.9495
 Red. masses --      1.6462                 1.7336                 1.2716
 Frc consts  --      0.5830                 0.6184                 0.4746
 IR Inten    --     38.9107                17.3046                21.2303

                     31                     32                     33
                      A                      A                      A
 Frequencies --    816.9281               835.1759               841.7136
 Red. masses --      1.3989                 1.3216                 1.3619
 Frc consts  --      0.5501                 0.5431                 0.5685
 IR Inten    --     26.7207               135.3543                27.9401

                     34                     35                     36
                      A                      A                      A
 Frequencies --    865.9747               934.9380               942.9571
 Red. masses --      2.4264                 6.0170                 3.5878
 Frc consts  --      1.0721                 3.0988                 1.8796
 IR Inten    --     19.0933                13.0014                 6.7516

                     37                     38                     39
                      A                      A                      A
 Frequencies --    972.6811               983.8214              1021.4648
 Red. masses --      2.9660                 2.6571                 3.4347
 Frc consts  --      1.6533                 1.5152                 2.1115
 IR Inten    --      2.4134                 3.2914                 6.4282

                     40                     41                     42
                      A                      A                      A
 Frequencies --   1022.8778              1049.8224              1085.4143
 Red. masses --      3.5480                 2.2673                 2.8094
 Frc consts  --      2.1872                 1.4723                 1.9501
 IR Inten    --     19.7825                 1.5725                53.6211

                     43                     44                     45
                      A                      A                      A
 Frequencies --   1128.5774              1135.2253              1152.8965
 Red. masses --      2.7885                 1.7957                 1.8438
 Frc consts  --      2.0926                 1.3635                 1.4439
 IR Inten    --     30.0590                53.5023                10.2887

                     46                     47                     48
                      A                      A                      A
 Frequencies --   1154.1807              1180.1900              1208.7472
 Red. masses --      1.3978                 2.3784                 1.2503
 Frc consts  --      1.0971                 1.9518                 1.0763
 IR Inten    --     29.9506               165.0007                 7.3537

                     49                     50                     51
                      A                      A                      A
 Frequencies --   1237.6154              1268.7653              1276.2432
 Red. masses --      1.5226                 1.9505                 1.4980
 Frc consts  --      1.3740                 1.8499                 1.4376
 IR Inten    --     22.1017                 6.0478                 6.7883

                     52                     53                     54
                      A                      A                      A
 Frequencies --   1287.4259              1300.0143              1314.4092
 Red. masses --      1.3711                 1.3409                 1.2326
 Frc consts  --      1.3389                 1.3352                 1.2547
 IR Inten    --     14.7996                 4.0609                 1.0364

                     55                     56                     57
                      A                      A                      A
 Frequencies --   1327.6851              1358.2498              1363.0702
 Red. masses --      1.3356                 1.4542                 1.4407
 Frc consts  --      1.3871                 1.5806                 1.5771
 IR Inten    --      6.0960                44.3926                 2.6890

                     58                     59                     60
                      A                      A                      A
 Frequencies --   1391.6270              1415.1734              1424.0731
 Red. masses --      3.8679                 2.3854                 1.4486
 Frc consts  --      4.4134                 2.8147                 1.7309
 IR Inten    --     20.5045                94.9068                59.4319

                     61                     62                     63
                      A                      A                      A
 Frequencies --   1448.5096              1480.3709              1483.9865
 Red. masses --      2.4860                 1.1402                 1.1170
 Frc consts  --      3.0733                 1.4723                 1.4493
 IR Inten    --     71.1723                14.5016                10.9988

                     64                     65                     66
                      A                      A                      A
 Frequencies --   1509.1498              1523.4421              1545.0709
 Red. masses --      3.5080                 1.0856                 2.4104
 Frc consts  --      4.7074                 1.4845                 3.3903
 IR Inten    --     31.0565                 2.1301               321.2180

                     67                     68                     69
                      A                      A                      A
 Frequencies --   1613.8173              1666.2993              1711.0290
 Red. masses --      4.1816                 1.0908                 8.4449
 Frc consts  --      6.4166                 1.7845                14.5666
 IR Inten    --     14.3113                38.1599               252.6214

                     70                     71                     72
                      A                      A                      A
 Frequencies --   1804.8174              3017.2043              3041.4759
 Red. masses --      9.7825                 1.0639                 1.0654
 Frc consts  --     18.7744                 5.7065                 5.8068
 IR Inten    --    320.8534                31.2619                 9.7099

                     73                     74                     75
                      A                      A                      A
 Frequencies --   3049.9951              3070.0433              3082.9809
 Red. masses --      1.0655                 1.0958                 1.0844
 Frc consts  --      5.8397                 6.0853                 6.0724
 IR Inten    --     19.7899                18.8734                 7.4079

                     76                     77                     78
                      A                      A                      A
 Frequencies --   3103.5015              3107.7145              3249.9984
 Red. masses --      1.1023                 1.0988                 1.0959
 Frc consts  --      6.2553                 6.2525                 6.8204
 IR Inten    --     23.3428                 9.6795                 8.0106

                     79                     80                     81
                      A                      A                      A
 Frequencies --   3263.0086              3504.8072              3507.1076
 Red. masses --      1.0970                 1.0500                 1.0851
 Frc consts  --      6.8816                 7.5994                 7.8636
 IR Inten    --      1.4807                 0.4364               431.3197

                     82                     83                     84
                      A                      A                      A
 Frequencies --   3595.2467              3597.4607              3750.7388
 Red. masses --      1.0933                 1.0783                 1.0646
 Frc consts  --      8.3260                 8.2217                 8.8239
 IR Inten    --      2.3878                84.2740                94.4446

 - Thermochemistry -
 -------------------
 Temperature   298.150 Kelvin.  Pressure   1.00000 Atm.
 Atom     1 has atomic number  8 and mass  15.99491

 Molecular mass:   226.10659 amu.
 Principal axes and moments of inertia in atomic units:
                           1         2         3
     Eigenvalues --  2716.472215945.591478264.41054
           X            0.98623   0.16012  -0.04131
           Y            0.10418  -0.40764   0.90718
           Z           -0.12842   0.89899   0.41871
 This molecule is an asymmetric top.
 Rotational symmetry number  1.
 Warning -- assumption of classical behavior for rotation
           may cause significant error
 Rotational temperatures (Kelvin)      0.03188     0.01457     0.01048
 Rotational constants (GHZ):           0.66437     0.30354     0.21838
 Zero-point vibrational energy     643161.4 (Joules/Mol)
                                  153.71926 (Kcal/Mol)
 Warning -- explicit consideration of  21 degrees of freedom as
           vibrations may cause significant error
 Vibrational temperatures:     36.89    55.05    78.71    85.13   108.37
          (Kelvin)            117.33   134.50   184.47   199.02   270.77
                              326.39   343.62   404.00   418.04   450.96
                              508.61   564.66   611.15   765.15   813.79
                              853.81   906.87   921.97   934.91   964.12
                             1027.87  1083.07  1115.51  1119.52  1145.19
                             1175.38  1201.63  1211.04  1245.94  1345.17
                             1356.70  1399.47  1415.50  1469.66  1471.69
                             1510.46  1561.67  1623.77  1633.33  1658.76
                             1660.61  1698.03  1739.12  1780.65  1825.47
                             1836.23  1852.32  1870.43  1891.14  1910.24
                             1954.22  1961.15  2002.24  2036.12  2048.92
                             2084.08  2129.92  2135.12  2171.33  2191.89
                             2223.01  2321.92  2397.43  2461.79  2596.73
                             4341.08  4376.00  4388.26  4417.10  4435.72
                             4465.24  4471.30  4676.02  4694.74  5042.63
                             5045.94  5172.75  5175.94  5396.47

 Zero-point correction=                           0.244967 (Hartree/Particle)
 Thermal correction to Energy=                    0.261063
 Thermal correction to Enthalpy=                  0.262007
 Thermal correction to Gibbs Free Energy=         0.198814
 Sum of electronic and zero-point Energies=           -795.911210
 Sum of electronic and thermal Energies=              -795.895115
 Sum of electronic and thermal Enthalpies=            -795.894171
 Sum of electronic and thermal Free Energies=         -795.957363

                     E (Thermal)             CV                S
                      KCal/Mol        Cal/Mol-Kelvin    Cal/Mol-Kelvin
 Total                  163.819             58.205            133.000
 Electronic               0.000              0.000              0.000
 Translational            0.889              2.981             42.150
 Rotational               0.889              2.981             33.256
 Vibrational            162.042             52.243             57.594
 Vibration     1          0.593              1.985              6.141
 Vibration     2          0.594              1.982              5.347
 Vibration     3          0.596              1.976              4.640
 Vibration     4          0.597              1.974              4.485
 Vibration     5          0.599              1.965              4.009
 Vibration     6          0.600              1.962              3.853
 Vibration     7          0.603              1.954              3.586
 Vibration     8          0.611              1.925              2.973
 Vibration     9          0.614              1.915              2.827
 Vibration    10          0.633              1.856              2.246
 Vibration    11          0.651              1.800              1.904
 Vibration    12          0.657              1.781              1.812
 Vibration    13          0.680              1.709              1.529
 Vibration    14          0.687              1.691              1.471
 Vibration    15          0.701              1.648              1.344
 Vibration    16          0.730              1.568              1.151
 Vibration    17          0.760              1.486              0.991
 Vibration    18          0.787              1.416              0.876
 Vibration    19          0.887              1.180              0.583
 Vibration    20          0.921              1.106              0.513
 Vibration    21          0.951              1.046              0.461

 Optimization completed.
    -- Stationary point found.
 Normal termination of Gaussian 09 at Thu Jul 29 00:48:50 2021.
