 Gaussian 09, Revision D.01,
 Gaussian 09:  ES64L-G09RevD.01 24-Apr-2013

 ----------------------------------------------------------------------
 # B3LYP/6-31+G(d,p) opt=calcfc freq=noraman nosymm integral(ultrafineg
 rid)
 ----------------------------------------------------------------------

 ------------------------------------------------------------
 Candidate Structure: Conf:273 OPT and FREQ calc in gas phase
 ------------------------------------------------------------
 Symbolic Z-matrix:
 Charge =  0 Multiplicity = 1

 SCF Done:  E(RB3LYP) =  -796.146771991     A.U. after   15 cycles
 SCF Done:  E(RB3LYP) =  -796.149502840     A.U. after   13 cycles
 SCF Done:  E(RB3LYP) =  -796.149908006     A.U. after   15 cycles
 SCF Done:  E(RB3LYP) =  -796.149932384     A.U. after   13 cycles
 SCF Done:  E(RB3LYP) =  -796.149986267     A.U. after   12 cycles
 SCF Done:  E(RB3LYP) =  -796.149994241     A.U. after   11 cycles
 SCF Done:  E(RB3LYP) =  -796.149994673     A.U. after   10 cycles
 SCF Done:  E(RB3LYP) =  -796.149994703     A.U. after    9 cycles
 Optimization completed.
    -- Stationary point found.
 Normal termination of Gaussian 09 at Wed Jul 28 23:08:32 2021.

 ----------------------------------------------------------------------
 #N Geom=AllCheck Guess=TCheck SCRF=Check GenChk RB3LYP/6-31+G(d,p) Fre
 q
 ----------------------------------------------------------------------

 Structure from the checkpoint file:  "conf-273.chk"
 ------------------------------------------------------------
 Candidate Structure: Conf:273 OPT and FREQ calc in gas phase
 ------------------------------------------------------------
 Charge =  0 Multiplicity = 1

                          Input orientation:
 ---------------------------------------------------------------------
 Center     Atomic      Atomic             Coordinates (Angstroms)
 Number     Number       Type             X           Y           Z
 ---------------------------------------------------------------------
      1          8           0        0.649528   -1.683930    1.650780
      2          6           0        0.877428   -0.649806    0.999943
      3          7           0        0.304549   -0.444864   -0.213382
      4          6           0       -0.801795   -1.265480   -0.730883
      5          6           0       -0.299553   -2.641139   -1.250676
      6          8           0        0.309042   -3.406121   -0.343035
      7          8           0       -0.473579   -3.005309   -2.393253
      8          6           0       -1.549264   -0.522335   -1.841106
      9          6           0       -2.179057    0.765725   -1.398063
     10          6           0       -2.439231    1.334564   -0.169493
     11          7           0       -3.091959    2.542546   -0.307775
     12          6           0       -3.234037    2.714379   -1.602814
     13          7           0       -2.696087    1.671583   -2.309822
     14          6           0        1.790477    0.439981    1.524753
     15          6           0        3.027315   -0.123831    2.236060
     16          7           0        3.800035    0.971357    2.827480
     17          1           0        0.472824    0.437980   -0.676803
     18          1           0       -1.481817   -1.469589    0.107778
     19          1           0        0.389123   -2.926708    0.525336
     20          1           0       -2.305812   -1.210328   -2.234186
     21          1           0       -0.856488   -0.351134   -2.675910
     22          1           0       -2.195740    0.943745    0.808422
     23          1           0       -3.705924    3.559411   -2.084457
     24          1           0       -2.696835    1.568252   -3.314460
     25          1           0        2.086505    1.116839    0.713553
     26          1           0        1.218251    1.039530    2.244054
     27          1           0        2.691664   -0.784015    3.039636
     28          1           0        3.601099   -0.745875    1.529349
     29          1           0        4.496000    0.617136    3.476611
     30          1           0        4.293302    1.507740    2.118399
 ---------------------------------------------------------------------

 SCF Done:  E(RB3LYP) =  -796.149994703     A.U. after    1 cycles

 Alpha  occ. eigenvalues --  -19.19418 -19.16392 -19.15108 -14.41452 -14.40734
 Alpha  occ. eigenvalues --  -14.33892 -14.33520 -10.33203 -10.32989 -10.27567
 Alpha  occ. eigenvalues --  -10.25960 -10.24649 -10.23370 -10.23234 -10.22169
 Alpha  occ. eigenvalues --  -10.21811  -1.10915  -1.07667  -1.03477  -1.02627
 Alpha  occ. eigenvalues --   -0.96705  -0.90251  -0.89173  -0.83050  -0.78537
 Alpha  occ. eigenvalues --   -0.75476  -0.69321  -0.65684  -0.63449  -0.62279
 Alpha  occ. eigenvalues --   -0.61454  -0.60514  -0.57151  -0.54424  -0.53823
 Alpha  occ. eigenvalues --   -0.52570  -0.50975  -0.48184  -0.47204  -0.46752
 Alpha  occ. eigenvalues --   -0.45719  -0.45182  -0.44462  -0.43841  -0.43678
 Alpha  occ. eigenvalues --   -0.42686  -0.42506  -0.41062  -0.40237  -0.38366
 Alpha  occ. eigenvalues --   -0.38137  -0.36964  -0.32378  -0.31727  -0.30260
 Alpha  occ. eigenvalues --   -0.29875  -0.28793  -0.27681  -0.25905  -0.24612
 Alpha virt. eigenvalues --   -0.02722  -0.02166  -0.01294  -0.00829  -0.00410
 Alpha virt. eigenvalues --    0.00058   0.00863   0.01492   0.02483   0.02670
 Alpha virt. eigenvalues --    0.03495   0.04008   0.04743   0.04932   0.05433

 Mulliken charges:
               1
     1  O   -0.543148
     2  C    0.320174
     3  N   -0.322179
     4  C    0.186646
     5  C    0.319489
     6  O   -0.448781
     7  O   -0.456598
     8  C   -1.521192
     9  C    0.933412
    10  C   -0.039237
    11  N   -0.267250
    12  C    0.195023
    13  N   -0.394455
    14  C   -0.114202
    15  C   -0.323738
    16  N   -0.605342
    17  H    0.318536
    18  H    0.191428
    19  H    0.413638
    20  H    0.200169
    21  H    0.176249
    22  H    0.127817
    23  H    0.140663
    24  H    0.307900
    25  H    0.129610
    26  H    0.202135
    27  H    0.171304
    28  H    0.135263
    29  H    0.290900
    30  H    0.275768
 Sum of Mulliken charges =   0.00000

 Dipole moment (field-independent basis, Debye):
    X=              1.7889    Y=              3.9688    Z=             -2.3336  Tot=              4.9394
 Quadrupole moment (field-independent basis, Debye-Ang):
   XX=            -85.3464   YY=           -120.3698   ZZ=            -93.3265
   XY=              5.2576   XZ=             13.5646   YZ=            -19.2788

  Exact polarizability: 131.414 -15.089 149.439  24.410   4.040 149.253
 Approx polarizability: 167.929 -15.778 207.971  14.789  -0.451 237.724

                      1                      2                      3
                      A                      A                      A
 Frequencies --     25.7116                30.4617                45.9027
 Red. masses --      4.7948                 3.2018                 3.1858
 Frc consts  --      0.0019                 0.0018                 0.0040
 IR Inten    --      0.7295                 2.1507                 6.0796

                      4                      5                      6
                      A                      A                      A
 Frequencies --     61.5624                71.8725                84.9443
 Red. masses --      6.1261                 3.6573                 3.8283
 Frc consts  --      0.0137                 0.0111                 0.0163
 IR Inten    --      4.0911                12.2250                 0.7908

                      7                      8                      9
                      A                      A                      A
 Frequencies --     87.4102               153.9734               174.0731
 Red. masses --      5.6423                 4.8491                 3.9108
 Frc consts  --      0.0254                 0.0677                 0.0698
 IR Inten    --      1.5022                14.2566                 2.8548

                     10                     11                     12
                      A                      A                      A
 Frequencies --    213.0098               222.2872               237.5887
 Red. masses --      6.8968                 3.4831                 1.4638
 Frc consts  --      0.1844                 0.1014                 0.0487
 IR Inten    --      6.9870                13.3271                23.8094

                     13                     14                     15
                      A                      A                      A
 Frequencies --    258.0089               282.5486               313.6782
 Red. masses --      2.5636                 3.7898                 6.2227
 Frc consts  --      0.1005                 0.1783                 0.3607
 IR Inten    --     21.1399                15.8710                 5.4361

                     16                     17                     18
                      A                      A                      A
 Frequencies --    356.1271               384.9496               437.5569
 Red. masses --      5.8451                 4.4641                 3.0183
 Frc consts  --      0.4368                 0.3898                 0.3405
 IR Inten    --      2.0127                 2.1041                 5.8989

                     19                     20                     21
                      A                      A                      A
 Frequencies --    478.4214               521.9560               540.4107
 Red. masses --      1.2664                 1.5080                 4.4093
 Frc consts  --      0.1708                 0.2421                 0.7587
 IR Inten    --     85.8635                73.9815                16.0874

                     22                     23                     24
                      A                      A                      A
 Frequencies --    617.7493               626.2011               643.5615
 Red. masses --      5.5222                 2.7534                 2.3783
 Frc consts  --      1.2416                 0.6361                 0.5804
 IR Inten    --     12.3599                15.5449                21.5987

                     25                     26                     27
                      A                      A                      A
 Frequencies --    673.2205               727.2624               751.1593
 Red. masses --      3.0774                 4.6727                 4.1293
 Frc consts  --      0.8218                 1.4561                 1.3727
 IR Inten    --      3.8935                 1.8259                 8.2086

                     28                     29                     30
                      A                      A                      A
 Frequencies --    768.5831               797.2964               809.1537
 Red. masses --      4.4784                 1.4334                 1.3714
 Frc consts  --      1.5587                 0.5369                 0.5290
 IR Inten    --     32.0617                22.8946                22.1937

                     31                     32                     33
                      A                      A                      A
 Frequencies --    825.4609               842.6043               874.0735
 Red. masses --      1.3261                 1.3369                 2.3418
 Frc consts  --      0.5324                 0.5593                 1.0541
 IR Inten    --    104.6410                15.1296                10.5617

                     34                     35                     36
                      A                      A                      A
 Frequencies --    905.7439               928.4547               942.0016
 Red. masses --      1.1621                 5.7028                 3.3605
 Frc consts  --      0.5617                 2.8964                 1.7569
 IR Inten    --     91.6138                10.8162                 6.5174

                     37                     38                     39
                      A                      A                      A
 Frequencies --    963.6273               997.0161              1022.2432
 Red. masses --      2.5199                 2.6452                 3.8955
 Frc consts  --      1.3786                 1.5492                 2.3984
 IR Inten    --      5.0928                 2.0891                 8.6718

                     40                     41                     42
                      A                      A                      A
 Frequencies --   1062.2389              1081.7731              1094.4509
 Red. masses --      2.8232                 2.4286                 2.4661
 Frc consts  --      1.8769                 1.6745                 1.7404
 IR Inten    --     19.2311                10.7207                33.9432

                     43                     44                     45
                      A                      A                      A
 Frequencies --   1112.6734              1116.1507              1151.9743
 Red. masses --      2.2714                 1.9150                 2.2675
 Frc consts  --      1.6569                 1.4056                 1.7729
 IR Inten    --     10.6973                14.3768                16.6940

                     46                     47                     48
                      A                      A                      A
 Frequencies --   1155.7191              1200.3099              1225.1114
 Red. masses --      1.3705                 1.6511                 2.3994
 Frc consts  --      1.0785                 1.4016                 2.1218
 IR Inten    --      3.8203                19.8215                17.8305

                     49                     50                     51
                      A                      A                      A
 Frequencies --   1241.0689              1262.3304              1282.2860
 Red. masses --      1.6130                 1.4788                 1.5062
 Frc consts  --      1.4638                 1.3884                 1.4592
 IR Inten    --     20.9884                 6.0005                34.0502

                     52                     53                     54
                      A                      A                      A
 Frequencies --   1283.8619              1318.6888              1338.7302
 Red. masses --      1.4545                 1.6925                 1.1159
 Frc consts  --      1.4126                 1.7341                 1.1784
 IR Inten    --     17.1700                13.0191                 5.9200

                     55                     56                     57
                      A                      A                      A
 Frequencies --   1356.0040              1370.5009              1382.5909
 Red. masses --      1.6023                 1.6481                 1.5281
 Frc consts  --      1.7359                 1.8239                 1.7211
 IR Inten    --      1.9712                 6.1766                10.1103

                     58                     59                     60
                      A                      A                      A
 Frequencies --   1422.4333              1427.4235              1432.5346
 Red. masses --      2.0807                 1.5390                 2.8854
 Frc consts  --      2.4804                 1.8476                 3.4887
 IR Inten    --     12.9507                32.3500                15.3075

                     61                     62                     63
                      A                      A                      A
 Frequencies --   1452.6999              1471.5747              1485.3922
 Red. masses --      1.4085                 1.1019                 1.1394
 Frc consts  --      1.7513                 1.4059                 1.4812
 IR Inten    --    274.4084                 8.8289                25.1326

                     64                     65                     66
                      A                      A                      A
 Frequencies --   1509.4551              1519.7957              1541.6251
 Red. masses --      3.8347                 1.0832                 2.2427
 Frc consts  --      5.1478                 1.4742                 3.1403
 IR Inten    --     24.7496                 1.5215               334.2660

                     67                     68                     69
                      A                      A                      A
 Frequencies --   1612.7134              1669.5986              1692.5609
 Red. masses --      4.2612                 1.0998                 7.0597
 Frc consts  --      6.5298                 1.8062                11.9158
 IR Inten    --      9.4731                30.3899               237.1851

                     70                     71                     72
                      A                      A                      A
 Frequencies --   1827.5886              2974.5915              3032.3508
 Red. masses --      9.1146                 1.0735                 1.0777
 Frc consts  --     17.9368                 5.5962                 5.8386
 IR Inten    --    385.3837                61.5557                 4.2304

                     73                     74                     75
                      A                      A                      A
 Frequencies --   3039.8897              3043.1874              3081.9894
 Red. masses --      1.0605                 1.0719                 1.1000
 Frc consts  --      5.7742                 5.8486                 6.1559
 IR Inten    --     14.3048                15.2871                 5.2082

                     76                     77                     78
                      A                      A                      A
 Frequencies --   3082.5496              3115.6521              3259.4950
 Red. masses --      1.0963                 1.0921                 1.0953
 Frc consts  --      6.1377                 6.2460                 6.8565
 IR Inten    --      5.8995                13.2154                 8.8954

                     79                     80                     81
                      A                      A                      A
 Frequencies --   3261.9058              3265.8729              3511.2546
 Red. masses --      1.0742                 1.0979                 1.0500
 Frc consts  --      6.7341                 6.8994                 7.6272
 IR Inten    --    736.2165                 0.4637                 0.4319

                     82                     83                     84
                      A                      A                      A
 Frequencies --   3601.1842              3624.9055              3653.1695
 Red. masses --      1.0935                 1.0783                 1.0814
 Frc consts  --      8.3552                 8.3479                 8.5034
 IR Inten    --      2.9123                39.3468                55.4163

 - Thermochemistry -
 -------------------
 Temperature   298.150 Kelvin.  Pressure   1.00000 Atm.
 Atom     1 has atomic number  8 and mass  15.99491

 Molecular mass:   226.10659 amu.
 Principal axes and moments of inertia in atomic units:
                           1         2         3
     Eigenvalues --  3059.649695649.869748095.57763
           X            0.79523   0.05692  -0.60362
           Y           -0.29431   0.90666  -0.30224
           Z            0.53008   0.41801   0.73776
 This molecule is an asymmetric top.
 Rotational symmetry number  1.
 Warning -- assumption of classical behavior for rotation
           may cause significant error
 Rotational temperatures (Kelvin)      0.02831     0.01533     0.01070
 Rotational constants (GHZ):           0.58985     0.31943     0.22293
 Zero-point vibrational energy     642082.0 (Joules/Mol)
                                  153.46128 (Kcal/Mol)
 Warning -- explicit consideration of  22 degrees of freedom as
           vibrations may cause significant error
 Vibrational temperatures:     36.99    43.83    66.04    88.57   103.41
          (Kelvin)            122.22   125.76   221.53   250.45   306.47
                              319.82   341.84   371.22   406.52   451.31
                              512.39   553.86   629.55   688.34   750.98
                              777.53   888.80   900.96   925.94   968.61
                             1046.37  1080.75  1105.82  1147.13  1164.19
                             1187.65  1212.32  1257.60  1303.16  1335.84
                             1355.33  1386.44  1434.48  1470.78  1528.32
                             1556.43  1574.67  1600.89  1605.89  1657.43
                             1662.82  1726.98  1762.66  1785.62  1816.21
                             1844.92  1847.19  1897.30  1926.13  1950.98
                             1971.84  1989.24  2046.56  2053.74  2061.10
                             2090.11  2117.27  2137.15  2171.77  2186.64
                             2218.05  2320.33  2402.18  2435.21  2629.49
                             4279.77  4362.87  4373.72  4378.46  4434.29
                             4435.10  4482.72  4689.68  4693.15  4698.86
                             5051.91  5181.29  5215.42  5256.09

 Zero-point correction=                           0.244556 (Hartree/Particle)
 Thermal correction to Energy=                    0.260660
 Thermal correction to Enthalpy=                  0.261604
 Thermal correction to Gibbs Free Energy=         0.198242
 Sum of electronic and zero-point Energies=           -795.905439
 Sum of electronic and thermal Energies=              -795.889335
 Sum of electronic and thermal Enthalpies=            -795.888390
 Sum of electronic and thermal Free Energies=         -795.951753

                     E (Thermal)             CV                S
                      KCal/Mol        Cal/Mol-Kelvin    Cal/Mol-Kelvin
 Total                  163.567             58.228            133.357
 Electronic               0.000              0.000              0.000
 Translational            0.889              2.981             42.150
 Rotational               0.889              2.981             33.303
 Vibrational            161.789             52.266             57.904
 Vibration     1          0.593              1.985              6.136
 Vibration     2          0.594              1.984              5.799
 Vibration     3          0.595              1.979              4.987
 Vibration     4          0.597              1.973              4.406
 Vibration     5          0.598              1.967              4.101
 Vibration     6          0.601              1.960              3.773
 Vibration     7          0.601              1.958              3.717
 Vibration     8          0.619              1.898              2.623
 Vibration     9          0.627              1.874              2.391
 Vibration    10          0.644              1.821              2.018
 Vibration    11          0.648              1.807              1.940
 Vibration    12          0.656              1.783              1.821
 Vibration    13          0.667              1.749              1.675
 Vibration    14          0.682              1.706              1.518
 Vibration    15          0.702              1.648              1.343
 Vibration    16          0.732              1.563              1.139
 Vibration    17          0.754              1.502              1.020
 Vibration    18          0.798              1.388              0.834
 Vibration    19          0.835              1.298              0.714
 Vibration    20          0.877              1.201              0.605
 Vibration    21          0.895              1.161              0.564
 Vibration    22          0.978              0.994              0.420

 Optimization completed.
    -- Stationary point found.
 Normal termination of Gaussian 09 at Wed Jul 28 23:47:51 2021.
