 Gaussian 09, Revision D.01,
 Gaussian 09:  ES64L-G09RevD.01 24-Apr-2013

 ----------------------------------------------------------------------
 # B3LYP/6-31+G(d,p) opt=calcfc freq=noraman nosymm integral(ultrafineg
 rid)
 ----------------------------------------------------------------------

 ------------------------------------------------------------
 Candidate Structure: Conf:338 OPT and FREQ calc in gas phase
 ------------------------------------------------------------
 Symbolic Z-matrix:
 Charge =  0 Multiplicity = 1

 SCF Done:  E(RB3LYP) =  -796.153062410     A.U. after   15 cycles
 SCF Done:  E(RB3LYP) =  -796.155754633     A.U. after   13 cycles
 SCF Done:  E(RB3LYP) =  -796.156045426     A.U. after   13 cycles
 SCF Done:  E(RB3LYP) =  -796.156131386     A.U. after   12 cycles
 SCF Done:  E(RB3LYP) =  -796.156206128     A.U. after   13 cycles
 SCF Done:  E(RB3LYP) =  -796.156524643     A.U. after   15 cycles
 SCF Done:  E(RB3LYP) =  -796.158638513     A.U. after   15 cycles
 SCF Done:  E(RB3LYP) =  -796.145458058     A.U. after   15 cycles
 SCF Done:  E(RB3LYP) =  -796.158800563     A.U. after   10 cycles
 SCF Done:  E(RB3LYP) =  -796.156603944     A.U. after   13 cycles
 SCF Done:  E(RB3LYP) =  -796.159512431     A.U. after   11 cycles
 SCF Done:  E(RB3LYP) =  -796.160020878     A.U. after   12 cycles
 SCF Done:  E(RB3LYP) =  -796.158924241     A.U. after   13 cycles
 SCF Done:  E(RB3LYP) =  -796.160374974     A.U. after   11 cycles
 SCF Done:  E(RB3LYP) =  -796.160514370     A.U. after   12 cycles
 SCF Done:  E(RB3LYP) =  -796.160534611     A.U. after   11 cycles
 SCF Done:  E(RB3LYP) =  -796.160539356     A.U. after   11 cycles
 SCF Done:  E(RB3LYP) =  -796.160540495     A.U. after   10 cycles
 SCF Done:  E(RB3LYP) =  -796.160540655     A.U. after    9 cycles
 Optimization completed.
    -- Stationary point found.
 Normal termination of Gaussian 09 at Thu Jul 29 00:00:02 2021.

 ----------------------------------------------------------------------
 #N Geom=AllCheck Guess=TCheck SCRF=Check GenChk RB3LYP/6-31+G(d,p) Fre
 q
 ----------------------------------------------------------------------

 Structure from the checkpoint file:  "conf-338.chk"
 ------------------------------------------------------------
 Candidate Structure: Conf:338 OPT and FREQ calc in gas phase
 ------------------------------------------------------------
 Charge =  0 Multiplicity = 1

                          Input orientation:
 ---------------------------------------------------------------------
 Center     Atomic      Atomic             Coordinates (Angstroms)
 Number     Number       Type             X           Y           Z
 ---------------------------------------------------------------------
      1          8           0        0.573621    0.502619    1.756367
      2          6           0        1.295051    0.049474    0.854402
      3          7           0        0.800472   -0.577543   -0.237544
      4          6           0       -0.623556   -0.798800   -0.417714
      5          6           0       -0.802153   -1.911583   -1.435987
      6          8           0       -2.074064   -2.362671   -1.452766
      7          8           0        0.063752   -2.340546   -2.170273
      8          6           0       -1.412711    0.494232   -0.870813
      9          6           0       -2.461676    0.948736    0.090501
     10          6           0       -3.812319    1.189983   -0.048165
     11          7           0       -4.356123    1.631411    1.137986
     12          6           0       -3.347660    1.653447    1.989470
     13          7           0       -2.180003    1.255236    1.407591
     14          6           0        2.815580    0.156873    0.957697
     15          6           0        3.590327    0.372485   -0.350810
     16          7           0        3.469621   -0.792284   -1.242404
     17          1           0        1.465789   -0.944498   -0.926553
     18          1           0       -1.051846   -1.141388    0.529622
     19          1           0       -2.134754   -3.044323   -2.143730
     20          1           0       -1.893692    0.324977   -1.838504
     21          1           0       -0.659419    1.275294   -1.027562
     22          1           0       -4.417386    1.070051   -0.936800
     23          1           0       -3.407418    1.945137    3.028850
     24          1           0       -1.258655    1.135409    1.828542
     25          1           0        3.014176    0.981450    1.647330
     26          1           0        3.177263   -0.755496    1.453308
     27          1           0        3.178663    1.238951   -0.880596
     28          1           0        4.632529    0.619084   -0.097801
     29          1           0        3.996897   -1.586668   -0.887732
     30          1           0        3.819630   -0.589006   -2.174134
 ---------------------------------------------------------------------

 SCF Done:  E(RB3LYP) =  -796.160540655     A.U. after    1 cycles

 Alpha  occ. eigenvalues --  -19.22914 -19.17535 -19.14045 -14.37524 -14.37322
 Alpha  occ. eigenvalues --  -14.35626 -14.30585 -10.35168 -10.30927 -10.26380
 Alpha  occ. eigenvalues --  -10.24515 -10.22842 -10.21841 -10.21636 -10.21340
 Alpha  occ. eigenvalues --  -10.18945  -1.13798  -1.05466  -1.04791  -1.00150
 Alpha  occ. eigenvalues --   -0.94513  -0.91574  -0.85900  -0.81162  -0.77695
 Alpha  occ. eigenvalues --   -0.74372  -0.68308  -0.66422  -0.63222  -0.59956
 Alpha  occ. eigenvalues --   -0.59417  -0.57744  -0.54592  -0.53723  -0.52628
 Alpha  occ. eigenvalues --   -0.51357  -0.49600  -0.48307  -0.48043  -0.47614
 Alpha  occ. eigenvalues --   -0.46298  -0.44478  -0.43109  -0.42957  -0.42159
 Alpha  occ. eigenvalues --   -0.41397  -0.40052  -0.39771  -0.39414  -0.39056
 Alpha  occ. eigenvalues --   -0.38525  -0.36523  -0.35064  -0.31032  -0.28398
 Alpha  occ. eigenvalues --   -0.28106  -0.27333  -0.26884  -0.25810  -0.21694
 Alpha virt. eigenvalues --   -0.02715  -0.01896  -0.01090   0.00060   0.00814
 Alpha virt. eigenvalues --    0.01484   0.01655   0.02581   0.02999   0.03320
 Alpha virt. eigenvalues --    0.04156   0.04953   0.05367   0.05850   0.06181

 Mulliken charges:
               1
     1  O   -0.559593
     2  C    0.436110
     3  N   -0.217127
     4  C   -0.603487
     5  C    0.647532
     6  O   -0.402817
     7  O   -0.440884
     8  C   -0.752339
     9  C    0.541028
    10  C   -0.203062
    11  N   -0.298593
    12  C    0.261425
    13  N   -0.326695
    14  C   -0.290626
    15  C   -0.222641
    16  N   -0.702787
    17  H    0.392443
    18  H    0.188524
    19  H    0.378017
    20  H    0.158936
    21  H    0.175522
    22  H    0.119548
    23  H    0.129719
    24  H    0.363612
    25  H    0.176953
    26  H    0.167956
    27  H    0.151690
    28  H    0.138264
    29  H    0.296092
    30  H    0.297277
 Sum of Mulliken charges =   0.00000

 Dipole moment (field-independent basis, Debye):
    X=              6.9494    Y=             -2.1633    Z=             -2.5544  Tot=              7.7136
 Quadrupole moment (field-independent basis, Debye-Ang):
   XX=           -101.8597   YY=            -95.9090   ZZ=            -93.6933
   XY=             11.2489   XZ=              6.7441   YZ=             -1.4908

  Exact polarizability: 176.431 -11.624 119.170  -8.580  24.668 141.076
 Approx polarizability: 231.460 -13.735 169.474 -10.412  30.162 217.081

                      1                      2                      3
                      A                      A                      A
 Frequencies --     24.4983                46.9658                53.8970
 Red. masses --      4.8987                 7.8453                 6.2063
 Frc consts  --      0.0017                 0.0102                 0.0106
 IR Inten    --      0.5058                 1.9057                 2.8162

                      4                      5                      6
                      A                      A                      A
 Frequencies --     72.8653                80.7350                99.3905
 Red. masses --      3.4565                 4.5188                 4.5292
 Frc consts  --      0.0108                 0.0174                 0.0264
 IR Inten    --      0.3129                 0.7443                 6.3591

                      7                      8                      9
                      A                      A                      A
 Frequencies --    111.7153               123.2278               179.2826
 Red. masses --      6.3693                 6.1171                 2.7325
 Frc consts  --      0.0468                 0.0547                 0.0517
 IR Inten    --      6.4839                 4.5619                 6.1542

                     10                     11                     12
                      A                      A                      A
 Frequencies --    193.3953               235.3908               282.8385
 Red. masses --      5.3487                 3.5649                 3.7965
 Frc consts  --      0.1179                 0.1164                 0.1789
 IR Inten    --      2.8881                 4.8061                 3.8300

                     13                     14                     15
                      A                      A                      A
 Frequencies --    301.1051               307.5343               327.4883
 Red. masses --      3.4599                 1.3502                 4.1657
 Frc consts  --      0.1848                 0.0752                 0.2632
 IR Inten    --      0.3350                14.3404                 0.4915

                     16                     17                     18
                      A                      A                      A
 Frequencies --    354.0206               413.9939               463.6510
 Red. masses --      3.9065                 3.5242                 2.5866
 Frc consts  --      0.2885                 0.3559                 0.3276
 IR Inten    --      5.1168                 7.7924                26.3056

                     19                     20                     21
                      A                      A                      A
 Frequencies --    514.3082               590.8716               608.1328
 Red. masses --      3.2073                 1.5858                 3.1184
 Frc consts  --      0.4998                 0.3262                 0.6795
 IR Inten    --     37.1633                84.4068                 6.5725

                     22                     23                     24
                      A                      A                      A
 Frequencies --    631.9856               642.6721               670.6316
 Red. masses --      3.5577                 3.6859                 3.6900
 Frc consts  --      0.8372                 0.8970                 0.9778
 IR Inten    --     29.1160                 7.4363                47.7811

                     25                     26                     27
                      A                      A                      A
 Frequencies --    693.6297               715.9198               768.4813
 Red. masses --      3.4898                 3.3889                 4.0353
 Frc consts  --      0.9893                 1.0234                 1.4041
 IR Inten    --     19.4479                15.2963                 3.6974

                     28                     29                     30
                      A                      A                      A
 Frequencies --    785.7978               808.4979               815.6072
 Red. masses --      1.0911                 1.2233                 1.4026
 Frc consts  --      0.3969                 0.4711                 0.5497
 IR Inten    --     38.9722                50.0806                28.8497

                     31                     32                     33
                      A                      A                      A
 Frequencies --    839.0720               850.3111               856.1825
 Red. masses --      1.4480                 1.3539                 2.2508
 Frc consts  --      0.6006                 0.5768                 0.9721
 IR Inten    --     26.9523                66.1942                51.0456

                     34                     35                     36
                      A                      A                      A
 Frequencies --    898.1504               911.1896               935.3161
 Red. masses --      2.3824                 1.9618                 6.0109
 Frc consts  --      1.1323                 0.9597                 3.0982
 IR Inten    --     17.1933                18.7027                14.4971

                     37                     38                     39
                      A                      A                      A
 Frequencies --    962.4964               981.2163              1006.2148
 Red. masses --      3.3294                 2.7647                 1.7515
 Frc consts  --      1.8173                 1.5683                 1.0448
 IR Inten    --     11.0465                 3.8463                 7.3907

                     40                     41                     42
                      A                      A                      A
 Frequencies --   1021.9686              1026.4528              1086.5568
 Red. masses --      3.6861                 2.7156                 2.6481
 Frc consts  --      2.2682                 1.6857                 1.8420
 IR Inten    --      0.7823                41.4478                 8.4910

                     43                     44                     45
                      A                      A                      A
 Frequencies --   1127.0431              1136.3862              1152.8212
 Red. masses --      3.0708                 1.8266                 1.7821
 Frc consts  --      2.2981                 1.3898                 1.3954
 IR Inten    --     44.1083                61.6298                11.8927

                     46                     47                     48
                      A                      A                      A
 Frequencies --   1155.1429              1173.5492              1210.4895
 Red. masses --      1.4429                 2.4483                 1.2599
 Frc consts  --      1.1344                 1.9866                 1.0877
 IR Inten    --     12.2908               171.5093                 8.7227

                     49                     50                     51
                      A                      A                      A
 Frequencies --   1263.8122              1269.1549              1277.2280
 Red. masses --      1.4101                 2.0223                 1.4318
 Frc consts  --      1.3270                 1.9192                 1.3762
 IR Inten    --     17.2613                 7.4195                 5.7676

                     52                     53                     54
                      A                      A                      A
 Frequencies --   1286.6870              1307.1936              1311.7212
 Red. masses --      1.3831                 1.4673                 1.3375
 Frc consts  --      1.3491                 1.4772                 1.3559
 IR Inten    --     18.5613                 2.7267                 2.9137

                     55                     56                     57
                      A                      A                      A
 Frequencies --   1325.3154              1358.4249              1372.3619
 Red. masses --      1.4551                 1.4669                 1.4421
 Frc consts  --      1.5059                 1.5948                 1.6003
 IR Inten    --     13.8671                27.9332                 8.6977

                     58                     59                     60
                      A                      A                      A
 Frequencies --   1391.1993              1409.4723              1422.3408
 Red. masses --      3.8244                 2.1119                 1.5223
 Frc consts  --      4.3611                 2.4719                 1.8145
 IR Inten    --     19.2111                65.7199                29.7287

                     61                     62                     63
                      A                      A                      A
 Frequencies --   1449.4320              1468.1400              1480.7685
 Red. masses --      2.4414                 1.0821                 1.1452
 Frc consts  --      3.0219                 1.3742                 1.4795
 IR Inten    --     76.2903                13.9265                14.8337

                     64                     65                     66
                      A                      A                      A
 Frequencies --   1509.1827              1515.0081              1572.4831
 Red. masses --      3.5129                 1.0889                 2.1363
 Frc consts  --      4.7141                 1.4726                 3.1123
 IR Inten    --     32.1922                 6.5639               337.2221

                     67                     68                     69
                      A                      A                      A
 Frequencies --   1613.7890              1661.1044              1704.4273
 Red. masses --      4.1555                 1.0910                 8.1299
 Frc consts  --      6.3763                 1.7736                13.9153
 IR Inten    --     21.6468                41.0198               351.8140

                     70                     71                     72
                      A                      A                      A
 Frequencies --   1811.6530              2996.5491              3032.2670
 Red. masses --      9.8931                 1.0711                 1.0706
 Frc consts  --     19.1307                 5.6665                 5.7998
 IR Inten    --    309.6268                79.7691                 7.7186

                     73                     74                     75
                      A                      A                      A
 Frequencies --   3047.3670              3076.7514              3083.3535
 Red. masses --      1.0655                 1.0927                 1.0844
 Frc consts  --      5.8298                 6.0947                 6.0742
 IR Inten    --     21.4915                26.4240                 9.5308

                     76                     77                     78
                      A                      A                      A
 Frequencies --   3104.7271              3117.9160              3249.2364
 Red. masses --      1.0986                 1.0932                 1.0959
 Frc consts  --      6.2390                 6.2616                 6.8167
 IR Inten    --     10.1021                 7.6112                 8.5459

                     79                     80                     81
                      A                      A                      A
 Frequencies --   3262.4098              3379.7597              3489.1861
 Red. masses --      1.0969                 1.0823                 1.0857
 Frc consts  --      6.8785                 7.2838                 7.7876
 IR Inten    --      1.6846               396.0907               431.8129

                     82                     83                     84
                      A                      A                      A
 Frequencies --   3510.6412              3599.4847              3753.2726
 Red. masses --      1.0504                 1.0936                 1.0645
 Frc consts  --      7.6271                 8.3478                 8.8355
 IR Inten    --      0.5075                 6.4019                85.1698

 - Thermochemistry -
 -------------------
 Temperature   298.150 Kelvin.  Pressure   1.00000 Atm.
 Atom     1 has atomic number  8 and mass  15.99491

 Molecular mass:   226.10659 amu.
 Principal axes and moments of inertia in atomic units:
                           1         2         3
     Eigenvalues --  2379.890535433.004577276.14629
           X            0.94371   0.32721  -0.04854
           Y           -0.26459   0.65860  -0.70444
           Z           -0.19853   0.67763   0.70810
 This molecule is an asymmetric top.
 Rotational symmetry number  1.
 Warning -- assumption of classical behavior for rotation
           may cause significant error
 Rotational temperatures (Kelvin)      0.03639     0.01594     0.01190
 Rotational constants (GHZ):           0.75833     0.33218     0.24804
 Zero-point vibrational energy     644385.9 (Joules/Mol)
                                  154.01193 (Kcal/Mol)
 Warning -- explicit consideration of  21 degrees of freedom as
           vibrations may cause significant error
 Vibrational temperatures:     35.25    67.57    77.55   104.84   116.16
          (Kelvin)            143.00   160.73   177.30   257.95   278.25
                              338.67   406.94   433.22   442.47   471.18
                              509.36   595.64   667.09   739.97   850.13
                              874.97   909.29   924.66   964.89   997.98
                             1030.05  1105.67  1130.59  1163.25  1173.48
                             1207.24  1223.41  1231.85  1292.24  1311.00
                             1345.71  1384.82  1411.75  1447.72  1470.38
                             1476.83  1563.31  1621.56  1635.00  1658.65
                             1661.99  1688.47  1741.62  1818.34  1826.03
                             1837.64  1851.25  1880.76  1887.27  1906.83
                             1954.47  1974.52  2001.62  2027.91  2046.43
                             2085.41  2112.32  2130.49  2171.37  2179.76
                             2262.45  2321.88  2389.96  2452.29  2606.56
                             4311.36  4362.75  4384.48  4426.75  4436.25
                             4467.00  4485.98  4674.92  4693.87  4862.71
                             5020.15  5051.02  5178.85  5400.12

 Zero-point correction=                           0.245434 (Hartree/Particle)
 Thermal correction to Energy=                    0.261082
 Thermal correction to Enthalpy=                  0.262026
 Thermal correction to Gibbs Free Energy=         0.200455
 Sum of electronic and zero-point Energies=           -795.915107
 Sum of electronic and thermal Energies=              -795.899459
 Sum of electronic and thermal Enthalpies=            -795.898515
 Sum of electronic and thermal Free Energies=         -795.960086

                     E (Thermal)             CV                S
                      KCal/Mol        Cal/Mol-Kelvin    Cal/Mol-Kelvin
 Total                  163.831             57.481            129.587
 Electronic               0.000              0.000              0.000
 Translational            0.889              2.981             42.150
 Rotational               0.889              2.981             32.909
 Vibrational            162.054             51.519             54.528
 Vibration     1          0.593              1.985              6.231
 Vibration     2          0.595              1.979              4.941
 Vibration     3          0.596              1.976              4.669
 Vibration     4          0.599              1.967              4.074
 Vibration     5          0.600              1.962              3.873
 Vibration     6          0.604              1.950              3.466
 Vibration     7          0.607              1.940              3.239
 Vibration     8          0.610              1.930              3.049
 Vibration     9          0.629              1.868              2.336
 Vibration    10          0.635              1.849              2.195
 Vibration    11          0.655              1.787              1.837
 Vibration    12          0.682              1.705              1.516
 Vibration    13          0.693              1.672              1.411
 Vibration    14          0.697              1.659              1.376
 Vibration    15          0.711              1.621              1.272
 Vibration    16          0.730              1.567              1.148
 Vibration    17          0.778              1.440              0.913
 Vibration    18          0.821              1.331              0.756
 Vibration    19          0.869              1.218              0.623
 Vibration    20          0.948              1.051              0.466
 Vibration    21          0.967              1.015              0.436

 Optimization completed.
    -- Stationary point found.
 Normal termination of Gaussian 09 at Thu Jul 29 00:44:18 2021.
