 Gaussian 09, Revision D.01,
 Gaussian 09:  ES64L-G09RevD.01 24-Apr-2013

 ----------------------------------------------------------------------
 # B3LYP/6-31+G(d,p) opt=calcfc freq=noraman nosymm integral(ultrafineg
 rid)
 ----------------------------------------------------------------------

 ------------------------------------------------------------
 Candidate Structure: Conf:801 OPT and FREQ calc in gas phase
 ------------------------------------------------------------
 Symbolic Z-matrix:
 Charge =  0 Multiplicity = 1

 SCF Done:  E(RB3LYP) =  -796.141615117     A.U. after   15 cycles
 SCF Done:  E(RB3LYP) =  -796.144774261     A.U. after   13 cycles
 SCF Done:  E(RB3LYP) =  -796.145310845     A.U. after   15 cycles
 SCF Done:  E(RB3LYP) =  -796.145392024     A.U. after   16 cycles
 SCF Done:  E(RB3LYP) =  -796.145876128     A.U. after   13 cycles
 SCF Done:  E(RB3LYP) =  -796.146199218     A.U. after   13 cycles
 SCF Done:  E(RB3LYP) =  -796.146266785     A.U. after   12 cycles
 SCF Done:  E(RB3LYP) =  -796.146292599     A.U. after   11 cycles
 SCF Done:  E(RB3LYP) =  -796.146304942     A.U. after   11 cycles
 SCF Done:  E(RB3LYP) =  -796.146309469     A.U. after   11 cycles
 SCF Done:  E(RB3LYP) =  -796.146310523     A.U. after   10 cycles
 SCF Done:  E(RB3LYP) =  -796.146310626     A.U. after   10 cycles
 SCF Done:  E(RB3LYP) =  -796.146310635     A.U. after    8 cycles
 Optimization completed.
    -- Stationary point found.
 Normal termination of Gaussian 09 at Wed Jul 28 23:31:43 2021.

 ----------------------------------------------------------------------
 #N Geom=AllCheck Guess=TCheck SCRF=Check GenChk RB3LYP/6-31+G(d,p) Fre
 q
 ----------------------------------------------------------------------

 Structure from the checkpoint file:  "conf-801.chk"
 ------------------------------------------------------------
 Candidate Structure: Conf:801 OPT and FREQ calc in gas phase
 ------------------------------------------------------------
 Charge =  0 Multiplicity = 1

                          Input orientation:
 ---------------------------------------------------------------------
 Center     Atomic      Atomic             Coordinates (Angstroms)
 Number     Number       Type             X           Y           Z
 ---------------------------------------------------------------------
      1          8           0        1.341812    0.131745   -1.487105
      2          6           0        1.659818   -0.308645   -0.381019
      3          7           0        0.790222   -0.288593    0.672872
      4          6           0       -0.513845    0.332032    0.566326
      5          6           0       -0.982912    0.684803    1.983341
      6          8           0       -2.081874    1.456043    2.075150
      7          8           0       -0.416902    0.291986    2.979530
      8          6           0       -1.524846   -0.597459   -0.177123
      9          6           0       -2.858048    0.033641   -0.448366
     10          6           0       -3.234612    1.153458   -1.166217
     11          7           0       -4.601040    1.337636   -1.117205
     12          6           0       -5.059748    0.347259   -0.383186
     13          7           0       -4.048915   -0.467882    0.048748
     14          6           0        3.024652   -0.919513   -0.106496
     15          6           0        4.167961    0.009905   -0.540930
     16          7           0        5.458138   -0.650909   -0.310705
     17          1           0        1.087194   -0.546890    1.606530
     18          1           0       -0.415840    1.253255   -0.021931
     19          1           0       -2.457698    1.640579    1.193838
     20          1           0       -1.648630   -1.516631    0.406683
     21          1           0       -1.039394   -0.871760   -1.118262
     22          1           0       -2.598404    1.816937   -1.736457
     23          1           0       -6.095976    0.170250   -0.131480
     24          1           0       -4.148658   -1.280934    0.639822
     25          1           0        3.080014   -1.851144   -0.685346
     26          1           0        3.149578   -1.185762    0.948123
     27          1           0        4.145891    0.917993    0.072795
     28          1           0        3.995135    0.316697   -1.581661
     29          1           0        5.600480   -1.410451   -0.972531
     30          1           0        6.226219    0.002255   -0.436025
 ---------------------------------------------------------------------

 SCF Done:  E(RB3LYP) =  -796.146310635     A.U. after    1 cycles

 Alpha  occ. eigenvalues --  -19.22483 -19.17103 -19.13598 -14.42161 -14.38379
 Alpha  occ. eigenvalues --  -14.34195 -14.33153 -10.35058 -10.30674 -10.27360
 Alpha  occ. eigenvalues --  -10.26543 -10.25336 -10.23588 -10.22500 -10.22379
 Alpha  occ. eigenvalues --  -10.20687  -1.13108  -1.05501  -1.04907  -1.04169
 Alpha  occ. eigenvalues --   -0.94834  -0.89813  -0.89415  -0.82745  -0.77914
 Alpha  occ. eigenvalues --   -0.75066  -0.69830  -0.65072  -0.64068  -0.63119
 Alpha  occ. eigenvalues --   -0.61817  -0.60128  -0.57644  -0.55476  -0.51395
 Alpha  occ. eigenvalues --   -0.50630  -0.49895  -0.49404  -0.47739  -0.46684
 Alpha  occ. eigenvalues --   -0.45895  -0.45383  -0.44685  -0.44346  -0.43166
 Alpha  occ. eigenvalues --   -0.42916  -0.41847  -0.40484  -0.40262  -0.38980
 Alpha  occ. eigenvalues --   -0.37808  -0.35367  -0.34705  -0.31056  -0.30710
 Alpha  occ. eigenvalues --   -0.29320  -0.28370  -0.27455  -0.25281  -0.24862
 Alpha virt. eigenvalues --   -0.03069  -0.01643  -0.00765  -0.00645   0.00203
 Alpha virt. eigenvalues --    0.00376   0.00868   0.01718   0.02322   0.02478
 Alpha virt. eigenvalues --    0.03536   0.03703   0.04496   0.04723   0.05555

 Mulliken charges:
               1
     1  O   -0.505615
     2  C    0.311365
     3  N   -0.233172
     4  C   -0.613073
     5  C    0.503226
     6  O   -0.342962
     7  O   -0.450051
     8  C   -0.671982
     9  C    0.287084
    10  C    0.154858
    11  N   -0.278970
    12  C    0.204469
    13  N   -0.339330
    14  C   -0.172208
    15  C   -0.282378
    16  N   -0.597720
    17  H    0.329157
    18  H    0.195005
    19  H    0.371969
    20  H    0.145138
    21  H    0.211839
    22  H    0.145430
    23  H    0.143679
    24  H    0.306901
    25  H    0.162592
    26  H    0.149999
    27  H    0.139362
    28  H    0.162859
    29  H    0.275706
    30  H    0.286823
 Sum of Mulliken charges =   0.00000

 Dipole moment (field-independent basis, Debye):
    X=              0.0465    Y=             -3.2125    Z=             -0.3844  Tot=              3.2357
 Quadrupole moment (field-independent basis, Debye-Ang):
   XX=            -84.6996   YY=            -93.6886   ZZ=           -116.0407
   XY=             15.1111   XZ=            -11.2828   YZ=              0.3556

  Exact polarizability: 188.349 -14.133 117.260   1.524  -9.917 129.629
 Approx polarizability: 223.618 -15.981 188.490   3.976 -28.375 203.927

                      1                      2                      3
                      A                      A                      A
 Frequencies --     21.9940                28.5103                42.6393
 Red. masses --      3.7135                 5.1699                 4.5842
 Frc consts  --      0.0011                 0.0025                 0.0049
 IR Inten    --      2.7203                 1.2626                 3.9243

                      4                      5                      6
                      A                      A                      A
 Frequencies --     57.3002                71.2821                77.9798
 Red. masses --      3.2409                 5.4456                 3.6134
 Frc consts  --      0.0063                 0.0163                 0.0129
 IR Inten    --      1.1863                14.8303                 2.6315

                      7                      8                      9
                      A                      A                      A
 Frequencies --     90.0601               106.9020               135.7507
 Red. masses --      5.2823                 6.0143                 4.5229
 Frc consts  --      0.0252                 0.0405                 0.0491
 IR Inten    --      2.2429                 2.5256                14.7574

                     10                     11                     12
                      A                      A                      A
 Frequencies --    195.7736               220.6775               240.3674
 Red. masses --      4.2875                 4.1272                 1.3503
 Frc consts  --      0.0968                 0.1184                 0.0460
 IR Inten    --      2.5621                19.2461                41.6684

                     13                     14                     15
                      A                      A                      A
 Frequencies --    277.5858               312.6406               328.0144
 Red. masses --      3.5914                 6.9058                 2.2549
 Frc consts  --      0.1630                 0.3977                 0.1429
 IR Inten    --     11.2123                 0.7603                 7.1489

                     16                     17                     18
                      A                      A                      A
 Frequencies --    349.4177               390.2224               402.9360
 Red. masses --      6.1083                 4.2083                 4.4486
 Frc consts  --      0.4394                 0.3776                 0.4255
 IR Inten    --      2.4009                23.7137                 7.1384

                     19                     20                     21
                      A                      A                      A
 Frequencies --    527.2872               542.4595               559.0325
 Red. masses --      2.1686                 1.4294                 1.7094
 Frc consts  --      0.3552                 0.2478                 0.3148
 IR Inten    --     26.4511                88.6666                50.6129

                     22                     23                     24
                      A                      A                      A
 Frequencies --    598.5244               631.0501               655.5908
 Red. masses --      1.4846                 2.9624                 2.3001
 Frc consts  --      0.3133                 0.6951                 0.5825
 IR Inten    --     80.8376                 2.2461                11.3108

                     25                     26                     27
                      A                      A                      A
 Frequencies --    661.5987               675.9915               733.5485
 Red. masses --      3.0202                 3.0318                 3.3541
 Frc consts  --      0.7789                 0.8163                 1.0634
 IR Inten    --     26.0682                12.4891                 1.7257

                     28                     29                     30
                      A                      A                      A
 Frequencies --    746.6734               769.3312               795.9526
 Red. masses --      5.5459                 3.9420                 1.2581
 Frc consts  --      1.8217                 1.3747                 0.4696
 IR Inten    --      7.3369                15.2448                22.0119

                     31                     32                     33
                      A                      A                      A
 Frequencies --    815.8815               822.0384               839.6523
 Red. masses --      1.7065                 1.8716                 1.3749
 Frc consts  --      0.6693                 0.7452                 0.5711
 IR Inten    --     11.2219                30.0170               112.5132

                     34                     35                     36
                      A                      A                      A
 Frequencies --    857.0196               930.4097               952.0877
 Red. masses --      1.3814                 5.9556                 3.1583
 Frc consts  --      0.5978                 3.0376                 1.6868
 IR Inten    --     30.2229                 8.6588                20.8477

                     37                     38                     39
                      A                      A                      A
 Frequencies --    980.6693              1010.2499              1024.4392
 Red. masses --      2.0469                 3.4941                 3.8688
 Frc consts  --      1.1598                 2.1011                 2.3922
 IR Inten    --      4.8395                 7.4530                 7.3760

                     40                     41                     42
                      A                      A                      A
 Frequencies --   1033.1433              1047.6239              1085.9912
 Red. masses --      3.4059                 2.2485                 2.6873
 Frc consts  --      2.1419                 1.4539                 1.8674
 IR Inten    --      2.0503                 6.3205                38.4999

                     43                     44                     45
                      A                      A                      A
 Frequencies --   1114.9571              1141.1021              1147.7212
 Red. masses --      1.6360                 2.0269                 2.0753
 Frc consts  --      1.1983                 1.5550                 1.6106
 IR Inten    --     17.0437                 9.1680                15.8104

                     46                     47                     48
                      A                      A                      A
 Frequencies --   1156.9422              1167.3309              1205.9042
 Red. masses --      1.8640                 1.4434                 2.0001
 Frc consts  --      1.4700                 1.1588                 1.7137
 IR Inten    --     31.5522                 4.8040                16.8635

                     49                     50                     51
                      A                      A                      A
 Frequencies --   1224.5081              1255.9093              1280.0729
 Red. masses --      1.5727                 1.9230                 1.4365
 Frc consts  --      1.3893                 1.7871                 1.3868
 IR Inten    --     30.0670                15.2507                 5.1465

                     52                     53                     54
                      A                      A                      A
 Frequencies --   1291.2042              1310.4448              1316.4098
 Red. masses --      1.3088                 1.3583                 1.3207
 Frc consts  --      1.2856                 1.3743                 1.3485
 IR Inten    --     12.7541                29.8862                52.8502

                     55                     56                     57
                      A                      A                      A
 Frequencies --   1323.0967              1357.7089              1358.4833
 Red. masses --      1.4901                 1.3538                 1.3928
 Frc consts  --      1.5369                 1.4703                 1.5144
 IR Inten    --     41.1431                17.6796               108.5057

                     58                     59                     60
                      A                      A                      A
 Frequencies --   1398.5550              1408.0143              1424.8848
 Red. masses --      2.4672                 2.0913                 1.4316
 Frc consts  --      2.8432                 2.4428                 1.7125
 IR Inten    --     82.0630                89.3051                47.7337

                     61                     62                     63
                      A                      A                      A
 Frequencies --   1437.2694              1482.6721              1488.2592
 Red. masses --      3.2002                 1.1041                 1.2288
 Frc consts  --      3.8949                 1.4301                 1.6036
 IR Inten    --     20.7077                 9.6565                13.2825

                     64                     65                     66
                      A                      A                      A
 Frequencies --   1499.2251              1523.6639              1525.9383
 Red. masses --      3.1514                 1.0952                 2.2478
 Frc consts  --      4.1734                 1.4980                 3.0837
 IR Inten    --     25.8450                11.3657               334.2911

                     67                     68                     69
                      A                      A                      A
 Frequencies --   1601.7654              1665.7050              1728.8421
 Red. masses --      4.0652                 1.0905                 9.4040
 Frc consts  --      6.1451                 1.7827                16.5606
 IR Inten    --     10.6258                37.9017               237.0040

                     70                     71                     72
                      A                      A                      A
 Frequencies --   1828.0703              3018.6756              3038.8098
 Red. masses --      9.7793                 1.0634                 1.0655
 Frc consts  --     19.2551                 5.7093                 5.7969
 IR Inten    --    308.2421                29.1855                11.8855

                     73                     74                     75
                      A                      A                      A
 Frequencies --   3049.1932              3060.9662              3069.4041
 Red. masses --      1.0767                 1.0687                 1.0962
 Frc consts  --      5.8980                 5.8997                 6.0849
 IR Inten    --      6.1898                18.6006                18.6953

                     76                     77                     78
                      A                      A                      A
 Frequencies --   3100.3538              3111.3882              3254.4908
 Red. masses --      1.1022                 1.1032                 1.0961
 Frc consts  --      6.2421                 6.2926                 6.8404
 IR Inten    --     25.9235                 1.9418                 3.4775

                     79                     80                     81
                      A                      A                      A
 Frequencies --   3268.6395              3502.9296              3593.2140
 Red. masses --      1.0976                 1.0500                 1.0932
 Frc consts  --      6.9094                 7.5910                 8.3160
 IR Inten    --      0.9823                 0.3226                 1.8113

                     82                     83                     84
                      A                      A                      A
 Frequencies --   3599.3743              3651.9245              3657.1048
 Red. masses --      1.0782                 1.0812                 1.0675
 Frc consts  --      8.2298                 8.4957                 8.4117
 IR Inten    --     76.4687                53.1817               261.3098

 - Thermochemistry -
 -------------------
 Temperature   298.150 Kelvin.  Pressure   1.00000 Atm.
 Atom     1 has atomic number  8 and mass  15.99491

 Molecular mass:   226.10659 amu.
 Principal axes and moments of inertia in atomic units:
                           1         2         3
     Eigenvalues --  1596.471988023.948918989.59058
           X            0.99137   0.03828   0.12538
           Y           -0.12880   0.10610   0.98598
           Z           -0.02444   0.99362  -0.11011
 This molecule is an asymmetric top.
 Rotational symmetry number  1.
 Warning -- assumption of classical behavior for rotation
           may cause significant error
 Rotational temperatures (Kelvin)      0.05425     0.01079     0.00963
 Rotational constants (GHZ):           1.13046     0.22492     0.20076
 Zero-point vibrational energy     641721.3 (Joules/Mol)
                                  153.37508 (Kcal/Mol)
 Warning -- explicit consideration of  22 degrees of freedom as
           vibrations may cause significant error
 Vibrational temperatures:     31.64    41.02    61.35    82.44   102.56
          (Kelvin)            112.20   129.58   153.81   195.31   281.67
                              317.51   345.83   399.38   449.82   471.94
                              502.73   561.44   579.73   758.65   780.48
                              804.32   861.14   907.94   943.25   951.89
                              972.60  1055.41  1074.30  1106.89  1145.20
                             1173.87  1182.73  1208.07  1233.06  1338.65
                             1369.84  1410.96  1453.52  1473.94  1486.46
                             1507.30  1562.50  1604.17  1641.79  1651.31
                             1664.58  1679.53  1735.03  1761.79  1806.97
                             1841.74  1857.75  1885.44  1894.02  1903.64
                             1953.44  1954.55  2012.21  2025.82  2050.09
                             2067.91  2133.23  2141.27  2157.05  2192.21
                             2195.48  2304.58  2396.58  2487.42  2630.18
                             4343.20  4372.16  4387.10  4404.04  4416.18
                             4460.71  4476.59  4682.48  4702.84  5039.93
                             5169.83  5178.69  5254.30  5261.75

 Zero-point correction=                           0.244419 (Hartree/Particle)
 Thermal correction to Energy=                    0.260718
 Thermal correction to Enthalpy=                  0.261662
 Thermal correction to Gibbs Free Energy=         0.197450
 Sum of electronic and zero-point Energies=           -795.901892
 Sum of electronic and thermal Energies=              -795.885593
 Sum of electronic and thermal Enthalpies=            -795.884649
 Sum of electronic and thermal Free Energies=         -795.948861

                     E (Thermal)             CV                S
                      KCal/Mol        Cal/Mol-Kelvin    Cal/Mol-Kelvin
 Total                  163.603             58.652            135.145
 Electronic               0.000              0.000              0.000
 Translational            0.889              2.981             42.150
 Rotational               0.889              2.981             33.110
 Vibrational            161.825             52.691             59.886
 Vibration     1          0.593              1.985              6.446
 Vibration     2          0.593              1.984              5.930
 Vibration     3          0.595              1.980              5.133
 Vibration     4          0.596              1.975              4.548
 Vibration     5          0.598              1.968              4.118
 Vibration     6          0.599              1.964              3.941
 Vibration     7          0.602              1.956              3.659
 Vibration     8          0.606              1.944              3.324
 Vibration     9          0.614              1.918              2.863
 Vibration    10          0.636              1.846              2.172
 Vibration    11          0.647              1.810              1.954
 Vibration    12          0.657              1.779              1.800
 Vibration    13          0.679              1.715              1.549
 Vibration    14          0.701              1.650              1.348
 Vibration    15          0.711              1.620              1.270
 Vibration    16          0.727              1.576              1.169
 Vibration    17          0.758              1.491              0.999
 Vibration    18          0.768              1.464              0.952
 Vibration    19          0.882              1.190              0.593
 Vibration    20          0.898              1.156              0.560
 Vibration    21          0.915              1.120              0.526
 Vibration    22          0.957              1.035              0.452

 Optimization completed.
    -- Stationary point found.
 Normal termination of Gaussian 09 at Thu Jul 29 00:08:43 2021.
