 Gaussian 09, Revision D.01,
 Gaussian 09:  ES64L-G09RevD.01 24-Apr-2013

 ----------------------------------------------------------------------
 # B3LYP/6-31+G(d,p) opt=calcfc freq=noraman nosymm integral(ultrafineg
 rid)
 ----------------------------------------------------------------------

 ------------------------------------------------------------
 Candidate Structure: Conf:683 OPT and FREQ calc in gas phase
 ------------------------------------------------------------
 Symbolic Z-matrix:
 Charge =  0 Multiplicity = 1

 SCF Done:  E(RB3LYP) =  -796.156396002     A.U. after   15 cycles
 SCF Done:  E(RB3LYP) =  -796.159582878     A.U. after   13 cycles
 SCF Done:  E(RB3LYP) =  -796.160210726     A.U. after   13 cycles
 SCF Done:  E(RB3LYP) =  -796.158617630     A.U. after   16 cycles
 SCF Done:  E(RB3LYP) =  -796.160284302     A.U. after   12 cycles
 SCF Done:  E(RB3LYP) =  -796.160376850     A.U. after   13 cycles
 SCF Done:  E(RB3LYP) =  -796.160385280     A.U. after   12 cycles
 SCF Done:  E(RB3LYP) =  -796.160386940     A.U. after   11 cycles
 SCF Done:  E(RB3LYP) =  -796.160387004     A.U. after    8 cycles
 Optimization completed.
    -- Stationary point found.
 Normal termination of Gaussian 09 at Wed Jul 28 23:20:45 2021.

 ----------------------------------------------------------------------
 #N Geom=AllCheck Guess=TCheck SCRF=Check GenChk RB3LYP/6-31+G(d,p) Fre
 q
 ----------------------------------------------------------------------

 Structure from the checkpoint file:  "conf-683.chk"
 ------------------------------------------------------------
 Candidate Structure: Conf:683 OPT and FREQ calc in gas phase
 ------------------------------------------------------------
 Charge =  0 Multiplicity = 1

                          Input orientation:
 ---------------------------------------------------------------------
 Center     Atomic      Atomic             Coordinates (Angstroms)
 Number     Number       Type             X           Y           Z
 ---------------------------------------------------------------------
      1          8           0       -0.605201    0.084528   -2.152752
      2          6           0        0.353861    0.367348   -1.418319
      3          7           0        0.211235    0.670272   -0.104427
      4          6           0       -1.088505    0.825912    0.513279
      5          6           0       -1.131776    2.149328    1.271131
      6          8           0       -2.396781    2.477914    1.620555
      7          8           0       -0.170500    2.829143    1.559311
      8          6           0       -1.488724   -0.330624    1.474717
      9          6           0       -1.434286   -1.707247    0.879112
     10          6           0       -1.271715   -2.935884    1.483962
     11          7           0       -1.379020   -3.957367    0.565653
     12          6           0       -1.597471   -3.357059   -0.587239
     13          7           0       -1.659872   -1.997944   -0.454246
     14          6           0        1.780636    0.349747   -1.960402
     15          6           0        2.763168    1.368180   -1.363077
     16          7           0        3.024399    1.092538    0.061041
     17          1           0        1.064224    0.900759    0.415112
     18          1           0       -1.826834    0.882081   -0.292941
     19          1           0       -2.354606    3.310471    2.121784
     20          1           0       -0.833711   -0.311616    2.353719
     21          1           0       -2.501569   -0.107296    1.832309
     22          1           0       -1.094180   -3.137294    2.531996
     23          1           0       -1.712433   -3.847257   -1.543964
     24          1           0       -1.638176   -1.322222   -1.218330
     25          1           0        2.170969   -0.668764   -1.822814
     26          1           0        1.695044    0.502577   -3.039594
     27          1           0        2.332795    2.373392   -1.429640
     28          1           0        3.676659    1.368589   -1.976129
     29          1           0        3.600607    0.261939    0.175556
     30          1           0        3.511860    1.865846    0.504418
 ---------------------------------------------------------------------

 SCF Done:  E(RB3LYP) =  -796.160387004     A.U. after    1 cycles

 Alpha  occ. eigenvalues --  -19.23126 -19.17609 -19.13823 -14.37918 -14.37437
 Alpha  occ. eigenvalues --  -14.35555 -14.30988 -10.35198 -10.30803 -10.26514
 Alpha  occ. eigenvalues --  -10.24272 -10.23079 -10.22084 -10.21943 -10.21440
 Alpha  occ. eigenvalues --  -10.19156  -1.13874  -1.05387  -1.04837  -1.00503
 Alpha  occ. eigenvalues --   -0.94553  -0.91428  -0.86269  -0.81516  -0.77647
 Alpha  occ. eigenvalues --   -0.74678  -0.68284  -0.66369  -0.63152  -0.60423
 Alpha  occ. eigenvalues --   -0.59481  -0.58094  -0.55189  -0.53046  -0.52230
 Alpha  occ. eigenvalues --   -0.51676  -0.49799  -0.48910  -0.47667  -0.47449
 Alpha  occ. eigenvalues --   -0.45982  -0.45252  -0.43729  -0.42801  -0.41678
 Alpha  occ. eigenvalues --   -0.41329  -0.40775  -0.40159  -0.39790  -0.38892
 Alpha  occ. eigenvalues --   -0.38395  -0.36320  -0.35194  -0.31081  -0.28395
 Alpha  occ. eigenvalues --   -0.27968  -0.27425  -0.27191  -0.26145  -0.21905
 Alpha virt. eigenvalues --   -0.02704  -0.01975  -0.01024   0.00108   0.01106
 Alpha virt. eigenvalues --    0.01586   0.02256   0.02464   0.02737   0.03296
 Alpha virt. eigenvalues --    0.04061   0.04999   0.05005   0.06007   0.06327

 Mulliken charges:
               1
     1  O   -0.509438
     2  C    0.056535
     3  N   -0.214258
     4  C   -0.433762
     5  C    0.613882
     6  O   -0.418833
     7  O   -0.428092
     8  C   -0.944174
     9  C    0.505736
    10  C    0.043080
    11  N   -0.288378
    12  C    0.217220
    13  N   -0.321301
    14  C   -0.093344
    15  C   -0.209378
    16  N   -0.724422
    17  H    0.392336
    18  H    0.193141
    19  H    0.377125
    20  H    0.158565
    21  H    0.189551
    22  H    0.118633
    23  H    0.131145
    24  H    0.339257
    25  H    0.172640
    26  H    0.178267
    27  H    0.159260
    28  H    0.138850
    29  H    0.298992
    30  H    0.301164
 Sum of Mulliken charges =   0.00000

 Dipole moment (field-independent basis, Debye):
    X=              3.2906    Y=              4.8772    Z=              0.3880  Tot=              5.8963
 Quadrupole moment (field-independent basis, Debye-Ang):
   XX=            -82.4778   YY=           -113.0439   ZZ=            -93.5868
   XY=             -7.1611   XZ=             -6.3081   YZ=              6.4354

  Exact polarizability: 133.195   8.937 155.716  -6.411  10.167 141.353
 Approx polarizability: 187.494   5.517 212.554   9.984  12.084 217.327

                      1                      2                      3
                      A                      A                      A
 Frequencies --     24.8989                44.1704                53.7130
 Red. masses --      5.0512                10.7691                 3.7668
 Frc consts  --      0.0018                 0.0124                 0.0064
 IR Inten    --      4.7360                 2.3917                 1.8847

                      4                      5                      6
                      A                      A                      A
 Frequencies --     67.9052                87.2940               102.4397
 Red. masses --      4.0905                 4.0398                 5.0634
 Frc consts  --      0.0111                 0.0181                 0.0313
 IR Inten    --      0.9977                 2.4125                 1.8889

                      7                      8                      9
                      A                      A                      A
 Frequencies --    117.3924               138.5161               179.8882
 Red. masses --      4.0440                 6.3402                 6.6199
 Frc consts  --      0.0328                 0.0717                 0.1262
 IR Inten    --      7.4002                14.1929                 1.3908

                     10                     11                     12
                      A                      A                      A
 Frequencies --    201.8079               221.7465               263.5415
 Red. masses --      2.2470                 5.0449                 3.9777
 Frc consts  --      0.0539                 0.1462                 0.1628
 IR Inten    --      3.0784                 9.2468                 1.0030

                     13                     14                     15
                      A                      A                      A
 Frequencies --    304.9929               306.8188               343.9894
 Red. masses --      3.7299                 1.6437                 4.3524
 Frc consts  --      0.2044                 0.0912                 0.3034
 IR Inten    --      1.7246                11.6092                 0.1630

                     16                     17                     18
                      A                      A                      A
 Frequencies --    353.7655               430.9345               485.6793
 Red. masses --      2.7622                 3.3347                 2.8661
 Frc consts  --      0.2037                 0.3649                 0.3983
 IR Inten    --      7.3619                15.4981                12.5457

                     19                     20                     21
                      A                      A                      A
 Frequencies --    512.6237               585.5039               599.2483
 Red. masses --      3.0252                 3.2147                 1.4390
 Frc consts  --      0.4684                 0.6493                 0.3045
 IR Inten    --     39.4060                 8.6163                82.2931

                     22                     23                     24
                      A                      A                      A
 Frequencies --    625.4531               640.8006               669.0369
 Red. masses --      3.6890                 4.5655                 3.5551
 Frc consts  --      0.8503                 1.1046                 0.9376
 IR Inten    --     13.6038                38.1937                38.5155

                     25                     26                     27
                      A                      A                      A
 Frequencies --    683.5680               694.2096               744.0860
 Red. masses --      3.1659                 3.2694                 1.2014
 Frc consts  --      0.8716                 0.9283                 0.3919
 IR Inten    --     34.7664                21.0599                97.0494

                     28                     29                     30
                      A                      A                      A
 Frequencies --    776.4555               803.5971               809.5838
 Red. masses --      3.8151                 1.1847                 1.3833
 Frc consts  --      1.3551                 0.4508                 0.5342
 IR Inten    --     12.7339                65.8228                18.6698

                     31                     32                     33
                      A                      A                      A
 Frequencies --    833.8212               841.3301               876.5605
 Red. masses --      1.3573                 1.4195                 2.7735
 Frc consts  --      0.5560                 0.5920                 1.2556
 IR Inten    --     15.3215                85.4935                 2.8223

                     34                     35                     36
                      A                      A                      A
 Frequencies --    896.5766               912.2091               934.7698
 Red. masses --      2.3539                 1.9430                 5.8064
 Frc consts  --      1.1148                 0.9526                 2.9893
 IR Inten    --     20.9943                39.1969                15.5300

                     37                     38                     39
                      A                      A                      A
 Frequencies --    958.9627               989.6022              1010.9468
 Red. masses --      2.5331                 2.3131                 2.4763
 Frc consts  --      1.3725                 1.3346                 1.4911
 IR Inten    --      4.5543                 2.2535                10.7516

                     40                     41                     42
                      A                      A                      A
 Frequencies --   1023.5840              1048.8693              1084.2593
 Red. masses --      2.4149                 3.0596                 2.6781
 Frc consts  --      1.4907                 1.9832                 1.8550
 IR Inten    --     35.8842                11.0345                 8.4586

                     43                     44                     45
                      A                      A                      A
 Frequencies --   1130.9153              1144.9126              1156.7714
 Red. masses --      3.1820                 2.0806                 1.4415
 Frc consts  --      2.3978                 1.6069                 1.1365
 IR Inten    --    122.3980                23.2042                51.2678

                     46                     47                     48
                      A                      A                      A
 Frequencies --   1158.5927              1177.5510              1232.8240
 Red. masses --      1.6968                 2.1472                 1.4529
 Frc consts  --      1.3420                 1.7542                 1.3011
 IR Inten    --     10.1105                91.9125                 8.3555

                     49                     50                     51
                      A                      A                      A
 Frequencies --   1266.6924              1267.6139              1280.0516
 Red. masses --      1.7808                 1.3756                 1.5298
 Frc consts  --      1.6835                 1.3023                 1.4769
 IR Inten    --      0.8473                26.0587                 9.9338

                     52                     53                     54
                      A                      A                      A
 Frequencies --   1286.2600              1313.7217              1314.4681
 Red. masses --      1.4958                 1.5194                 1.4744
 Frc consts  --      1.4581                 1.5450                 1.5010
 IR Inten    --      4.6946                 6.1359                 6.6570

                     55                     56                     57
                      A                      A                      A
 Frequencies --   1341.9785              1366.3647              1374.5297
 Red. masses --      1.7677                 1.4112                 1.4970
 Frc consts  --      1.8756                 1.5523                 1.6664
 IR Inten    --     16.2023                14.5496                13.1038

                     58                     59                     60
                      A                      A                      A
 Frequencies --   1396.5447              1400.6808              1422.1925
 Red. masses --      2.3031                 2.5491                 1.4139
 Frc consts  --      2.6466                 2.9466                 1.6850
 IR Inten    --     30.3702                73.2242                18.1269

                     61                     62                     63
                      A                      A                      A
 Frequencies --   1463.3955              1466.1481              1489.5539
 Red. masses --      2.2171                 1.0820                 1.1818
 Frc consts  --      2.7974                 1.3704                 1.5449
 IR Inten    --     39.2071                13.5294                16.9182

                     64                     65                     66
                      A                      A                      A
 Frequencies --   1506.0728              1514.6486              1587.5578
 Red. masses --      3.2555                 1.0838                 1.9469
 Frc consts  --      4.3507                 1.4649                 2.8911
 IR Inten    --     21.6869                 4.0354               284.5158

                     67                     68                     69
                      A                      A                      A
 Frequencies --   1612.6221              1659.1245              1702.5549
 Red. masses --      3.5617                 1.0912                 7.2651
 Frc consts  --      5.4573                 1.7698                12.4077
 IR Inten    --     13.3142                41.8738               323.4598

                     70                     71                     72
                      A                      A                      A
 Frequencies --   1816.7949              3000.5208              3034.6874
 Red. masses --     10.0920                 1.0710                 1.0704
 Frc consts  --     19.6264                 5.6812                 5.8081
 IR Inten    --    289.1933                78.4164                 5.8402

                     73                     74                     75
                      A                      A                      A
 Frequencies --   3039.2194              3074.3848              3082.5580
 Red. masses --      1.0601                 1.0987                 1.0931
 Frc consts  --      5.7695                 6.1184                 6.1198
 IR Inten    --     18.6409                 5.7810                20.6739

                     76                     77                     78
                      A                      A                      A
 Frequencies --   3093.3824              3117.0812              3247.0163
 Red. masses --      1.0878                 1.0934                 1.0958
 Frc consts  --      6.1330                 6.2592                 6.8070
 IR Inten    --     10.1453                 7.2212                 8.2439

                     79                     80                     81
                      A                      A                      A
 Frequencies --   3263.4210              3381.7359              3474.4210
 Red. masses --      1.0968                 1.0827                 1.0859
 Frc consts  --      6.8822                 7.2954                 7.7234
 IR Inten    --      1.4009               391.9121               334.2745

                     82                     83                     84
                      A                      A                      A
 Frequencies --   3508.8563              3598.9368              3749.1136
 Red. masses --      1.0503                 1.0937                 1.0645
 Frc consts  --      7.6186                 8.3463                 8.8158
 IR Inten    --      0.5038                 6.8493                80.9183

 - Thermochemistry -
 -------------------
 Temperature   298.150 Kelvin.  Pressure   1.00000 Atm.
 Atom     1 has atomic number  8 and mass  15.99491

 Molecular mass:   226.10659 amu.
 Principal axes and moments of inertia in atomic units:
                           1         2         3
     Eigenvalues --  3050.169634502.855116210.93271
           X            0.49413   0.64442   0.58357
           Y            0.86491  -0.43245  -0.25481
           Z           -0.08816  -0.63065   0.77105
 This molecule is an asymmetric top.
 Rotational symmetry number  1.
 Warning -- assumption of classical behavior for rotation
           may cause significant error
 Rotational temperatures (Kelvin)      0.02840     0.01924     0.01395
 Rotational constants (GHZ):           0.59169     0.40080     0.29057
 Zero-point vibrational energy     644796.9 (Joules/Mol)
                                  154.11016 (Kcal/Mol)
 Warning -- explicit consideration of  21 degrees of freedom as
           vibrations may cause significant error
 Vibrational temperatures:     35.82    63.55    77.28    97.70   125.60
          (Kelvin)            147.39   168.90   199.29   258.82   290.36
                              319.04   379.18   438.82   441.44   494.92
                              508.99   620.02   698.78   737.55   842.41
                              862.18   899.89   921.97   962.59   983.50
                              998.81  1070.57  1117.14  1156.20  1164.81
                             1199.68  1210.48  1261.17  1289.97  1312.46
                             1344.92  1379.73  1423.82  1454.53  1472.71
                             1509.09  1560.01  1627.13  1647.27  1664.33
                             1666.95  1694.23  1773.76  1822.49  1823.81
                             1841.71  1850.64  1890.15  1891.22  1930.81
                             1965.89  1977.64  2009.31  2015.26  2046.22
                             2105.50  2109.46  2143.13  2166.90  2179.24
                             2284.14  2320.20  2387.11  2449.59  2613.96
                             4317.07  4366.23  4372.75  4423.35  4435.11
                             4450.68  4484.78  4671.73  4695.33  4865.56
                             4998.91  5048.46  5178.06  5394.13

 Zero-point correction=                           0.245590 (Hartree/Particle)
 Thermal correction to Energy=                    0.261203
 Thermal correction to Enthalpy=                  0.262147
 Thermal correction to Gibbs Free Energy=         0.200752
 Sum of electronic and zero-point Energies=           -795.914797
 Sum of electronic and thermal Energies=              -795.899184
 Sum of electronic and thermal Enthalpies=            -795.898240
 Sum of electronic and thermal Free Energies=         -795.959635

                     E (Thermal)             CV                S
                      KCal/Mol        Cal/Mol-Kelvin    Cal/Mol-Kelvin
 Total                  163.907             57.474            129.217
 Electronic               0.000              0.000              0.000
 Translational            0.889              2.981             42.150
 Rotational               0.889              2.981             32.811
 Vibrational            162.130             51.512             54.256
 Vibration     1          0.593              1.985              6.199
 Vibration     2          0.595              1.980              5.063
 Vibration     3          0.596              1.976              4.676
 Vibration     4          0.598              1.970              4.213
 Vibration     5          0.601              1.958              3.720
 Vibration     6          0.605              1.947              3.407
 Vibration     7          0.608              1.935              3.143
 Vibration     8          0.614              1.915              2.824
 Vibration     9          0.629              1.867              2.330
 Vibration    10          0.639              1.837              2.117
 Vibration    11          0.648              1.808              1.945
 Vibration    12          0.670              1.740              1.638
 Vibration    13          0.696              1.664              1.389
 Vibration    14          0.697              1.661              1.379
 Vibration    15          0.723              1.587              1.194
 Vibration    16          0.730              1.568              1.149
 Vibration    17          0.792              1.403              0.856
 Vibration    18          0.842              1.282              0.695
 Vibration    19          0.868              1.222              0.627
 Vibration    20          0.943              1.063              0.475
 Vibration    21          0.957              1.033              0.451

 Optimization completed.
    -- Stationary point found.
 Normal termination of Gaussian 09 at Thu Jul 29 00:03:31 2021.
