 Gaussian 09, Revision D.01,
 Gaussian 09:  ES64L-G09RevD.01 24-Apr-2013

 ----------------------------------------------------------------------
 # B3LYP/6-31+G(d,p) opt=calcfc freq=noraman nosymm integral(ultrafineg
 rid)
 ----------------------------------------------------------------------

 ------------------------------------------------------------
 Candidate Structure: Conf:455 OPT and FREQ calc in gas phase
 ------------------------------------------------------------
 Symbolic Z-matrix:
 Charge =  0 Multiplicity = 1

 SCF Done:  E(RB3LYP) =  -796.135086534     A.U. after   15 cycles
 SCF Done:  E(RB3LYP) =  -796.137646720     A.U. after   12 cycles
 SCF Done:  E(RB3LYP) =  -796.138102474     A.U. after   13 cycles
 SCF Done:  E(RB3LYP) =  -796.138245297     A.U. after   13 cycles
 SCF Done:  E(RB3LYP) =  -796.138290634     A.U. after   12 cycles
 SCF Done:  E(RB3LYP) =  -796.138294166     A.U. after   13 cycles
 SCF Done:  E(RB3LYP) =  -796.138307084     A.U. after   12 cycles
 SCF Done:  E(RB3LYP) =  -796.138308834     A.U. after   11 cycles
 SCF Done:  E(RB3LYP) =  -796.138309031     A.U. after    9 cycles
 SCF Done:  E(RB3LYP) =  -796.138309056     A.U. after    9 cycles
 Optimization completed.
    -- Stationary point found.
 Normal termination of Gaussian 09 at Wed Jul 28 23:20:48 2021.

 ----------------------------------------------------------------------
 #N Geom=AllCheck Guess=TCheck SCRF=Check GenChk RB3LYP/6-31+G(d,p) Fre
 q
 ----------------------------------------------------------------------

 Structure from the checkpoint file:  "conf-455.chk"
 ------------------------------------------------------------
 Candidate Structure: Conf:455 OPT and FREQ calc in gas phase
 ------------------------------------------------------------
 Charge =  0 Multiplicity = 1

                          Input orientation:
 ---------------------------------------------------------------------
 Center     Atomic      Atomic             Coordinates (Angstroms)
 Number     Number       Type             X           Y           Z
 ---------------------------------------------------------------------
      1          8           0        0.364825   -0.589879   -1.210734
      2          6           0        1.016143   -0.342640   -0.192004
      3          7           0        0.530597   -0.589404    1.063170
      4          6           0       -0.578584   -1.486125    1.352929
      5          6           0       -0.109257   -2.956959    1.194649
      6          8           0       -1.071521   -3.910436    1.259451
      7          8           0        1.048146   -3.271732    1.082327
      8          6           0       -1.902920   -1.179959    0.588505
      9          6           0       -2.307007    0.259732    0.562849
     10          6           0       -3.128197    1.016660    1.371915
     11          7           0       -3.206708    2.313710    0.916771
     12          6           0       -2.445699    2.347745   -0.159976
     13          7           0       -1.882318    1.132212   -0.419531
     14          6           0        2.395848    0.294008   -0.257340
     15          6           0        2.463841    1.461908   -1.266687
     16          7           0        3.784525    2.051121   -1.462418
     17          1           0        1.188845   -0.470094    1.820166
     18          1           0       -0.789967   -1.354948    2.421887
     19          1           0       -1.959215   -3.525712    1.292971
     20          1           0       -2.711183   -1.726255    1.092437
     21          1           0       -1.827192   -1.562770   -0.431878
     22          1           0       -3.675031    0.695015    2.248484
     23          1           0       -2.274569    3.212927   -0.785200
     24          1           0       -1.233315    0.882992   -1.157705
     25          1           0        2.724440    0.631440    0.733458
     26          1           0        3.087533   -0.498778   -0.572056
     27          1           0        2.095130    1.108995   -2.233585
     28          1           0        1.785207    2.259558   -0.941277
     29          1           0        4.171642    2.418777   -0.597837
     30          1           0        4.445869    1.378788   -1.840784
 ---------------------------------------------------------------------

 SCF Done:  E(RB3LYP) =  -796.138309056     A.U. after    1 cycles

 Alpha  occ. eigenvalues --  -19.23150 -19.17028 -19.15142 -14.39782 -14.39743
 Alpha  occ. eigenvalues --  -14.33657 -14.32482 -10.35062 -10.32153 -10.28463
 Alpha  occ. eigenvalues --  -10.24766 -10.23997 -10.23495 -10.23019 -10.21676
 Alpha  occ. eigenvalues --  -10.20905  -1.13327  -1.06834  -1.05186  -1.02252
 Alpha  occ. eigenvalues --   -0.96092  -0.90040  -0.87929  -0.82813  -0.77955
 Alpha  occ. eigenvalues --   -0.75074  -0.69632  -0.65971  -0.64072  -0.62109
 Alpha  occ. eigenvalues --   -0.61030  -0.59901  -0.57099  -0.54429  -0.54386
 Alpha  occ. eigenvalues --   -0.52278  -0.50043  -0.48282  -0.47398  -0.46705
 Alpha  occ. eigenvalues --   -0.46240  -0.44803  -0.44416  -0.43579  -0.43005
 Alpha  occ. eigenvalues --   -0.42451  -0.41719  -0.41519  -0.40673  -0.39990
 Alpha  occ. eigenvalues --   -0.38624  -0.36220  -0.34857  -0.31017  -0.29861
 Alpha  occ. eigenvalues --   -0.29046  -0.28686  -0.27692  -0.25321  -0.23698
 Alpha virt. eigenvalues --   -0.03593  -0.02504  -0.02053  -0.01057  -0.00208
 Alpha virt. eigenvalues --    0.00692   0.00964   0.01837   0.02638   0.02854
 Alpha virt. eigenvalues --    0.03763   0.04305   0.04676   0.05060   0.05282

 Mulliken charges:
               1
     1  O   -0.504516
     2  C    0.092954
     3  N   -0.305652
     4  C   -0.166916
     5  C    0.391124
     6  O   -0.371271
     7  O   -0.394700
     8  C   -0.657703
     9  C    0.292361
    10  C   -0.023908
    11  N   -0.289035
    12  C    0.222560
    13  N   -0.309564
    14  C   -0.044568
    15  C   -0.288955
    16  N   -0.604617
    17  H    0.316016
    18  H    0.176708
    19  H    0.341078
    20  H    0.125448
    21  H    0.203527
    22  H    0.120753
    23  H    0.136253
    24  H    0.335705
    25  H    0.131018
    26  H    0.184102
    27  H    0.174309
    28  H    0.146702
    29  H    0.283358
    30  H    0.287429
 Sum of Mulliken charges =   0.00000

 Dipole moment (field-independent basis, Debye):
    X=              1.1751    Y=             -0.4870    Z=              1.9280  Tot=              2.3098
 Quadrupole moment (field-independent basis, Debye-Ang):
   XX=            -95.6490   YY=           -118.1957   ZZ=            -93.8311
   XY=             17.8267   XZ=              4.0374   YZ=             -3.2666

  Exact polarizability: 152.598  -3.261 154.347 -16.772 -13.962 124.185
 Approx polarizability: 207.561  -6.986 209.159 -19.644  -6.949 203.678

                      1                      2                      3
                      A                      A                      A
 Frequencies --     18.2255                26.4156                46.9713
 Red. masses --      4.9300                 5.0454                 3.4999
 Frc consts  --      0.0010                 0.0021                 0.0045
 IR Inten    --      0.9886                 3.2713                10.1390

                      4                      5                      6
                      A                      A                      A
 Frequencies --     64.5490                73.1864                87.9093
 Red. masses --      3.1483                 4.7082                 2.9108
 Frc consts  --      0.0077                 0.0149                 0.0133
 IR Inten    --      3.5765                 6.8888                 1.3191

                      7                      8                      9
                      A                      A                      A
 Frequencies --     89.5790               116.0444               153.7726
 Red. masses --      6.1554                 5.7679                 4.5875
 Frc consts  --      0.0291                 0.0458                 0.0639
 IR Inten    --      2.3973                11.7861                 9.7179

                     10                     11                     12
                      A                      A                      A
 Frequencies --    194.8338               213.2695               281.3215
 Red. masses --      5.8036                 5.5739                 6.1802
 Frc consts  --      0.1298                 0.1494                 0.2882
 IR Inten    --      3.5184                10.6292                 4.1459

                     13                     14                     15
                      A                      A                      A
 Frequencies --    291.8271               325.7917               339.5871
 Red. masses --      1.0961                 3.9492                 5.3509
 Frc consts  --      0.0550                 0.2470                 0.3636
 IR Inten    --     46.3571                 2.8319                22.4265

                     16                     17                     18
                      A                      A                      A
 Frequencies --    342.3331               396.2833               406.1137
 Red. masses --      2.4523                 3.5316                 2.8147
 Frc consts  --      0.1693                 0.3268                 0.2735
 IR Inten    --      2.2034                18.7366                21.4528

                     19                     20                     21
                      A                      A                      A
 Frequencies --    473.8187               524.9660               544.8834
 Red. masses --      1.3464                 4.2370                 1.3584
 Frc consts  --      0.1781                 0.6880                 0.2376
 IR Inten    --     59.1111                 7.1321                63.5076

                     22                     23                     24
                      A                      A                      A
 Frequencies --    594.3203               623.5430               653.5230
 Red. masses --      3.6911                 2.7222                 3.3203
 Frc consts  --      0.7682                 0.6236                 0.8355
 IR Inten    --     10.0590                40.1570                16.3084

                     25                     26                     27
                      A                      A                      A
 Frequencies --    671.0000               701.4302               717.6940
 Red. masses --      4.0689                 4.1116                 1.2909
 Frc consts  --      1.0794                 1.1919                 0.3918
 IR Inten    --     35.5943                 3.4997                54.3108

                     28                     29                     30
                      A                      A                      A
 Frequencies --    755.2135               761.5465               784.0957
 Red. masses --      5.2753                 1.4933                 2.0266
 Frc consts  --      1.7727                 0.5103                 0.7341
 IR Inten    --      7.5852                 5.5250                25.8228

                     31                     32                     33
                      A                      A                      A
 Frequencies --    800.1455               815.9957               837.0345
 Red. masses --      1.5606                 1.3940                 1.7207
 Frc consts  --      0.5887                 0.5469                 0.7103
 IR Inten    --    217.2707                23.6627                23.0988

                     34                     35                     36
                      A                      A                      A
 Frequencies --    859.9747               921.0483               925.7179
 Red. masses --      2.5432                 3.0329                 4.1919
 Frc consts  --      1.1081                 1.5159                 2.1165
 IR Inten    --      3.4548                 7.0812                 6.2283

                     37                     38                     39
                      A                      A                      A
 Frequencies --    937.9606               975.6677              1025.0003
 Red. masses --      5.1524                 1.3871                 4.1399
 Frc consts  --      2.6707                 0.7779                 2.5626
 IR Inten    --      8.6840                 0.9302                23.7286

                     40                     41                     42
                      A                      A                      A
 Frequencies --   1028.7869              1039.3437              1094.4475
 Red. masses --      4.1761                 2.9062                 2.9944
 Frc consts  --      2.6042                 1.8497                 2.1133
 IR Inten    --     29.5291                 7.7969                39.1773

                     43                     44                     45
                      A                      A                      A
 Frequencies --   1113.0692              1122.8413              1148.1342
 Red. masses --      2.2207                 1.5847                 1.7684
 Frc consts  --      1.6210                 1.1772                 1.3734
 IR Inten    --      5.7580                35.7663                 7.8767

                     46                     47                     48
                      A                      A                      A
 Frequencies --   1152.5917              1167.1385              1207.6789
 Red. masses --      2.0454                 2.0403                 1.4288
 Frc consts  --      1.6010                 1.6376                 1.2278
 IR Inten    --     13.7567                 1.2165                10.2180

                     49                     50                     51
                      A                      A                      A
 Frequencies --   1249.5328              1269.1554              1277.7995
 Red. masses --      1.8438                 1.8860                 1.6956
 Frc consts  --      1.6961                 1.7899                 1.6311
 IR Inten    --    191.6450                38.2579                 9.5223

                     52                     53                     54
                      A                      A                      A
 Frequencies --   1293.2180              1294.4578              1305.6290
 Red. masses --      1.7190                 1.3707                 1.4106
 Frc consts  --      1.6938                 1.3532                 1.4167
 IR Inten    --    273.1692                24.8707                46.9309

                     55                     56                     57
                      A                      A                      A
 Frequencies --   1352.8281              1367.6488              1384.0045
 Red. masses --      1.4396                 1.4603                 1.1589
 Frc consts  --      1.5523                 1.6093                 1.3079
 IR Inten    --     10.0902                13.4110                 1.7209

                     58                     59                     60
                      A                      A                      A
 Frequencies --   1389.1876              1398.3576              1404.8331
 Red. masses --      1.4569                 1.3902                 2.6445
 Frc consts  --      1.6566                 1.6016                 3.0750
 IR Inten    --     14.5848                43.1116                23.9209

                     61                     62                     63
                      A                      A                      A
 Frequencies --   1442.9955              1469.4668              1479.0283
 Red. masses --      3.1625                 1.1059                 1.1274
 Frc consts  --      3.8799                 1.4069                 1.4531
 IR Inten    --     21.9071                 7.1634                14.4921

                     64                     65                     66
                      A                      A                      A
 Frequencies --   1504.4091              1505.8516              1552.6966
 Red. masses --      1.1148                 3.3006                 1.8038
 Frc consts  --      1.4866                 4.4097                 2.5622
 IR Inten    --      7.2478                28.6212               195.6545

                     67                     68                     69
                      A                      A                      A
 Frequencies --   1609.3998              1668.6784              1730.0048
 Red. masses --      4.3400                 1.0932                 7.7704
 Frc consts  --      6.6232                 1.7934                13.7022
 IR Inten    --      7.1820                36.6393               180.5677

                     70                     71                     72
                      A                      A                      A
 Frequencies --   1848.7497              3027.2982              3033.0596
 Red. masses --     11.0664                 1.0699                 1.0594
 Frc consts  --     22.2851                 5.7771                 5.7420
 IR Inten    --    266.2583                39.8925                 7.7693

                     73                     74                     75
                      A                      A                      A
 Frequencies --   3048.8498              3049.5221              3076.1574
 Red. masses --      1.0822                 1.0682                 1.1001
 Frc consts  --      5.9272                 5.8529                 6.1336
 IR Inten    --     15.6936                31.2238                 9.4000

                     76                     77                     78
                      A                      A                      A
 Frequencies --   3116.4490              3119.7954              3245.5870
 Red. masses --      1.1016                 1.0946                 1.0961
 Frc consts  --      6.3034                 6.2769                 6.8026
 IR Inten    --     16.6313                 3.4324                 7.4149

                     79                     80                     81
                      A                      A                      A
 Frequencies --   3265.0386              3509.1041              3591.5459
 Red. masses --      1.0971                 1.0484                 1.0832
 Frc consts  --      6.8906                 7.6060                 8.2323
 IR Inten    --      1.1601                 1.0512               153.5258

                     82                     83                     84
                      A                      A                      A
 Frequencies --   3600.9731              3634.5233              3801.7369
 Red. masses --      1.0948                 1.0776                 1.0659
 Frc consts  --      8.3644                 8.3871                 9.0767
 IR Inten    --      1.8023                32.0119                56.1517

 - Thermochemistry -
 -------------------
 Temperature   298.150 Kelvin.  Pressure   1.00000 Atm.
 Atom     1 has atomic number  8 and mass  15.99491

 Molecular mass:   226.10659 amu.
 Principal axes and moments of inertia in atomic units:
                           1         2         3
     Eigenvalues --  3595.746034096.964857120.13771
           X            0.89729  -0.34684   0.27308
           Y            0.26640   0.91872   0.29152
           Z           -0.35200  -0.18883   0.91676
 This molecule is an asymmetric top.
 Rotational symmetry number  1.
 Warning -- assumption of classical behavior for rotation
           may cause significant error
 Rotational temperatures (Kelvin)      0.02409     0.02114     0.01216
 Rotational constants (GHZ):           0.50191     0.44051     0.25347
 Zero-point vibrational energy     642180.5 (Joules/Mol)
                                  153.48483 (Kcal/Mol)
 Warning -- explicit consideration of  22 degrees of freedom as
           vibrations may cause significant error
 Vibrational temperatures:     26.22    38.01    67.58    92.87   105.30
          (Kelvin)            126.48   128.88   166.96   221.24   280.32
                              306.85   404.76   419.87   468.74   488.59
                              492.54   570.16   584.31   681.72   755.31
                              783.96   855.09   897.14   940.27   965.42
                             1009.20  1032.60  1086.58  1095.69  1128.14
                             1151.23  1174.03  1204.30  1237.31  1325.18
                             1331.90  1349.51  1403.77  1474.74  1480.19
                             1495.38  1574.66  1601.46  1615.52  1651.91
                             1658.32  1679.25  1737.58  1797.80  1826.03
                             1838.47  1860.65  1862.43  1878.51  1946.42
                             1967.74  1991.27  1998.73  2011.92  2021.24
                             2076.15  2114.23  2127.99  2164.51  2166.58
                             2233.98  2315.56  2400.85  2489.09  2659.94
                             4355.60  4363.89  4386.61  4387.58  4425.90
                             4483.87  4488.68  4669.67  4697.66  5048.81
                             5167.43  5180.99  5229.26  5469.84

 Zero-point correction=                           0.244594 (Hartree/Particle)
 Thermal correction to Energy=                    0.260804
 Thermal correction to Enthalpy=                  0.261749
 Thermal correction to Gibbs Free Energy=         0.197921
 Sum of electronic and zero-point Energies=           -795.893715
 Sum of electronic and thermal Energies=              -795.877505
 Sum of electronic and thermal Enthalpies=            -795.876560
 Sum of electronic and thermal Free Energies=         -795.940388

                     E (Thermal)             CV                S
                      KCal/Mol        Cal/Mol-Kelvin    Cal/Mol-Kelvin
 Total                  163.657             58.841            134.336
 Electronic               0.000              0.000              0.000
 Translational            0.889              2.981             42.150
 Rotational               0.889              2.981             33.017
 Vibrational            161.880             52.879             59.169
 Vibration     1          0.593              1.986              6.819
 Vibration     2          0.593              1.985              6.082
 Vibration     3          0.595              1.979              4.941
 Vibration     4          0.597              1.971              4.313
 Vibration     5          0.599              1.967              4.066
 Vibration     6          0.601              1.958              3.706
 Vibration     7          0.602              1.957              3.669
 Vibration     8          0.608              1.936              3.165
 Vibration     9          0.619              1.898              2.625
 Vibration    10          0.636              1.847              2.181
 Vibration    11          0.644              1.821              2.016
 Vibration    12          0.681              1.708              1.526
 Vibration    13          0.687              1.689              1.463
 Vibration    14          0.710              1.624              1.281
 Vibration    15          0.719              1.596              1.214
 Vibration    16          0.721              1.591              1.201
 Vibration    17          0.763              1.478              0.976
 Vibration    18          0.771              1.457              0.940
 Vibration    19          0.831              1.308              0.727
 Vibration    20          0.880              1.195              0.599
 Vibration    21          0.900              1.151              0.555
 Vibration    22          0.952              1.044              0.460

 Optimization completed.
    -- Stationary point found.
 Normal termination of Gaussian 09 at Thu Jul 29 00:02:14 2021.
