 Gaussian 09, Revision D.01,
 Gaussian 09:  ES64L-G09RevD.01 24-Apr-2013

 ----------------------------------------------------------------------
 # B3LYP/6-31G(d) opt=calcfc freq=noraman nosymm integral(ultrafinegrid
 )
 ----------------------------------------------------------------------

 ------------------------------------------------------------
 Candidate Structure: Conf:455 OPT and FREQ calc in gas phase
 ------------------------------------------------------------
 Symbolic Z-matrix:
 Charge =  0 Multiplicity = 1

 SCF Done:  E(RB3LYP) =  -796.066294758     A.U. after   14 cycles
 SCF Done:  E(RB3LYP) =  -796.068553914     A.U. after   12 cycles
 SCF Done:  E(RB3LYP) =  -796.068872220     A.U. after   13 cycles
 SCF Done:  E(RB3LYP) =  -796.068919455     A.U. after   12 cycles
 SCF Done:  E(RB3LYP) =  -796.068932109     A.U. after   11 cycles
 SCF Done:  E(RB3LYP) =  -796.068933807     A.U. after   10 cycles
 SCF Done:  E(RB3LYP) =  -796.068934078     A.U. after    9 cycles
 SCF Done:  E(RB3LYP) =  -796.068934085     A.U. after    7 cycles
 Optimization completed.
    -- Stationary point found.
 Normal termination of Gaussian 09 at Wed Jul 28 22:24:45 2021.

 --------------------------------------------------------------------
 #N Geom=AllCheck Guess=TCheck SCRF=Check GenChk RB3LYP/6-31G(d) Freq
 --------------------------------------------------------------------

 Structure from the checkpoint file:  "conf-455.chk"
 ------------------------------------------------------------
 Candidate Structure: Conf:455 OPT and FREQ calc in gas phase
 ------------------------------------------------------------
 Charge =  0 Multiplicity = 1

                          Input orientation:
 ---------------------------------------------------------------------
 Center     Atomic      Atomic             Coordinates (Angstroms)
 Number     Number       Type             X           Y           Z
 ---------------------------------------------------------------------
      1          8           0        0.326883   -0.414264   -1.227570
      2          6           0        0.996411   -0.258012   -0.205521
      3          7           0        0.519933   -0.542969    1.047303
      4          6           0       -0.582256   -1.452484    1.325763
      5          6           0       -0.095854   -2.913640    1.156537
      6          8           0       -1.012624   -3.877329    1.421496
      7          8           0        1.027882   -3.209744    0.843477
      8          6           0       -1.894396   -1.177759    0.528917
      9          6           0       -2.360922    0.242162    0.547116
     10          6           0       -3.251401    0.926813    1.344537
     11          7           0       -3.362760    2.239725    0.949165
     12          6           0       -2.548602    2.353130   -0.081349
     13          7           0       -1.922980    1.177341   -0.369215
     14          6           0        2.405598    0.317831   -0.254555
     15          6           0        2.548119    1.438286   -1.306064
     16          7           0        3.898722    1.960181   -1.497431
     17          1           0        1.212076   -0.506056    1.784210
     18          1           0       -0.820014   -1.314616    2.388985
     19          1           0       -1.871899   -3.486158    1.649615
     20          1           0       -2.688812   -1.788691    0.977701
     21          1           0       -1.763797   -1.520708   -0.499534
     22          1           0       -3.828572    0.541460    2.176107
     23          1           0       -2.380092    3.254528   -0.655650
     24          1           0       -1.222529    0.981595   -1.077028
     25          1           0        2.720533    0.679941    0.733254
     26          1           0        3.074481   -0.514790   -0.515553
     27          1           0        2.179734    1.062889   -2.264989
     28          1           0        1.898314    2.277879   -1.028822
     29          1           0        4.274612    2.308080   -0.616401
     30          1           0        4.524120    1.215276   -1.801548
 ---------------------------------------------------------------------

 SCF Done:  E(RB3LYP) =  -796.068934085     A.U. after    1 cycles

 Alpha  occ. eigenvalues --  -19.21559 -19.15385 -19.13734 -14.38547 -14.38080
 Alpha  occ. eigenvalues --  -14.32217 -14.30570 -10.33682 -10.31131 -10.27244
 Alpha  occ. eigenvalues --  -10.23316 -10.22776 -10.21919 -10.21869 -10.20814
 Alpha  occ. eigenvalues --  -10.19403  -1.11916  -1.05568  -1.03760  -1.00645
 Alpha  occ. eigenvalues --   -0.94965  -0.88992  -0.86354  -0.81607  -0.76823
 Alpha  occ. eigenvalues --   -0.73779  -0.68307  -0.64708  -0.62881  -0.60767
 Alpha  occ. eigenvalues --   -0.59804  -0.58497  -0.56011  -0.53381  -0.53070
 Alpha  occ. eigenvalues --   -0.51275  -0.48991  -0.46868  -0.46161  -0.45432
 Alpha  occ. eigenvalues --   -0.45001  -0.43665  -0.43113  -0.42434  -0.41708
 Alpha  occ. eigenvalues --   -0.41086  -0.40400  -0.40163  -0.39339  -0.38867
 Alpha  occ. eigenvalues --   -0.37612  -0.35363  -0.33407  -0.29704  -0.28524
 Alpha  occ. eigenvalues --   -0.27527  -0.27168  -0.26029  -0.24079  -0.22126
 Alpha virt. eigenvalues --   -0.01014  -0.00255   0.02071   0.03529   0.05641
 Alpha virt. eigenvalues --    0.07080   0.07122   0.10587   0.11546   0.12162
 Alpha virt. eigenvalues --    0.13247   0.13510   0.14720   0.15100   0.15882

 Mulliken charges:
               1
     1  O   -0.546001
     2  C    0.636136
     3  N   -0.574289
     4  C   -0.086614
     5  C    0.620697
     6  O   -0.565270
     7  O   -0.438531
     8  C   -0.378218
     9  C    0.324756
    10  C   -0.084778
    11  N   -0.427524
    12  C    0.203777
    13  N   -0.601721
    14  C   -0.381383
    15  C   -0.144073
    16  N   -0.702155
    17  H    0.337288
    18  H    0.174415
    19  H    0.417706
    20  H    0.139216
    21  H    0.203933
    22  H    0.121934
    23  H    0.153873
    24  H    0.362567
    25  H    0.135447
    26  H    0.183200
    27  H    0.176578
    28  H    0.148024
    29  H    0.293779
    30  H    0.297228
 Sum of Mulliken charges =   0.00000

 Dipole moment (field-independent basis, Debye):
    X=              1.6446    Y=             -0.8688    Z=              2.4388  Tot=              3.0671
 Quadrupole moment (field-independent basis, Debye-Ang):
   XX=            -94.3401   YY=           -111.4311   ZZ=            -90.8243
   XY=             15.8790   XZ=              4.8876   YZ=             -4.6211

  Exact polarizability: 132.774  -3.909 129.606 -20.463 -13.608 103.165
 Approx polarizability: 185.259  -9.118 182.422 -28.947  -9.269 175.515

                      1                      2                      3
                      A                      A                      A
 Frequencies --     15.5837                26.0677                53.0527
 Red. masses --      5.4429                 4.4661                 3.5447
 Frc consts  --      0.0008                 0.0018                 0.0059
 IR Inten    --      0.7235                 2.5613                10.8925

                      4                      5                      6
                      A                      A                      A
 Frequencies --     65.2828                75.9223                91.0775
 Red. masses --      2.7976                 5.0113                 4.1817
 Frc consts  --      0.0070                 0.0170                 0.0204
 IR Inten    --      4.4872                 7.6373                 0.2817

                      7                      8                      9
                      A                      A                      A
 Frequencies --     91.8324               129.5979               155.7595
 Red. masses --      3.9444                 6.1155                 4.5467
 Frc consts  --      0.0196                 0.0605                 0.0650
 IR Inten    --      2.2173                10.7532                 8.8817

                     10                     11                     12
                      A                      A                      A
 Frequencies --    192.7985               216.6671               283.8304
 Red. masses --      6.0445                 5.5667                 6.3854
 Frc consts  --      0.1324                 0.1540                 0.3031
 IR Inten    --      4.0865                 7.9062                 4.1194

                     13                     14                     15
                      A                      A                      A
 Frequencies --    312.9446               329.9987               330.7447
 Red. masses --      1.1027                 5.6079                 3.7047
 Frc consts  --      0.0636                 0.3598                 0.2388
 IR Inten    --     49.5724                 7.7921                13.4198

                     16                     17                     18
                      A                      A                      A
 Frequencies --    339.4423               390.0751               409.7714
 Red. masses --      2.3739                 3.7017                 2.9094
 Frc consts  --      0.1612                 0.3319                 0.2878
 IR Inten    --      5.6162                15.0684                23.3488

                     19                     20                     21
                      A                      A                      A
 Frequencies --    475.2044               538.4846               568.5993
 Red. masses --      1.2893                 4.2079                 1.4556
 Frc consts  --      0.1715                 0.7189                 0.2773
 IR Inten    --     71.7268                 6.1846                67.9829

                     22                     23                     24
                      A                      A                      A
 Frequencies --    605.9119               624.4217               658.1553
 Red. masses --      3.6727                 2.9792                 3.6206
 Frc consts  --      0.7944                 0.6844                 0.9240
 IR Inten    --      8.1323                36.7805                24.6250

                     25                     26                     27
                      A                      A                      A
 Frequencies --    675.7118               701.1111               741.0368
 Red. masses --      4.6954                 3.9548                 1.2098
 Frc consts  --      1.2631                 1.1454                 0.3914
 IR Inten    --     27.2615                 4.2904                64.9814

                     28                     29                     30
                      A                      A                      A
 Frequencies --    760.2035               763.6898               788.6422
 Red. masses --      5.0945                 1.6711                 1.9316
 Frc consts  --      1.7347                 0.5742                 0.7078
 IR Inten    --      5.4437                 5.2635                 2.3062

                     31                     32                     33
                      A                      A                      A
 Frequencies --    805.9313               837.1562               858.6660
 Red. masses --      1.3952                 1.5196                 2.2321
 Frc consts  --      0.5339                 0.6274                 0.9696
 IR Inten    --     20.0805                25.4602                78.9289

                     34                     35                     36
                      A                      A                      A
 Frequencies --    875.5313               922.4631               926.4786
 Red. masses --      1.8317                 3.6502                 3.4935
 Frc consts  --      0.8273                 1.8301                 1.7668
 IR Inten    --    168.2039                 6.8289                 5.7596

                     37                     38                     39
                      A                      A                      A
 Frequencies --    940.9814               987.2030              1031.0518
 Red. masses --      5.5111                 1.3977                 3.8260
 Frc consts  --      2.8751                 0.8026                 2.3964
 IR Inten    --     12.1753                 1.1518                11.0655

                     40                     41                     42
                      A                      A                      A
 Frequencies --   1040.4203              1045.5341              1106.0839
 Red. masses --      4.3057                 2.9353                 2.5209
 Frc consts  --      2.7461                 1.8905                 1.8171
 IR Inten    --     63.6748                 7.1679                16.4043

                     43                     44                     45
                      A                      A                      A
 Frequencies --   1125.4969              1132.2307              1157.7193
 Red. masses --      2.4830                 1.6245                 1.9608
 Frc consts  --      1.8532                 1.2270                 1.5484
 IR Inten    --      3.5071                44.5847                 6.9480

                     46                     47                     48
                      A                      A                      A
 Frequencies --   1163.5417              1179.6724              1218.6577
 Red. masses --      1.7372                 2.0438                 1.4461
 Frc consts  --      1.3857                 1.6758                 1.2653
 IR Inten    --     12.7091                 6.1435                 7.0354

                     49                     50                     51
                      A                      A                      A
 Frequencies --   1258.2325              1278.0535              1289.4086
 Red. masses --      1.8755                 1.9552                 1.6174
 Frc consts  --      1.7494                 1.8816                 1.5843
 IR Inten    --    182.7287                18.1747                 3.6407

                     52                     53                     54
                      A                      A                      A
 Frequencies --   1309.9781              1312.9880              1322.7137
 Red. masses --      1.3247                 1.3729                 1.7871
 Frc consts  --      1.3394                 1.3945                 1.8422
 IR Inten    --     48.3629               142.5131               225.6490

                     55                     56                     57
                      A                      A                      A
 Frequencies --   1365.2649              1383.7311              1404.5361
 Red. masses --      1.4381                 1.5174                 1.1742
 Frc consts  --      1.5793                 1.7118                 1.3648
 IR Inten    --      7.9225                14.3932                 2.0860

                     58                     59                     60
                      A                      A                      A
 Frequencies --   1406.5263              1412.3643              1415.5812
 Red. masses --      1.5400                 2.2599                 1.4342
 Frc consts  --      1.7950                 2.6560                 1.6932
 IR Inten    --     14.3934                26.9208                43.7748

                     61                     62                     63
                      A                      A                      A
 Frequencies --   1454.1302              1491.3476              1495.4449
 Red. masses --      3.1180                 1.0932                 1.1337
 Frc consts  --      3.8845                 1.4325                 1.4938
 IR Inten    --     28.0755                 4.7726                16.2557

                     64                     65                     66
                      A                      A                      A
 Frequencies --   1517.8672              1525.9567              1568.6148
 Red. masses --      3.4034                 1.0883                 1.7223
 Frc consts  --      4.6199                 1.4931                 2.4968
 IR Inten    --     25.4062                 3.1742               173.4681

                     67                     68                     69
                      A                      A                      A
 Frequencies --   1620.0470              1701.5093              1756.0904
 Red. masses --      4.3231                 1.0915                 7.6476
 Frc consts  --      6.6849                 1.8618                13.8953
 IR Inten    --      7.3609                27.7536               165.4068

                     70                     71                     72
                      A                      A                      A
 Frequencies --   1878.6659              3033.2255              3038.8853
 Red. masses --     10.6197                 1.0593                 1.0738
 Frc consts  --     22.0832                 5.7420                 5.8425
 IR Inten    --    215.9710                 8.8390                30.6925

                     73                     74                     75
                      A                      A                      A
 Frequencies --   3048.8570              3056.9179              3073.8586
 Red. masses --      1.0804                 1.0718                 1.0971
 Frc consts  --      5.9170                 5.9012                 6.1074
 IR Inten    --     29.2282                30.4484                15.3192

                     76                     77                     78
                      A                      A                      A
 Frequencies --   3124.7185              3136.2949              3245.6990
 Red. masses --      1.1001                 1.0929                 1.0958
 Frc consts  --      6.3287                 6.3339                 6.8017
 IR Inten    --     18.3201                 3.8942                11.1591

                     79                     80                     81
                      A                      A                      A
 Frequencies --   3266.6955              3462.5122              3547.9524
 Red. masses --      1.0967                 1.0491                 1.0929
 Frc consts  --      6.8953                 7.4103                 8.1056
 IR Inten    --      2.9293                 0.9965                 0.2849

                     82                     83                     84
                      A                      A                      A
 Frequencies --   3575.2398              3603.2435              3735.1801
 Red. masses --      1.0827                 1.0768                 1.0656
 Frc consts  --      8.1543                 8.2374                 8.7595
 IR Inten    --    164.7929                21.4606                30.6839

 - Thermochemistry -
 -------------------
 Temperature   298.150 Kelvin.  Pressure   1.00000 Atm.
 Atom     1 has atomic number  8 and mass  15.99491

 Molecular mass:   226.10659 amu.
 Principal axes and moments of inertia in atomic units:
                           1         2         3
     Eigenvalues --  3491.708294254.662297222.08571
           X            0.93361  -0.22842   0.27604
           Y            0.14345   0.94429   0.29621
           Z           -0.32832  -0.23695   0.91437
 This molecule is an asymmetric top.
 Rotational symmetry number  1.
 Warning -- assumption of classical behavior for rotation
           may cause significant error
 Rotational temperatures (Kelvin)      0.02481     0.02036     0.01199
 Rotational constants (GHZ):           0.51686     0.42418     0.24989
 Zero-point vibrational energy     645294.2 (Joules/Mol)
                                  154.22903 (Kcal/Mol)
 Warning -- explicit consideration of  22 degrees of freedom as
           vibrations may cause significant error
 Vibrational temperatures:     22.42    37.51    76.33    93.93   109.24
          (Kelvin)            131.04   132.13   186.46   224.10   277.39
                              311.74   408.37   450.26   474.79   475.87
                              488.38   561.23   589.57   683.71   774.76
                              818.09   871.77   898.40   946.94   972.20
                             1008.74  1066.19  1093.76  1098.78  1134.68
                             1159.55  1204.48  1235.43  1259.69  1327.22
                             1332.99  1353.86  1420.36  1483.45  1496.93
                             1504.29  1591.41  1619.34  1629.03  1665.70
                             1674.07  1697.28  1753.37  1810.31  1838.83
                             1855.17  1884.76  1889.09  1903.09  1964.31
                             1990.88  2020.81  2023.68  2032.07  2036.70
                             2092.17  2145.71  2151.61  2183.87  2195.51
                             2256.88  2330.88  2448.09  2526.62  2702.98
                             4364.13  4372.27  4386.62  4398.22  4422.59
                             4495.77  4512.42  4669.83  4700.04  4981.78
                             5104.71  5143.97  5184.26  5374.08

 Zero-point correction=                           0.245780 (Hartree/Particle)
 Thermal correction to Energy=                    0.261832
 Thermal correction to Enthalpy=                  0.262776
 Thermal correction to Gibbs Free Energy=         0.199271
 Sum of electronic and zero-point Energies=           -795.823154
 Sum of electronic and thermal Energies=              -795.807102
 Sum of electronic and thermal Enthalpies=            -795.806158
 Sum of electronic and thermal Free Energies=         -795.869663

                     E (Thermal)             CV                S
                      KCal/Mol        Cal/Mol-Kelvin    Cal/Mol-Kelvin
 Total                  164.302             58.287            133.659
 Electronic               0.000              0.000              0.000
 Translational            0.889              2.981             42.150
 Rotational               0.889              2.981             33.039
 Vibrational            162.525             52.326             58.470
 Vibration     1          0.593              1.986              7.130
 Vibration     2          0.593              1.985              6.108
 Vibration     3          0.596              1.976              4.700
 Vibration     4          0.597              1.971              4.291
 Vibration     5          0.599              1.965              3.994
 Vibration     6          0.602              1.956              3.637
 Vibration     7          0.602              1.955              3.621
 Vibration     8          0.612              1.924              2.952
 Vibration     9          0.620              1.896              2.601
 Vibration    10          0.635              1.850              2.201
 Vibration    11          0.646              1.816              1.987
 Vibration    12          0.682              1.704              1.510
 Vibration    13          0.701              1.649              1.347
 Vibration    14          0.713              1.616              1.260
 Vibration    15          0.713              1.614              1.256
 Vibration    16          0.719              1.597              1.215
 Vibration    17          0.758              1.491              1.000
 Vibration    18          0.774              1.449              0.927
 Vibration    19          0.832              1.305              0.723
 Vibration    20          0.894              1.165              0.569
 Vibration    21          0.925              1.099              0.507
 Vibration    22          0.965              1.019              0.440

 Optimization completed.
    -- Stationary point found.
 Normal termination of Gaussian 09 at Wed Jul 28 22:40:54 2021.
