 Gaussian 09, Revision D.01,
 Gaussian 09:  ES64L-G09RevD.01 24-Apr-2013

 ----------------------------------------------------------------------
 # B3LYP/6-31G(d) opt=calcfc freq=noraman nosymm integral(ultrafinegrid
 )
 ----------------------------------------------------------------------

 ------------------------------------------------------------
 Candidate Structure: Conf:900 OPT and FREQ calc in gas phase
 ------------------------------------------------------------
 Symbolic Z-matrix:
 Charge =  0 Multiplicity = 1

 SCF Done:  E(RB3LYP) =  -796.085530333     A.U. after   14 cycles
 SCF Done:  E(RB3LYP) =  -796.087722395     A.U. after   12 cycles
 SCF Done:  E(RB3LYP) =  -796.087923693     A.U. after   12 cycles
 SCF Done:  E(RB3LYP) =  -796.087947973     A.U. after   11 cycles
 SCF Done:  E(RB3LYP) =  -796.087952285     A.U. after   10 cycles
 SCF Done:  E(RB3LYP) =  -796.087953109     A.U. after    9 cycles
 SCF Done:  E(RB3LYP) =  -796.087953171     A.U. after    7 cycles
 Optimization completed.
    -- Stationary point found.
 Normal termination of Gaussian 09 at Wed Jul 28 22:22:52 2021.

 --------------------------------------------------------------------
 #N Geom=AllCheck Guess=TCheck SCRF=Check GenChk RB3LYP/6-31G(d) Freq
 --------------------------------------------------------------------

 Structure from the checkpoint file:  "conf-900.chk"
 ------------------------------------------------------------
 Candidate Structure: Conf:900 OPT and FREQ calc in gas phase
 ------------------------------------------------------------
 Charge =  0 Multiplicity = 1

                          Input orientation:
 ---------------------------------------------------------------------
 Center     Atomic      Atomic             Coordinates (Angstroms)
 Number     Number       Type             X           Y           Z
 ---------------------------------------------------------------------
      1          8           0       -0.830861    0.557761   -1.064299
      2          6           0       -1.229841   -0.534535   -0.641823
      3          7           0       -0.430128   -1.385137    0.047282
      4          6           0        0.983876   -1.148517    0.280982
      5          6           0        1.598674   -2.493151    0.637945
      6          8           0        2.940537   -2.425880    0.695763
      7          8           0        0.967843   -3.505303    0.863122
      8          6           0        1.273885   -0.078139    1.404815
      9          6           0        2.002081    1.131698    0.919389
     10          6           0        3.182554    1.729177    1.300514
     11          7           0        3.430126    2.857613    0.552350
     12          6           0        2.410446    2.941319   -0.279197
     13          7           0        1.516014    1.928757   -0.099348
     14          6           0       -2.656424   -1.025570   -0.872365
     15          6           0       -3.566083    0.051570   -1.465276
     16          7           0       -3.748275    1.147771   -0.509283
     17          1           0       -0.774650   -2.294678    0.334756
     18          1           0        1.449820   -0.802808   -0.647849
     19          1           0        3.257648   -3.312688    0.952293
     20          1           0        0.301980    0.188076    1.838081
     21          1           0        1.863320   -0.527361    2.209752
     22          1           0        3.865714    1.406466    2.076055
     23          1           0        2.270619    3.709722   -1.028257
     24          1           0        0.663468    1.718225   -0.616588
     25          1           0       -3.074271   -1.371114    0.081134
     26          1           0       -2.614012   -1.894970   -1.543607
     27          1           0       -4.545597   -0.401294   -1.657137
     28          1           0       -3.155558    0.365515   -2.438965
     29          1           0       -2.884034    1.686367   -0.479138
     30          1           0       -4.468736    1.781401   -0.850973
 ---------------------------------------------------------------------

 SCF Done:  E(RB3LYP) =  -796.087953171     A.U. after    1 cycles

 Alpha  occ. eigenvalues --  -19.22478 -19.17089 -19.14007 -14.37948 -14.36655
 Alpha  occ. eigenvalues --  -14.31017 -14.29466 -10.35026 -10.30947 -10.26334
 Alpha  occ. eigenvalues --  -10.22239 -10.21531 -10.21466 -10.20599 -10.20519
 Alpha  occ. eigenvalues --  -10.18237  -1.13597  -1.05529  -1.04582  -0.99433
 Alpha  occ. eigenvalues --   -0.94645  -0.88063  -0.85228  -0.80898  -0.76432
 Alpha  occ. eigenvalues --   -0.73730  -0.67886  -0.65602  -0.61146  -0.60291
 Alpha  occ. eigenvalues --   -0.59412  -0.57237  -0.53639  -0.52802  -0.51317
 Alpha  occ. eigenvalues --   -0.50419  -0.49035  -0.48205  -0.47696  -0.47082
 Alpha  occ. eigenvalues --   -0.44736  -0.43507  -0.42786  -0.42254  -0.41271
 Alpha  occ. eigenvalues --   -0.39578  -0.39190  -0.38902  -0.38727  -0.37900
 Alpha  occ. eigenvalues --   -0.36670  -0.36346  -0.34669  -0.30876  -0.28027
 Alpha  occ. eigenvalues --   -0.27715  -0.26154  -0.24965  -0.23641  -0.20986
 Alpha virt. eigenvalues --   -0.02005   0.00545   0.03973   0.05195   0.07765
 Alpha virt. eigenvalues --    0.08062   0.09257   0.11249   0.11472   0.12406
 Alpha virt. eigenvalues --    0.13317   0.14434   0.15088   0.15747   0.16695

 Mulliken charges:
               1
     1  O   -0.552988
     2  C    0.634129
     3  N   -0.618158
     4  C   -0.011410
     5  C    0.559245
     6  O   -0.552978
     7  O   -0.467630
     8  C   -0.362445
     9  C    0.305593
    10  C   -0.080148
    11  N   -0.431609
    12  C    0.201488
    13  N   -0.614717
    14  C   -0.364228
    15  C   -0.129125
    16  N   -0.727759
    17  H    0.355898
    18  H    0.205670
    19  H    0.421469
    20  H    0.179973
    21  H    0.175605
    22  H    0.123073
    23  H    0.148069
    24  H    0.377170
    25  H    0.175821
    26  H    0.165098
    27  H    0.139418
    28  H    0.134561
    29  H    0.313539
    30  H    0.297375
 Sum of Mulliken charges =   0.00000

 Dipole moment (field-independent basis, Debye):
    X=             -2.5189    Y=             -3.9038    Z=             -1.0991  Tot=              4.7742
 Quadrupole moment (field-independent basis, Debye-Ang):
   XX=            -98.9353   YY=            -96.1075   ZZ=            -90.2380
   XY=            -18.1412   XZ=              5.7391   YZ=             -5.4101

  Exact polarizability: 140.330  12.127 136.860  20.340 -15.293  93.693
 Approx polarizability: 191.576  25.484 200.274  21.489 -30.174 146.995

                      1                      2                      3
                      A                      A                      A
 Frequencies --     14.7238                33.3964                56.7804
 Red. masses --      3.4909                 6.3354                 4.6260
 Frc consts  --      0.0004                 0.0042                 0.0088
 IR Inten    --      1.0057                 1.4129                 0.8701

                      4                      5                      6
                      A                      A                      A
 Frequencies --     59.8978                77.6260                85.7485
 Red. masses --      7.8278                 5.6964                 5.6750
 Frc consts  --      0.0165                 0.0202                 0.0246
 IR Inten    --      1.2239                 0.4412                 4.8893

                      7                      8                      9
                      A                      A                      A
 Frequencies --    111.8511               136.3800               148.6572
 Red. masses --      4.3170                 5.5639                 3.9286
 Frc consts  --      0.0318                 0.0610                 0.0512
 IR Inten    --      2.5735                 3.3426                 4.2418

                     10                     11                     12
                      A                      A                      A
 Frequencies --    193.8808               251.6318               285.2166
 Red. masses --      4.6060                 2.5365                 5.9798
 Frc consts  --      0.1020                 0.0946                 0.2866
 IR Inten    --      2.1002                33.7382                 1.0605

                     13                     14                     15
                      A                      A                      A
 Frequencies --    290.3768               318.3796               327.7159
 Red. masses --      2.5309                 1.9737                 1.9939
 Frc consts  --      0.1257                 0.1179                 0.1262
 IR Inten    --     11.0717                30.7919                21.8696

                     16                     17                     18
                      A                      A                      A
 Frequencies --    350.6145               406.7923               433.3336
 Red. masses --      4.2966                 3.6814                 2.5384
 Frc consts  --      0.3112                 0.3589                 0.2808
 IR Inten    --      6.6216                10.6664                31.3216

                     19                     20                     21
                      A                      A                      A
 Frequencies --    537.6553               565.9878               601.8889
 Red. masses --      1.6832                 3.2718                 1.8018
 Frc consts  --      0.2867                 0.6175                 0.3846
 IR Inten    --     69.2831                26.4163                61.2775

                     22                     23                     24
                      A                      A                      A
 Frequencies --    628.5664               634.8839               644.7220
 Red. masses --      2.4340                 2.6497                 2.3208
 Frc consts  --      0.5666                 0.6293                 0.5684
 IR Inten    --     32.5456                17.9963                 1.0340

                     25                     26                     27
                      A                      A                      A
 Frequencies --    675.8463               680.1745               717.9471
 Red. masses --      3.5897                 3.4241                 3.0118
 Frc consts  --      0.9661                 0.9333                 0.9147
 IR Inten    --     36.9557                15.0988                37.6343

                     28                     29                     30
                      A                      A                      A
 Frequencies --    769.1131               770.2872               805.2781
 Red. masses --      1.4692                 2.1144                 1.4082
 Frc consts  --      0.5121                 0.7392                 0.5380
 IR Inten    --      6.7366                41.8722                19.6464

                     31                     32                     33
                      A                      A                      A
 Frequencies --    840.1805               860.1017               884.6479
 Red. masses --      1.3462                 2.7000                 2.1627
 Frc consts  --      0.5599                 1.1768                 0.9972
 IR Inten    --     24.2676                 8.4592                56.5635

                     34                     35                     36
                      A                      A                      A
 Frequencies --    899.2479               919.4655               938.2605
 Red. masses --      1.9308                 1.5994                 6.0676
 Frc consts  --      0.9199                 0.7967                 3.1471
 IR Inten    --      9.6866                68.4323                18.0262

                     37                     38                     39
                      A                      A                      A
 Frequencies --    960.8332               987.5041              1022.6282
 Red. masses --      2.6964                 3.6716                 2.8603
 Frc consts  --      1.4667                 2.1095                 1.7624
 IR Inten    --     14.7519                 7.4879                22.6051

                     40                     41                     42
                      A                      A                      A
 Frequencies --   1027.5351              1073.9203              1112.5276
 Red. masses --      3.8693                 2.4754                 3.1980
 Frc consts  --      2.4070                 1.6821                 2.3321
 IR Inten    --      1.6147                20.4173                30.8685

                     43                     44                     45
                      A                      A                      A
 Frequencies --   1138.6161              1144.0314              1159.9992
 Red. masses --      1.6973                 1.8751                 1.8029
 Frc consts  --      1.2965                 1.4460                 1.4293
 IR Inten    --     19.3112                47.9271                 3.4503

                     46                     47                     48
                      A                      A                      A
 Frequencies --   1185.4756              1199.2200              1220.8465
 Red. masses --      1.5865                 2.1331                 1.2871
 Frc consts  --      1.3136                 1.8075                 1.1302
 IR Inten    --    109.1528                96.1039                11.5514

                     49                     50                     51
                      A                      A                      A
 Frequencies --   1249.0742              1267.3639              1278.0271
 Red. masses --      1.2130                 1.5968                 2.1925
 Frc consts  --      1.1150                 1.5111                 2.1100
 IR Inten    --      5.2376                26.7946                 3.8698

                     52                     53                     54
                      A                      A                      A
 Frequencies --   1289.6651              1300.3679              1340.9173
 Red. masses --      1.4434                 1.3372                 1.3818
 Frc consts  --      1.4145                 1.3322                 1.4638
 IR Inten    --     10.1897                22.7328                 0.5588

                     55                     56                     57
                      A                      A                      A
 Frequencies --   1368.7214              1374.9181              1395.5198
 Red. masses --      1.2299                 1.4805                 1.5834
 Frc consts  --      1.3576                 1.6490                 1.8169
 IR Inten    --      5.6930                38.0057                29.5239

                     58                     59                     60
                      A                      A                      A
 Frequencies --   1399.1422              1433.1746              1447.7044
 Red. masses --      3.4795                 2.4780                 1.4265
 Frc consts  --      4.0132                 2.9988                 1.7614
 IR Inten    --     16.1007                96.8308                18.6649

                     61                     62                     63
                      A                      A                      A
 Frequencies --   1461.5561              1478.6881              1503.7977
 Red. masses --      2.4907                 1.1120                 1.1483
 Frc consts  --      3.1348                 1.4325                 1.5300
 IR Inten    --     69.2071                17.5937                12.2319

                     64                     65                     66
                      A                      A                      A
 Frequencies --   1521.4275              1530.9530              1559.1534
 Red. masses --      3.3269                 1.0873                 2.3168
 Frc consts  --      4.5372                 1.5015                 3.3184
 IR Inten    --     22.9021                 1.5199               326.0810

                     67                     68                     69
                      A                      A                      A
 Frequencies --   1626.2818              1690.4313              1742.7602
 Red. masses --      4.1372                 1.2017                 4.9128
 Frc consts  --      6.4469                 2.0232                 8.7913
 IR Inten    --     16.1419               108.7737               141.1913

                     70                     71                     72
                      A                      A                      A
 Frequencies --   1833.5098              2993.3024              3041.6281
 Red. masses --      9.6253                 1.0715                 1.0631
 Frc consts  --     19.0647                 5.6565                 5.7950
 IR Inten    --    265.2995                60.2925                13.2054

                     73                     74                     75
                      A                      A                      A
 Frequencies --   3054.9365              3081.9527              3085.4398
 Red. masses --      1.0660                 1.0914                 1.0842
 Frc consts  --      5.8616                 6.1077                 6.0811
 IR Inten    --     18.5786                39.8688                 8.6705

                     76                     77                     78
                      A                      A                      A
 Frequencies --   3091.7809              3112.2305              3250.8506
 Red. masses --      1.0993                 1.0981                 1.0958
 Frc consts  --      6.1911                 6.2667                 6.8228
 IR Inten    --     17.3157                10.3206                11.9849

                     79                     80                     81
                      A                      A                      A
 Frequencies --   3263.6628              3474.3809              3505.5133
 Red. masses --      1.0967                 1.0499                 1.0842
 Frc consts  --      6.8823                 7.4672                 7.8502
 IR Inten    --      3.9650                 5.8634               401.9216

                     82                     83                     84
                      A                      A                      A
 Frequencies --   3558.9439              3576.7151              3685.0152
 Red. masses --      1.0921                 1.0775                 1.0642
 Frc consts  --      8.1501                 8.1217                 8.5141
 IR Inten    --      0.7971                82.1308                73.6212

 - Thermochemistry -
 -------------------
 Temperature   298.150 Kelvin.  Pressure   1.00000 Atm.
 Atom     1 has atomic number  8 and mass  15.99491

 Molecular mass:   226.10659 amu.
 Principal axes and moments of inertia in atomic units:
                           1         2         3
     Eigenvalues --  3102.711704873.251417555.89271
           X            0.94456  -0.14121  -0.29644
           Y            0.18317   0.97588   0.11878
           Z            0.27252  -0.16649   0.94764
 This molecule is an asymmetric top.
 Rotational symmetry number  1.
 Warning -- assumption of classical behavior for rotation
           may cause significant error
 Rotational temperatures (Kelvin)      0.02792     0.01777     0.01146
 Rotational constants (GHZ):           0.58167     0.37034     0.23885
 Zero-point vibrational energy     646341.7 (Joules/Mol)
                                  154.47938 (Kcal/Mol)
 Warning -- explicit consideration of  21 degrees of freedom as
           vibrations may cause significant error
 Vibrational temperatures:     21.18    48.05    81.69    86.18   111.69
          (Kelvin)            123.37   160.93   196.22   213.88   278.95
                              362.04   410.36   417.79   458.08   471.51
                              504.46   585.28   623.47   773.57   814.33
                              865.98   904.37   913.46   927.61   972.39
                              978.62  1032.96  1106.58  1108.27  1158.61
                             1208.83  1237.49  1272.81  1293.82  1322.90
                             1349.95  1382.42  1420.80  1471.33  1478.39
                             1545.13  1600.68  1638.21  1646.00  1668.98
                             1705.63  1725.41  1756.52  1797.14  1823.45
                             1838.79  1855.54  1870.94  1929.28  1969.28
                             1978.20  2007.84  2013.05  2062.02  2082.92
                             2102.85  2127.50  2163.63  2188.99  2202.70
                             2243.27  2339.85  2432.15  2507.44  2638.01
                             4306.69  4376.22  4395.37  4434.24  4439.25
                             4448.38  4477.80  4677.24  4695.68  4998.85
                             5043.65  5120.52  5146.09  5301.91

 Zero-point correction=                           0.246179 (Hartree/Particle)
 Thermal correction to Energy=                    0.262009
 Thermal correction to Enthalpy=                  0.262953
 Thermal correction to Gibbs Free Energy=         0.200045
 Sum of electronic and zero-point Energies=           -795.841775
 Sum of electronic and thermal Energies=              -795.825944
 Sum of electronic and thermal Enthalpies=            -795.825000
 Sum of electronic and thermal Free Energies=         -795.887908

                     E (Thermal)             CV                S
                      KCal/Mol        Cal/Mol-Kelvin    Cal/Mol-Kelvin
 Total                  164.413             57.656            132.400
 Electronic               0.000              0.000              0.000
 Translational            0.889              2.981             42.150
 Rotational               0.889              2.981             33.102
 Vibrational            162.636             51.694             57.149
 Vibration     1          0.593              1.986              7.242
 Vibration     2          0.594              1.983              5.617
 Vibration     3          0.596              1.975              4.566
 Vibration     4          0.597              1.973              4.461
 Vibration     5          0.599              1.964              3.950
 Vibration     6          0.601              1.959              3.755
 Vibration     7          0.607              1.940              3.237
 Vibration     8          0.614              1.917              2.854
 Vibration     9          0.618              1.904              2.689
 Vibration    10          0.635              1.848              2.190
 Vibration    11          0.664              1.760              1.719
 Vibration    12          0.683              1.701              1.502
 Vibration    13          0.686              1.692              1.472
 Vibration    14          0.705              1.638              1.318
 Vibration    15          0.711              1.620              1.271
 Vibration    16          0.728              1.574              1.163
 Vibration    17          0.772              1.455              0.938
 Vibration    18          0.794              1.398              0.848
 Vibration    19          0.893              1.167              0.570
 Vibration    20          0.922              1.105              0.512
 Vibration    21          0.960              1.028              0.446

 Normal termination of Gaussian 09 at Wed Jul 28 22:38:36 2021.
