 Gaussian 09, Revision D.01,
 Gaussian 09:  ES64L-G09RevD.01 24-Apr-2013

 ----------------------------------------------------------------------
 # B3LYP/6-31G(d) opt=calcfc freq=noraman nosymm integral(ultrafinegrid
 )
 ----------------------------------------------------------------------

 ------------------------------------------------------------
 Candidate Structure: Conf:599 OPT and FREQ calc in gas phase
 ------------------------------------------------------------
 Symbolic Z-matrix:
 Charge =  0 Multiplicity = 1

 SCF Done:  E(RB3LYP) =  -796.072508082     A.U. after   15 cycles
 SCF Done:  E(RB3LYP) =  -796.075368590     A.U. after   12 cycles
 SCF Done:  E(RB3LYP) =  -796.075452056     A.U. after   13 cycles
 SCF Done:  E(RB3LYP) =  -796.075455149     A.U. after   13 cycles
 SCF Done:  E(RB3LYP) =  -796.075476145     A.U. after   11 cycles
 SCF Done:  E(RB3LYP) =  -796.075476470     A.U. after    9 cycles
 SCF Done:  E(RB3LYP) =  -796.075476474     A.U. after    7 cycles
 Optimization completed.
    -- Stationary point found.
 Normal termination of Gaussian 09 at Wed Jul 28 22:23:03 2021.

 --------------------------------------------------------------------
 #N Geom=AllCheck Guess=TCheck SCRF=Check GenChk RB3LYP/6-31G(d) Freq
 --------------------------------------------------------------------

 Structure from the checkpoint file:  "conf-599.chk"
 ------------------------------------------------------------
 Candidate Structure: Conf:599 OPT and FREQ calc in gas phase
 ------------------------------------------------------------
 Charge =  0 Multiplicity = 1

                          Input orientation:
 ---------------------------------------------------------------------
 Center     Atomic      Atomic             Coordinates (Angstroms)
 Number     Number       Type             X           Y           Z
 ---------------------------------------------------------------------
      1          8           0        2.717317    1.621247    0.772177
      2          6           0        1.916849    0.790708    0.373459
      3          7           0        1.057098    1.126261   -0.679834
      4          6           0       -0.221489    0.475989   -0.986731
      5          6           0       -0.379798    0.363248   -2.520642
      6          8           0        0.767797    0.382629   -3.210501
      7          8           0       -1.448636    0.239353   -3.078210
      8          6           0       -1.439770    1.165748   -0.310462
      9          6           0       -2.620752    0.280008   -0.064116
     10          6           0       -3.230457   -0.118606    1.105643
     11          7           0       -4.309140   -0.932572    0.850396
     12          6           0       -4.354906   -1.030742   -0.463148
     13          7           0       -3.363762   -0.314583   -1.065096
     14          6           0        1.840664   -0.625464    0.928939
     15          6           0        2.951364   -0.915094    1.961014
     16          7           0        4.326222   -0.861610    1.481229
     17          1           0        1.081395    2.131266   -0.844221
     18          1           0       -0.161307   -0.553303   -0.619549
     19          1           0        1.487541    0.552783   -2.565343
     20          1           0       -1.719008    2.047849   -0.903120
     21          1           0       -1.101435    1.534523    0.663474
     22          1           0       -2.954890    0.149415    2.118135
     23          1           0       -5.078644   -1.603502   -1.027854
     24          1           0       -3.123745   -0.250476   -2.048923
     25          1           0        0.854844   -0.773218    1.394625
     26          1           0        1.895092   -1.345896    0.099777
     27          1           0        2.858511   -0.200295    2.784906
     28          1           0        2.767006   -1.910820    2.381424
     29          1           0        4.462655   -1.502628    0.701220
     30          1           0        4.523309    0.077841    1.143625
 ---------------------------------------------------------------------

 SCF Done:  E(RB3LYP) =  -796.075476474     A.U. after    1 cycles

 Alpha  occ. eigenvalues --  -19.22141 -19.16883 -19.15354 -14.40072 -14.38233
 Alpha  occ. eigenvalues --  -14.31553 -14.30780 -10.35186 -10.32560 -10.28095
 Alpha  occ. eigenvalues --  -10.23559 -10.23061 -10.22224 -10.22162 -10.22075
 Alpha  occ. eigenvalues --  -10.19668  -1.13294  -1.07231  -1.05010  -1.00881
 Alpha  occ. eigenvalues --   -0.96111  -0.88726  -0.86583  -0.81438  -0.77741
 Alpha  occ. eigenvalues --   -0.74669  -0.68736  -0.66086  -0.63829  -0.60723
 Alpha  occ. eigenvalues --   -0.59468  -0.58861  -0.57044  -0.54424  -0.53423
 Alpha  occ. eigenvalues --   -0.51169  -0.48970  -0.48417  -0.47974  -0.46854
 Alpha  occ. eigenvalues --   -0.45674  -0.44160  -0.43739  -0.43185  -0.42862
 Alpha  occ. eigenvalues --   -0.41634  -0.40789  -0.40402  -0.39857  -0.38688
 Alpha  occ. eigenvalues --   -0.38181  -0.36661  -0.34478  -0.32012  -0.30198
 Alpha  occ. eigenvalues --   -0.28251  -0.27541  -0.26219  -0.23894  -0.22416
 Alpha virt. eigenvalues --   -0.02633  -0.01876   0.02535   0.05095   0.06592
 Alpha virt. eigenvalues --    0.06968   0.08616   0.09045   0.10402   0.11640
 Alpha virt. eigenvalues --    0.12453   0.12634   0.13295   0.14970   0.15170

 Mulliken charges:
               1
     1  O   -0.479606
     2  C    0.599009
     3  N   -0.667280
     4  C   -0.074844
     5  C    0.617548
     6  O   -0.556417
     7  O   -0.468789
     8  C   -0.357798
     9  C    0.306575
    10  C   -0.082706
    11  N   -0.425390
    12  C    0.205260
    13  N   -0.606311
    14  C   -0.392439
    15  C   -0.131831
    16  N   -0.709806
    17  H    0.341280
    18  H    0.206702
    19  H    0.430139
    20  H    0.170981
    21  H    0.171870
    22  H    0.127052
    23  H    0.155262
    24  H    0.369528
    25  H    0.175147
    26  H    0.158471
    27  H    0.165509
    28  H    0.147444
    29  H    0.286932
    30  H    0.318510
 Sum of Mulliken charges =   0.00000

 Dipole moment (field-independent basis, Debye):
    X=              1.5214    Y=              0.4582    Z=             -1.9254  Tot=              2.4963
 Quadrupole moment (field-independent basis, Debye-Ang):
   XX=           -118.3535   YY=            -91.7338   ZZ=           -106.0516
   XY=             -5.7021   XZ=             -2.4976   YZ=              1.7181

  Exact polarizability: 151.425  20.035  96.435   9.152  -1.309 121.884
 Approx polarizability: 204.371  37.899 151.284  10.268   3.622 190.327

                      1                      2                      3
                      A                      A                      A
 Frequencies --     19.8574                39.2372                51.9070
 Red. masses --      5.6962                 4.7502                 3.4675
 Frc consts  --      0.0013                 0.0043                 0.0055
 IR Inten    --      0.3695                 0.3512                 2.5230

                      4                      5                      6
                      A                      A                      A
 Frequencies --     66.2586                81.4358                91.1708
 Red. masses --      6.7595                 5.1662                 6.2625
 Frc consts  --      0.0175                 0.0202                 0.0307
 IR Inten    --      0.4835                 0.7764                 9.7207

                      7                      8                      9
                      A                      A                      A
 Frequencies --    137.1413               147.7698               156.3757
 Red. masses --      4.8565                 5.7672                 3.1220
 Frc consts  --      0.0538                 0.0742                 0.0450
 IR Inten    --      2.7971                11.6038                 5.7696

                     10                     11                     12
                      A                      A                      A
 Frequencies --    208.4149               247.3558               284.3317
 Red. masses --      4.3092                 3.0138                 4.5391
 Frc consts  --      0.1103                 0.1086                 0.2162
 IR Inten    --      5.8273                 8.3131                 9.3482

                     13                     14                     15
                      A                      A                      A
 Frequencies --    313.0687               338.7503               366.3708
 Red. masses --      4.1502                 2.9751                 4.4984
 Frc consts  --      0.2397                 0.2011                 0.3558
 IR Inten    --      1.0111                 3.3932                10.7643

                     16                     17                     18
                      A                      A                      A
 Frequencies --    372.4423               414.0715               441.5428
 Red. masses --      1.1835                 2.8791                 5.2307
 Frc consts  --      0.0967                 0.2908                 0.6008
 IR Inten    --     59.9862                12.3226                 0.7694

                     19                     20                     21
                      A                      A                      A
 Frequencies --    525.0337               553.1030               598.7000
 Red. masses --      2.4265                 2.8315                 4.1769
 Frc consts  --      0.3941                 0.5104                 0.8821
 IR Inten    --     17.2134                 3.3969                 9.9758

                     22                     23                     24
                      A                      A                      A
 Frequencies --    622.8926               648.3049               673.6551
 Red. masses --      3.3626                 3.4471                 3.3088
 Frc consts  --      0.7687                 0.8536                 0.8847
 IR Inten    --     39.3311                 5.7634                29.9051

                     25                     26                     27
                      A                      A                      A
 Frequencies --    693.6031               719.8829               735.7673
 Red. masses --      1.4902                 3.5763                 1.3122
 Frc consts  --      0.4224                 1.0920                 0.4185
 IR Inten    --     73.7643                 4.9864                59.6139

                     28                     29                     30
                      A                      A                      A
 Frequencies --    743.2663               807.1018               811.3014
 Red. masses --      3.0367                 2.0121                 1.6332
 Frc consts  --      0.9884                 0.7722                 0.6333
 IR Inten    --      8.6657                20.2092                70.8243

                     31                     32                     33
                      A                      A                      A
 Frequencies --    823.7823               834.7791               845.3838
 Red. masses --      1.5316                 1.8368                 1.3644
 Frc consts  --      0.6124                 0.7541                 0.5745
 IR Inten    --     42.2131                65.5729                20.6398

                     34                     35                     36
                      A                      A                      A
 Frequencies --    883.2152               892.0799               936.6646
 Red. masses --      1.5206                 2.7293                 1.8062
 Frc consts  --      0.6989                 1.2797                 0.9336
 IR Inten    --    189.0656                41.7349                18.1967

                     37                     38                     39
                      A                      A                      A
 Frequencies --    937.6212               989.7704              1029.4876
 Red. masses --      4.0309                 2.7250                 3.7273
 Frc consts  --      2.0879                 1.5728                 2.3275
 IR Inten    --     20.9418                 2.8403                10.4285

                     40                     41                     42
                      A                      A                      A
 Frequencies --   1030.6082              1054.4613              1121.9598
 Red. masses --      2.2697                 4.2369                 2.5280
 Frc consts  --      1.4204                 2.7756                 1.8749
 IR Inten    --     75.6073                19.2352                 9.8785

                     43                     44                     45
                      A                      A                      A
 Frequencies --   1133.0980              1133.2147              1158.6831
 Red. masses --      3.5194                 1.6057                 1.9488
 Frc consts  --      2.6623                 1.2149                 1.5415
 IR Inten    --     17.1507                79.8067                 7.1682

                     46                     47                     48
                      A                      A                      A
 Frequencies --   1174.5877              1206.7193              1223.4295
 Red. masses --      1.4075                 1.3062                 2.2548
 Frc consts  --      1.1441                 1.1206                 1.9885
 IR Inten    --     42.9523                 1.4510                24.4927

                     49                     50                     51
                      A                      A                      A
 Frequencies --   1253.4699              1276.6672              1281.2806
 Red. masses --      1.8021                 2.2428                 1.4899
 Frc consts  --      1.6682                 2.1537                 1.4411
 IR Inten    --     95.8399                15.1774               102.3160

                     52                     53                     54
                      A                      A                      A
 Frequencies --   1287.8740              1314.8803              1335.2389
 Red. masses --      1.5718                 1.2729                 1.3479
 Frc consts  --      1.5360                 1.2966                 1.4158
 IR Inten    --     36.3945                 2.5611                14.9428

                     55                     56                     57
                      A                      A                      A
 Frequencies --   1381.7693              1386.0605              1400.9454
 Red. masses --      1.4944                 1.7113                 3.6335
 Frc consts  --      1.6811                 1.9371                 4.2016
 IR Inten    --      4.8293               160.7252                29.4833

                     58                     59                     60
                      A                      A                      A
 Frequencies --   1407.0250              1414.5833              1425.4052
 Red. masses --      1.6455                 1.2690                 1.4459
 Frc consts  --      1.9193                 1.4961                 1.7308
 IR Inten    --    325.3122                12.0335                56.7588

                     61                     62                     63
                      A                      A                      A
 Frequencies --   1449.1560              1478.8292              1488.9486
 Red. masses --      2.8953                 1.2502                 1.2650
 Frc consts  --      3.5823                 1.6109                 1.6524
 IR Inten    --     36.9848                14.6856                26.6975

                     64                     65                     66
                      A                      A                      A
 Frequencies --   1503.1395              1511.2780              1519.8387
 Red. masses --      1.1571                 1.0920                 3.1356
 Frc consts  --      1.5404                 1.4694                 4.2674
 IR Inten    --     12.7268                 3.7918                17.4156

                     67                     68                     69
                      A                      A                      A
 Frequencies --   1618.1484              1697.2994              1795.2531
 Red. masses --      4.3245                 1.0949                 8.1329
 Frc consts  --      6.6715                 1.8584                15.4436
 IR Inten    --     14.5358                24.8060               362.8775

                     70                     71                     72
                      A                      A                      A
 Frequencies --   1852.1539              3022.7683              3038.9264
 Red. masses --      9.6625                 1.0606                 1.0669
 Frc consts  --     19.5297                 5.7099                 5.8054
 IR Inten    --    224.5129                19.6519                22.8804

                     73                     74                     75
                      A                      A                      A
 Frequencies --   3056.2029              3066.2980              3099.4329
 Red. masses --      1.0917                 1.0720                 1.0892
 Frc consts  --      6.0078                 5.9384                 6.1651
 IR Inten    --      7.8249                38.8985                10.4849

                     76                     77                     78
                      A                      A                      A
 Frequencies --   3105.7818              3113.5116              3248.2235
 Red. masses --      1.0898                 1.1030                 1.0959
 Frc consts  --      6.1936                 6.2997                 6.8129
 IR Inten    --      2.6815                20.7276                 9.6603

                     79                     80                     81
                      A                      A                      A
 Frequencies --   3267.1781              3474.5669              3519.9194
 Red. masses --      1.0968                 1.0497                 1.0749
 Frc consts  --      6.8980                 7.4666                 7.8467
 IR Inten    --      3.4731                 3.2348                20.2788

                     82                     83                     84
                      A                      A                      A
 Frequencies --   3560.7679              3569.7857              3582.0533
 Red. masses --      1.0646                 1.0921                 1.0819
 Frc consts  --      7.9526                 8.1995                 8.1789
 IR Inten    --    168.1763                 2.4230               207.7031

 - Thermochemistry -
 -------------------
 Temperature   298.150 Kelvin.  Pressure   1.00000 Atm.
 Atom     1 has atomic number  8 and mass  15.99491

 Molecular mass:   226.10659 amu.
 Principal axes and moments of inertia in atomic units:
                           1         2         3
     Eigenvalues --  2379.613786414.470777876.72290
           X            0.97464  -0.19503  -0.10974
           Y            0.05292  -0.27558   0.95982
           Z            0.21743   0.94129   0.25827
 This molecule is an asymmetric top.
 Rotational symmetry number  1.
 Warning -- assumption of classical behavior for rotation
           may cause significant error
 Rotational temperatures (Kelvin)      0.03640     0.01350     0.01100
 Rotational constants (GHZ):           0.75842     0.28135     0.22912
 Zero-point vibrational energy     646727.1 (Joules/Mol)
                                  154.57148 (Kcal/Mol)
 Warning -- explicit consideration of  21 degrees of freedom as
           vibrations may cause significant error
 Vibrational temperatures:     28.57    56.45    74.68    95.33   117.17
          (Kelvin)            131.17   197.32   212.61   224.99   299.86
                              355.89   409.09   450.44   487.39   527.13
                              535.86   595.76   635.28   755.41   795.79
                              861.39   896.20   932.77   969.24   997.94
                             1035.75  1058.60  1069.39  1161.24  1167.28
                             1185.24  1201.06  1216.32  1270.75  1283.50
                             1347.65  1349.03  1424.06  1481.20  1482.81
                             1517.13  1614.25  1630.27  1630.44  1667.08
                             1689.97  1736.20  1760.24  1803.46  1836.84
                             1843.47  1852.96  1891.82  1921.11  1988.06
                             1994.23  2015.65  2024.39  2035.27  2050.84
                             2085.01  2127.70  2142.26  2162.68  2174.39
                             2186.71  2328.15  2442.03  2582.97  2664.83
                             4349.08  4372.33  4397.19  4411.71  4459.39
                             4468.52  4479.64  4673.46  4700.73  4999.12
                             5064.37  5123.14  5136.12  5153.77

 Zero-point correction=                           0.246325 (Hartree/Particle)
 Thermal correction to Energy=                    0.261884
 Thermal correction to Enthalpy=                  0.262828
 Thermal correction to Gibbs Free Energy=         0.201054
 Sum of electronic and zero-point Energies=           -795.829151
 Sum of electronic and thermal Energies=              -795.813592
 Sum of electronic and thermal Enthalpies=            -795.812648
 Sum of electronic and thermal Free Energies=         -795.874423

                     E (Thermal)             CV                S
                      KCal/Mol        Cal/Mol-Kelvin    Cal/Mol-Kelvin
 Total                  164.335             57.399            130.016
 Electronic               0.000              0.000              0.000
 Translational            0.889              2.981             42.150
 Rotational               0.889              2.981             33.152
 Vibrational            162.557             51.437             54.714
 Vibration     1          0.593              1.986              6.648
 Vibration     2          0.594              1.981              5.297
 Vibration     3          0.596              1.977              4.743
 Vibration     4          0.598              1.970              4.262
 Vibration     5          0.600              1.962              3.856
 Vibration     6          0.602              1.955              3.635
 Vibration     7          0.614              1.916              2.843
 Vibration     8          0.617              1.905              2.701
 Vibration     9          0.620              1.896              2.593
 Vibration    10          0.642              1.828              2.058
 Vibration    11          0.661              1.767              1.749
 Vibration    12          0.683              1.703              1.507
 Vibration    13          0.701              1.649              1.346
 Vibration    14          0.719              1.598              1.218
 Vibration    15          0.739              1.541              1.095
 Vibration    16          0.744              1.529              1.070
 Vibration    17          0.778              1.440              0.912
 Vibration    18          0.801              1.380              0.822
 Vibration    19          0.880              1.195              0.598
 Vibration    20          0.908              1.133              0.538
 Vibration    21          0.957              1.035              0.452

 Optimization completed.
    -- Stationary point found.
 Normal termination of Gaussian 09 at Wed Jul 28 22:38:40 2021.
