 Gaussian 09, Revision D.01,
 Gaussian 09:  ES64L-G09RevD.01 24-Apr-2013

 ----------------------------------------------------------------------
 # B3LYP/6-31G(d) opt=calcfc freq=noraman nosymm integral(ultrafinegrid
 )
 ----------------------------------------------------------------------

 ------------------------------------------------------------
 Candidate Structure: Conf:801 OPT and FREQ calc in gas phase
 ------------------------------------------------------------
 Symbolic Z-matrix:
 Charge =  0 Multiplicity = 1

 SCF Done:  E(RB3LYP) =  -796.071101354     A.U. after   14 cycles
 SCF Done:  E(RB3LYP) =  -796.074472512     A.U. after   14 cycles
 SCF Done:  E(RB3LYP) =  -796.062730500     A.U. after   15 cycles
 SCF Done:  E(RB3LYP) =  -796.074663981     A.U. after   11 cycles
 SCF Done:  E(RB3LYP) =  -796.075050581     A.U. after   14 cycles
 SCF Done:  E(RB3LYP) =  -796.067203080     A.U. after   14 cycles
 SCF Done:  E(RB3LYP) =  -796.075127902     A.U. after    9 cycles
 SCF Done:  E(RB3LYP) =  -796.075538729     A.U. after   12 cycles
 SCF Done:  E(RB3LYP) =  -796.075650445     A.U. after   12 cycles
 SCF Done:  E(RB3LYP) =  -796.075689101     A.U. after   11 cycles
 SCF Done:  E(RB3LYP) =  -796.075711248     A.U. after   11 cycles
 SCF Done:  E(RB3LYP) =  -796.075714002     A.U. after   10 cycles
 SCF Done:  E(RB3LYP) =  -796.075714325     A.U. after    8 cycles
 SCF Done:  E(RB3LYP) =  -796.075714570     A.U. after    8 cycles
 SCF Done:  E(RB3LYP) =  -796.075714739     A.U. after    8 cycles
 SCF Done:  E(RB3LYP) =  -796.075714798     A.U. after    7 cycles
 Optimization completed.
    -- Stationary point found.
 Normal termination of Gaussian 09 at Wed Jul 28 22:32:42 2021.

 --------------------------------------------------------------------
 #N Geom=AllCheck Guess=TCheck SCRF=Check GenChk RB3LYP/6-31G(d) Freq
 --------------------------------------------------------------------

 Structure from the checkpoint file:  "conf-801.chk"
 ------------------------------------------------------------
 Candidate Structure: Conf:801 OPT and FREQ calc in gas phase
 ------------------------------------------------------------
 Charge =  0 Multiplicity = 1

                          Input orientation:
 ---------------------------------------------------------------------
 Center     Atomic      Atomic             Coordinates (Angstroms)
 Number     Number       Type             X           Y           Z
 ---------------------------------------------------------------------
      1          8           0        1.362281    0.106872   -1.444301
      2          6           0        1.670015   -0.285930   -0.320444
      3          7           0        0.787060   -0.244836    0.720658
      4          6           0       -0.518735    0.360109    0.579993
      5          6           0       -1.024673    0.701272    1.988317
      6          8           0       -2.155504    1.424723    2.054363
      7          8           0       -0.454903    0.339335    2.992883
      8          6           0       -1.498378   -0.574921   -0.195862
      9          6           0       -2.841646    0.034322   -0.467153
     10          6           0       -3.235094    1.171903   -1.146553
     11          7           0       -4.604479    1.328976   -1.107498
     12          6           0       -5.047509    0.303583   -0.415718
     13          7           0       -4.027194   -0.506418   -0.001089
     14          6           0        3.040042   -0.868378   -0.000897
     15          6           0        4.171114   -0.026715   -0.605147
     16          7           0        5.465625   -0.656147   -0.319266
     17          1           0        1.070355   -0.456457    1.670452
     18          1           0       -0.420054    1.286215   -0.001951
     19          1           0       -2.509524    1.585615    1.155372
     20          1           0       -1.607599   -1.509878    0.366594
     21          1           0       -0.991789   -0.816659   -1.135256
     22          1           0       -2.606775    1.868637   -1.686896
     23          1           0       -6.082795    0.096466   -0.180031
     24          1           0       -4.113866   -1.344314    0.557324
     25          1           0        3.073442   -1.878219   -0.434833
     26          1           0        3.197451   -0.980228    1.077436
     27          1           0        4.171454    0.964082   -0.134359
     28          1           0        3.955800    0.127763   -1.673230
     29          1           0        5.558408   -1.508556   -0.871821
     30          1           0        6.217240   -0.042315   -0.629374
 ---------------------------------------------------------------------

 SCF Done:  E(RB3LYP) =  -796.075714798     A.U. after    1 cycles

 Alpha  occ. eigenvalues --  -19.20498 -19.15159 -19.11756 -14.41042 -14.36721
 Alpha  occ. eigenvalues --  -14.32736 -14.31554 -10.33484 -10.29241 -10.25990
 Alpha  occ. eigenvalues --  -10.25513 -10.24223 -10.22471 -10.21447 -10.21181
 Alpha  occ. eigenvalues --  -10.19613  -1.11416  -1.03888  -1.03284  -1.02966
 Alpha  occ. eigenvalues --   -0.93355  -0.88702  -0.88235  -0.81554  -0.76717
 Alpha  occ. eigenvalues --   -0.73878  -0.68634  -0.63574  -0.63178  -0.61809
 Alpha  occ. eigenvalues --   -0.60714  -0.58914  -0.56467  -0.54272  -0.50279
 Alpha  occ. eigenvalues --   -0.49324  -0.48674  -0.48024  -0.46606  -0.45377
 Alpha  occ. eigenvalues --   -0.44777  -0.44123  -0.43414  -0.43003  -0.42193
 Alpha  occ. eigenvalues --   -0.41730  -0.40621  -0.39037  -0.38844  -0.37556
 Alpha  occ. eigenvalues --   -0.36672  -0.34267  -0.32918  -0.29823  -0.29034
 Alpha  occ. eigenvalues --   -0.28065  -0.26807  -0.25862  -0.24081  -0.23445
 Alpha virt. eigenvalues --   -0.00977   0.01166   0.01967   0.04147   0.05727
 Alpha virt. eigenvalues --    0.07970   0.08759   0.09026   0.10869   0.11386
 Alpha virt. eigenvalues --    0.12758   0.13264   0.14685   0.15577   0.16273

 Mulliken charges:
               1
     1  O   -0.534279
     2  C    0.614648
     3  N   -0.621781
     4  C   -0.067180
     5  C    0.601675
     6  O   -0.572703
     7  O   -0.456909
     8  C   -0.339439
     9  C    0.263536
    10  C   -0.102216
    11  N   -0.410395
    12  C    0.209775
    13  N   -0.588717
    14  C   -0.350968
    15  C   -0.139251
    16  N   -0.719930
    17  H    0.353043
    18  H    0.189615
    19  H    0.430193
    20  H    0.152435
    21  H    0.215606
    22  H    0.154221
    23  H    0.166750
    24  H    0.340097
    25  H    0.163552
    26  H    0.156725
    27  H    0.146243
    28  H    0.152095
    29  H    0.293254
    30  H    0.300304
 Sum of Mulliken charges =   0.00000

 Dipole moment (field-independent basis, Debye):
    X=             -0.1417    Y=             -3.2624    Z=             -0.5806  Tot=              3.3167
 Quadrupole moment (field-independent basis, Debye-Ang):
   XX=            -82.5609   YY=            -89.9919   ZZ=           -111.3034
   XY=             13.4629   XZ=            -10.8375   YZ=             -0.2641

  Exact polarizability: 169.375 -12.556  97.833   0.465 -10.238 105.315
 Approx polarizability: 204.771 -16.787 161.896   4.739 -29.596 175.202

                      1                      2                      3
                      A                      A                      A
 Frequencies --     22.3392                28.2519                44.5126
 Red. masses --      3.5812                 5.0477                 4.3991
 Frc consts  --      0.0011                 0.0024                 0.0051
 IR Inten    --      2.6646                 1.3109                 2.4395

                      4                      5                      6
                      A                      A                      A
 Frequencies --     59.5879                72.6105                81.9639
 Red. masses --      2.8389                 5.2120                 5.0167
 Frc consts  --      0.0059                 0.0162                 0.0199
 IR Inten    --      1.0339                14.2324                 1.4333

                      7                      8                      9
                      A                      A                      A
 Frequencies --     93.5630               109.2368               132.6511
 Red. masses --      5.6379                 5.6609                 4.4687
 Frc consts  --      0.0291                 0.0398                 0.0463
 IR Inten    --      2.3626                 1.9893                13.9225

                     10                     11                     12
                      A                      A                      A
 Frequencies --    200.1583               225.2652               255.7204
 Red. masses --      4.4539                 4.6066                 1.4335
 Frc consts  --      0.1051                 0.1377                 0.0552
 IR Inten    --      0.9996                26.6125                37.7838

                     13                     14                     15
                      A                      A                      A
 Frequencies --    282.3775               315.9718               328.4403
 Red. masses --      2.8539                 7.1118                 2.3235
 Frc consts  --      0.1341                 0.4183                 0.1477
 IR Inten    --     19.7359                 0.4820                 5.8259

                     16                     17                     18
                      A                      A                      A
 Frequencies --    351.0014               391.7257               402.3855
 Red. masses --      5.9673                 4.3359                 4.4485
 Frc consts  --      0.4332                 0.3920                 0.4244
 IR Inten    --      2.7560                25.6620                 4.6195

                     19                     20                     21
                      A                      A                      A
 Frequencies --    528.2663               534.0566               562.2514
 Red. masses --      1.9921                 1.4255                 1.9806
 Frc consts  --      0.3275                 0.2395                 0.3689
 IR Inten    --     28.3439                98.1391                42.2428

                     22                     23                     24
                      A                      A                      A
 Frequencies --    615.5162               638.5251               661.3180
 Red. masses --      2.5099                 2.0451                 1.7886
 Frc consts  --      0.5603                 0.4913                 0.4609
 IR Inten    --     54.8958                 8.5813                27.7100

                     25                     26                     27
                      A                      A                      A
 Frequencies --    667.5832               682.7534               733.1012
 Red. masses --      3.0322                 2.9214                 3.0575
 Frc consts  --      0.7962                 0.8024                 0.9682
 IR Inten    --     25.9914                12.7113                 3.5003

                     28                     29                     30
                      A                      A                      A
 Frequencies --    747.5752               771.4608               804.6696
 Red. masses --      5.4888                 3.8328                 1.2933
 Frc consts  --      1.8073                 1.3440                 0.4934
 IR Inten    --      9.7454                15.8335                10.3390

                     31                     32                     33
                      A                      A                      A
 Frequencies --    810.2139               825.4800               852.6102
 Red. masses --      1.4168                 2.5465                 1.3951
 Frc consts  --      0.5480                 1.0224                 0.5975
 IR Inten    --     11.7658                11.5535                27.6192

                     34                     35                     36
                      A                      A                      A
 Frequencies --    890.5746               933.3382               958.5059
 Red. masses --      1.3354                 5.9929                 3.2379
 Frc consts  --      0.6240                 3.0758                 1.7527
 IR Inten    --    134.0004                12.8018                26.2951

                     37                     38                     39
                      A                      A                      A
 Frequencies --    991.7311              1016.1855              1029.3426
 Red. masses --      2.1418                 3.4534                 3.7302
 Frc consts  --      1.2412                 2.1011                 2.3286
 IR Inten    --      5.0603                 8.2511                 5.4536

                     40                     41                     42
                      A                      A                      A
 Frequencies --   1041.3838              1057.5746              1103.0942
 Red. masses --      3.4596                 2.3171                 2.2675
 Frc consts  --      2.2105                 1.5269                 1.6256
 IR Inten    --      4.2727                12.2396                19.9032

                     43                     44                     45
                      A                      A                      A
 Frequencies --   1121.5026              1152.7635              1159.4652
 Red. masses --      1.6440                 2.0724                 2.6613
 Frc consts  --      1.2183                 1.6226                 2.1079
 IR Inten    --     16.1036                13.3263                10.7222

                     46                     47                     48
                      A                      A                      A
 Frequencies --   1170.3864              1177.3239              1223.4676
 Red. masses --      1.4260                 1.4834                 1.8504
 Frc consts  --      1.1508                 1.2115                 1.6319
 IR Inten    --     20.4534                 3.7740                38.6025

                     49                     50                     51
                      A                      A                      A
 Frequencies --   1234.7637              1264.8217              1289.3479
 Red. masses --      1.7816                 1.9454                 1.4575
 Frc consts  --      1.6004                 1.8337                 1.4276
 IR Inten    --     11.4258                18.3950                 1.3582

                     52                     53                     54
                      A                      A                      A
 Frequencies --   1304.1593              1327.1585              1331.3538
 Red. masses --      1.3308                 1.3359                 1.3264
 Frc consts  --      1.3336                 1.3863                 1.3852
 IR Inten    --      9.0626                 2.2370                 5.3522

                     55                     56                     57
                      A                      A                      A
 Frequencies --   1340.3295              1374.5337              1377.2469
 Red. masses --      1.3700                 1.3708                 1.4306
 Frc consts  --      1.4500                 1.5259                 1.5988
 IR Inten    --     67.3154                18.1770               141.1831

                     58                     59                     60
                      A                      A                      A
 Frequencies --   1408.7341              1420.1822              1446.2969
 Red. masses --      2.5599                 2.0515                 1.4614
 Frc consts  --      2.9932                 2.4378                 1.8010
 IR Inten    --     55.2039               166.0974                35.0112

                     61                     62                     63
                      A                      A                      A
 Frequencies --   1446.4108              1502.4380              1506.1228
 Red. masses --      3.1908                 1.1010                 2.6011
 Frc consts  --      3.9330                 1.4643                 3.4763
 IR Inten    --     24.2620                 7.6881                16.7592

                     64                     65                     66
                      A                      A                      A
 Frequencies --   1515.1152              1538.2038              1547.2764
 Red. masses --      1.3426                 2.2249                 1.0880
 Frc consts  --      1.8159                 3.1016                 1.5347
 IR Inten    --     19.8106               334.1100                 0.5009

                     67                     68                     69
                      A                      A                      A
 Frequencies --   1609.9798              1697.8279              1758.4185
 Red. masses --      3.9791                 1.0884                 9.6401
 Frc consts  --      6.0769                 1.8485                17.5620
 IR Inten    --     12.6806                26.2972               193.4809

                     70                     71                     72
                      A                      A                      A
 Frequencies --   1856.4585              3015.8429              3036.2901
 Red. masses --      9.3997                 1.0666                 1.0674
 Frc consts  --     19.0868                 5.7158                 5.7981
 IR Inten    --    260.2438                35.6372                10.5661

                     73                     74                     75
                      A                      A                      A
 Frequencies --   3048.0706              3065.2592              3073.1486
 Red. masses --      1.0809                 1.0648                 1.0927
 Frc consts  --      5.9167                 5.8948                 6.0804
 IR Inten    --      6.6820                19.2689                24.9776

                     76                     77                     78
                      A                      A                      A
 Frequencies --   3101.9445              3117.0030              3256.0500
 Red. masses --      1.0994                 1.1023                 1.0958
 Frc consts  --      6.2329                 6.3097                 6.8448
 IR Inten    --     32.1375                 2.7224                 4.3140

                     79                     80                     81
                      A                      A                      A
 Frequencies --   3272.0740              3457.8066              3544.0446
 Red. masses --      1.0973                 1.0505                 1.0916
 Frc consts  --      6.9219                 7.4002                 8.0779
 IR Inten    --      1.5095                 2.5105                 0.6231

                     82                     83                     84
                      A                      A                      A
 Frequencies --   3581.1032              3588.3419              3638.8277
 Red. masses --      1.0672                 1.0771                 1.0811
 Frc consts  --      8.0633                 8.1713                 8.4345
 IR Inten    --    202.3514               135.2058                47.9214

 - Thermochemistry -
 -------------------
 Temperature   298.150 Kelvin.  Pressure   1.00000 Atm.
 Atom     1 has atomic number  8 and mass  15.99491

 Molecular mass:   226.10659 amu.
 Principal axes and moments of inertia in atomic units:
                           1         2         3
     Eigenvalues --  1587.642238026.317518997.67377
           X            0.99156   0.03776   0.12405
           Y           -0.12758   0.11279   0.98539
           Z           -0.02322   0.99290  -0.11665
 This molecule is an asymmetric top.
 Rotational symmetry number  1.
 Warning -- assumption of classical behavior for rotation
           may cause significant error
 Rotational temperatures (Kelvin)      0.05455     0.01079     0.00963
 Rotational constants (GHZ):           1.13674     0.22485     0.20058
 Zero-point vibrational energy     644504.7 (Joules/Mol)
                                  154.04032 (Kcal/Mol)
 Warning -- explicit consideration of  22 degrees of freedom as
           vibrations may cause significant error
 Vibrational temperatures:     32.14    40.65    64.04    85.73   104.47
          (Kelvin)            117.93   134.62   157.17   190.86   287.98
                              324.11   367.92   406.28   454.61   472.55
                              505.01   563.61   578.94   760.06   768.39
                              808.95   885.59   918.69   951.49   960.50
                              982.33  1054.77  1075.59  1109.96  1157.74
                             1165.72  1187.68  1226.71  1281.34  1342.86
                             1379.07  1426.88  1462.06  1480.99  1498.32
                             1521.61  1587.10  1613.59  1658.57  1668.21
                             1683.92  1693.90  1760.29  1776.55  1819.79
                             1855.08  1876.39  1909.48  1915.52  1928.43
                             1977.64  1981.55  2026.85  2043.32  2080.90
                             2081.06  2161.67  2166.97  2179.91  2213.13
                             2226.18  2316.40  2442.79  2529.97  2671.03
                             4339.12  4368.54  4385.49  4410.22  4421.57
                             4463.00  4484.67  4684.72  4707.78  4975.01
                             5099.08  5152.40  5162.82  5235.45

 Zero-point correction=                           0.245479 (Hartree/Particle)
 Thermal correction to Energy=                    0.261649
 Thermal correction to Enthalpy=                  0.262593
 Thermal correction to Gibbs Free Energy=         0.198754
 Sum of electronic and zero-point Energies=           -795.830236
 Sum of electronic and thermal Energies=              -795.814066
 Sum of electronic and thermal Enthalpies=            -795.813122
 Sum of electronic and thermal Free Energies=         -795.876961

                     E (Thermal)             CV                S
                      KCal/Mol        Cal/Mol-Kelvin    Cal/Mol-Kelvin
 Total                  164.187             58.195            134.361
 Electronic               0.000              0.000              0.000
 Translational            0.889              2.981             42.150
 Rotational               0.889              2.981             33.105
 Vibrational            162.410             52.234             59.106
 Vibration     1          0.593              1.985              6.415
 Vibration     2          0.593              1.984              5.949
 Vibration     3          0.595              1.980              5.047
 Vibration     4          0.597              1.974              4.471
 Vibration     5          0.599              1.967              4.081
 Vibration     6          0.600              1.962              3.843
 Vibration     7          0.603              1.954              3.584
 Vibration     8          0.606              1.942              3.282
 Vibration     9          0.613              1.921              2.907
 Vibration    10          0.638              1.840              2.132
 Vibration    11          0.650              1.803              1.916
 Vibration    12          0.666              1.753              1.691
 Vibration    13          0.681              1.706              1.519
 Vibration    14          0.703              1.643              1.331
 Vibration    15          0.712              1.619              1.268
 Vibration    16          0.728              1.573              1.162
 Vibration    17          0.759              1.488              0.994
 Vibration    18          0.768              1.465              0.954
 Vibration    19          0.883              1.187              0.591
 Vibration    20          0.889              1.175              0.578
 Vibration    21          0.918              1.113              0.519
 Vibration    22          0.975              0.999              0.424

 Optimization completed.
    -- Stationary point found.
 Normal termination of Gaussian 09 at Wed Jul 28 22:47:04 2021.
