 Gaussian 09, Revision D.01,
 Gaussian 09:  ES64L-G09RevD.01 24-Apr-2013

 ----------------------------------------------------------------------
 # B3LYP/6-31G(d) opt=calcfc freq=noraman nosymm integral(ultrafinegrid
 )
 ----------------------------------------------------------------------

 ------------------------------------------------------------
 Candidate Structure: Conf:273 OPT and FREQ calc in gas phase
 ------------------------------------------------------------
 Symbolic Z-matrix:
 Charge =  0 Multiplicity = 1

 SCF Done:  E(RB3LYP) =  -796.076545564     A.U. after   15 cycles
 SCF Done:  E(RB3LYP) =  -796.079303780     A.U. after   13 cycles
 SCF Done:  E(RB3LYP) =  -796.079768698     A.U. after   14 cycles
 SCF Done:  E(RB3LYP) =  -796.079913030     A.U. after   12 cycles
 SCF Done:  E(RB3LYP) =  -796.079474868     A.U. after   14 cycles
 SCF Done:  E(RB3LYP) =  -796.065323004     A.U. after   13 cycles
 SCF Done:  E(RB3LYP) =  -796.079938303     A.U. after    9 cycles
 SCF Done:  E(RB3LYP) =  -796.079965666     A.U. after   11 cycles
 SCF Done:  E(RB3LYP) =  -796.079966905     A.U. after    9 cycles
 SCF Done:  E(RB3LYP) =  -796.079967099     A.U. after    8 cycles
 SCF Done:  E(RB3LYP) =  -796.079967171     A.U. after    7 cycles
 Optimization completed.
    -- Stationary point found.
 Normal termination of Gaussian 09 at Wed Jul 28 22:27:30 2021.

 --------------------------------------------------------------------
 #N Geom=AllCheck Guess=TCheck SCRF=Check GenChk RB3LYP/6-31G(d) Freq
 --------------------------------------------------------------------

 Structure from the checkpoint file:  "conf-273.chk"
 ------------------------------------------------------------
 Candidate Structure: Conf:273 OPT and FREQ calc in gas phase
 ------------------------------------------------------------
 Charge =  0 Multiplicity = 1

                          Input orientation:
 ---------------------------------------------------------------------
 Center     Atomic      Atomic             Coordinates (Angstroms)
 Number     Number       Type             X           Y           Z
 ---------------------------------------------------------------------
      1          8           0        0.701663   -1.718862    1.608773
      2          6           0        0.888766   -0.669569    0.974550
      3          7           0        0.299899   -0.453664   -0.229460
      4          6           0       -0.797162   -1.288493   -0.744121
      5          6           0       -0.274691   -2.641334   -1.302733
      6          8           0        0.362581   -3.415104   -0.422965
      7          8           0       -0.458478   -2.978205   -2.450492
      8          6           0       -1.571257   -0.544128   -1.835340
      9          6           0       -2.163614    0.759474   -1.388500
     10          6           0       -2.357656    1.358918   -0.163158
     11          7           0       -2.993835    2.574999   -0.293375
     12          6           0       -3.190321    2.721404   -1.583450
     13          7           0       -2.705096    1.657715   -2.293552
     14          6           0        1.774277    0.440374    1.509892
     15          6           0        2.988508   -0.101738    2.272156
     16          7           0        3.719462    1.008236    2.888472
     17          1           0        0.407187    0.458591   -0.653913
     18          1           0       -1.461735   -1.519556    0.100268
     19          1           0        0.437204   -2.949613    0.454100
     20          1           0       -2.348879   -1.227247   -2.196928
     21          1           0       -0.901851   -0.396441   -2.693666
     22          1           0       -2.077655    0.981696    0.811320
     23          1           0       -3.668524    3.565938   -2.061778
     24          1           0       -2.751701    1.532542   -3.295200
     25          1           0        2.091645    1.104186    0.694724
     26          1           0        1.178502    1.052551    2.199573
     27          1           0        2.625849   -0.761831    3.064900
     28          1           0        3.594212   -0.727270    1.592900
     29          1           0        4.430717    0.641754    3.518208
     30          1           0        4.221948    1.534981    2.174832
 ---------------------------------------------------------------------

 SCF Done:  E(RB3LYP) =  -796.079967171     A.U. after    1 cycles

 Alpha  occ. eigenvalues --  -19.17516 -19.14845 -19.13087 -14.40195 -14.39250
 Alpha  occ. eigenvalues --  -14.32361 -14.31921 -10.31715 -10.31618 -10.26201
 Alpha  occ. eigenvalues --  -10.24817 -10.23364 -10.22265 -10.22145 -10.21145
 Alpha  occ. eigenvalues --  -10.20629  -1.09242  -1.06212  -1.02211  -1.00915
 Alpha  occ. eigenvalues --   -0.95351  -0.89143  -0.87930  -0.81805  -0.77386
 Alpha  occ. eigenvalues --   -0.74263  -0.68074  -0.64451  -0.62441  -0.61096
 Alpha  occ. eigenvalues --   -0.60004  -0.59331  -0.55898  -0.53125  -0.52717
 Alpha  occ. eigenvalues --   -0.51366  -0.49866  -0.47088  -0.46028  -0.45546
 Alpha  occ. eigenvalues --   -0.44217  -0.43954  -0.43220  -0.42481  -0.42298
 Alpha  occ. eigenvalues --   -0.41526  -0.41320  -0.39751  -0.39057  -0.37028
 Alpha  occ. eigenvalues --   -0.36828  -0.35979  -0.30600  -0.30151  -0.28915
 Alpha  occ. eigenvalues --   -0.28441  -0.27414  -0.25983  -0.24613  -0.23367
 Alpha virt. eigenvalues --   -0.00836   0.01011   0.01594   0.05792   0.06254
 Alpha virt. eigenvalues --    0.06437   0.07033   0.09470   0.10642   0.12553
 Alpha virt. eigenvalues --    0.13057   0.13737   0.14071   0.15405   0.16347

 Mulliken charges:
               1
     1  O   -0.558371
     2  C    0.633031
     3  N   -0.597901
     4  C   -0.089229
     5  C    0.630860
     6  O   -0.595593
     7  O   -0.459868
     8  C   -0.380842
     9  C    0.311038
    10  C   -0.087729
    11  N   -0.424362
    12  C    0.210812
    13  N   -0.608432
    14  C   -0.353931
    15  C   -0.141899
    16  N   -0.718195
    17  H    0.344676
    18  H    0.190165
    19  H    0.450284
    20  H    0.194396
    21  H    0.170831
    22  H    0.136463
    23  H    0.160097
    24  H    0.335872
    25  H    0.142101
    26  H    0.200058
    27  H    0.177111
    28  H    0.128737
    29  H    0.305092
    30  H    0.294730
 Sum of Mulliken charges =   0.00000

 Dipole moment (field-independent basis, Debye):
    X=              1.4877    Y=              3.7028    Z=             -2.1038  Tot=              4.5111
 Quadrupole moment (field-independent basis, Debye-Ang):
   XX=            -81.2456   YY=           -115.4192   ZZ=            -90.7685
   XY=              4.9502   XZ=             13.4572   YZ=            -18.3500

  Exact polarizability: 108.033 -14.707 128.481  26.215   2.515 129.835
 Approx polarizability: 137.931 -17.638 185.352  20.393  -0.065 215.114

                      1                      2                      3
                      A                      A                      A
 Frequencies --     25.6129                31.4107                46.5814
 Red. masses --      4.6076                 3.1490                 3.1243
 Frc consts  --      0.0018                 0.0018                 0.0040
 IR Inten    --      0.7669                 1.9403                 5.7034

                      4                      5                      6
                      A                      A                      A
 Frequencies --     64.5716                69.3391                83.9023
 Red. masses --      6.1569                 3.5514                 6.1240
 Frc consts  --      0.0151                 0.0101                 0.0254
 IR Inten    --      4.4888                10.5996                 0.4658

                      7                      8                      9
                      A                      A                      A
 Frequencies --     88.0738               156.7609               169.9142
 Red. masses --      3.9346                 4.6650                 4.0132
 Frc consts  --      0.0180                 0.0675                 0.0683
 IR Inten    --      1.3768                12.9278                 3.0484

                     10                     11                     12
                      A                      A                      A
 Frequencies --    216.3179               231.3135               249.8980
 Red. masses --      6.5895                 4.6372                 1.8268
 Frc consts  --      0.1817                 0.1462                 0.0672
 IR Inten    --      5.5405                11.2965                13.3050

                     13                     14                     15
                      A                      A                      A
 Frequencies --    267.1535               284.8577               313.5507
 Red. masses --      1.8811                 3.1834                 6.2898
 Frc consts  --      0.0791                 0.1522                 0.3643
 IR Inten    --     23.3691                29.5420                 6.8909

                     16                     17                     18
                      A                      A                      A
 Frequencies --    359.1855               385.7499               438.4178
 Red. masses --      5.7902                 4.5137                 2.9449
 Frc consts  --      0.4401                 0.3957                 0.3335
 IR Inten    --      1.9654                 2.8568                 5.8357

                     19                     20                     21
                      A                      A                      A
 Frequencies --    473.2697               513.6508               544.0801
 Red. masses --      1.3154                 1.4820                 4.4302
 Frc consts  --      0.1736                 0.2304                 0.7727
 IR Inten    --     93.8265                84.7871                15.6845

                     22                     23                     24
                      A                      A                      A
 Frequencies --    620.8280               624.9420               649.9704
 Red. masses --      5.3853                 2.7771                 2.4872
 Frc consts  --      1.2229                 0.6390                 0.6191
 IR Inten    --     11.9744                16.3053                18.1674

                     25                     26                     27
                      A                      A                      A
 Frequencies --    680.2369               728.7601               753.5762
 Red. masses --      3.1071                 4.6710                 4.2575
 Frc consts  --      0.8471                 1.4616                 1.4245
 IR Inten    --      1.9575                 2.9858                 5.0275

                     28                     29                     30
                      A                      A                      A
 Frequencies --    768.6287               800.4389               806.1618
 Red. masses --      4.6085                 1.3619                 1.4125
 Frc consts  --      1.6041                 0.5141                 0.5409
 IR Inten    --     31.1631                14.4277                 8.2829

                     31                     32                     33
                      A                      A                      A
 Frequencies --    838.6692               874.1070               877.8419
 Red. masses --      1.3050                 2.0474                 1.2804
 Frc consts  --      0.5408                 0.9217                 0.5813
 IR Inten    --     10.8240                49.7193                82.5302

                     34                     35                     36
                      A                      A                      A
 Frequencies --    887.8280               931.6241               945.7777
 Red. masses --      1.2846                 5.7991                 3.4691
 Frc consts  --      0.5966                 2.9655                 1.8283
 IR Inten    --    100.5990                12.9980                 2.7682

                     37                     38                     39
                      A                      A                      A
 Frequencies --    969.9446              1005.4480              1027.0048
 Red. masses --      3.0243                 2.5294                 3.9100
 Frc consts  --      1.6763                 1.5066                 2.4298
 IR Inten    --      4.4771                 2.3255                 7.6176

                     40                     41                     42
                      A                      A                      A
 Frequencies --   1073.3895              1090.9674              1111.3480
 Red. masses --      2.8373                 2.4570                 2.0821
 Frc consts  --      1.9260                 1.7230                 1.5151
 IR Inten    --     25.6881                10.8373                20.0554

                     43                     44                     45
                      A                      A                      A
 Frequencies --   1119.7353              1123.5475              1157.9120
 Red. masses --      2.6356                 1.7631                 2.2457
 Frc consts  --      1.9470                 1.3113                 1.7740
 IR Inten    --      8.9712                15.4321                14.0716

                     46                     47                     48
                      A                      A                      A
 Frequencies --   1171.7091              1209.3855              1234.4490
 Red. masses --      1.3338                 1.6362                 2.2966
 Frc consts  --      1.0789                 1.4100                 2.0620
 IR Inten    --      4.8219                16.2200                12.3800

                     49                     50                     51
                      A                      A                      A
 Frequencies --   1250.4734              1277.1928              1292.1341
 Red. masses --      1.6576                 1.5054                 1.4712
 Frc consts  --      1.5271                 1.4469                 1.4472
 IR Inten    --     26.5873                10.7569                 1.5291

                     52                     53                     54
                      A                      A                      A
 Frequencies --   1295.3084              1328.4743              1354.0831
 Red. masses --      1.4746                 1.7553                 1.1281
 Frc consts  --      1.4577                 1.8252                 1.2186
 IR Inten    --     45.4395                13.1649                 4.5131

                     55                     56                     57
                      A                      A                      A
 Frequencies --   1367.5397              1382.1811              1396.7774
 Red. masses --      1.8722                 1.4718                 1.5142
 Frc consts  --      2.0629                 1.6567                 1.7406
 IR Inten    --      1.1676                 6.3513                15.0510

                     58                     59                     60
                      A                      A                      A
 Frequencies --   1430.9324              1442.8757              1446.8506
 Red. masses --      2.2283                 2.8638                 1.4950
 Frc consts  --      2.6883                 3.5128                 1.8439
 IR Inten    --      9.0554                17.9018                32.6104

                     61                     62                     63
                      A                      A                      A
 Frequencies --   1472.7823              1494.2513              1505.3384
 Red. masses --      1.4075                 1.0932                 1.2046
 Frc consts  --      1.7988                 1.4381                 1.6083
 IR Inten    --    299.2071                11.3100                25.0892

                     64                     65                     66
                      A                      A                      A
 Frequencies --   1521.5381              1543.1459              1553.1343
 Red. masses --      3.1590                 1.0850                 2.1450
 Frc consts  --      4.3089                 1.5223                 3.0485
 IR Inten    --     14.4132                 0.9986               325.8552

                     67                     68                     69
                      A                      A                      A
 Frequencies --   1622.6132              1701.3548              1720.5023
 Red. masses --      4.1889                 1.1021                 7.0943
 Frc consts  --      6.4980                 1.8796                12.3729
 IR Inten    --     11.0124                21.2759               210.2254

                     70                     71                     72
                      A                      A                      A
 Frequencies --   1858.6759              2969.8194              3037.6549
 Red. masses --      8.9247                 1.0744                 1.0805
 Frc consts  --     18.1658                 5.5831                 5.8744
 IR Inten    --    308.6135                68.5715                 4.0261

                     73                     74                     75
                      A                      A                      A
 Frequencies --   3044.1360              3049.4215              3084.3453
 Red. masses --      1.0611                 1.0676                 1.0992
 Frc consts  --      5.7934                 5.8491                 6.1608
 IR Inten    --     15.3312                17.0608                 3.9187

                     76                     77                     78
                      A                      A                      A
 Frequencies --   3084.6244              3120.4306              3261.2202
 Red. masses --      1.0977                 1.0907                 1.0952
 Frc consts  --      6.1536                 6.2572                 6.8626
 IR Inten    --     11.7362                16.9743                10.9411

                     79                     80                     81
                      A                      A                      A
 Frequencies --   3268.0557              3271.8622              3466.6268
 Red. masses --      1.0975                 1.0720                 1.0505
 Frc consts  --      6.9063                 6.7617                 7.4383
 IR Inten    --      1.9791               637.2711                 1.4459

                     82                     83                     84
                      A                      A                      A
 Frequencies --   3552.1757              3606.0112              3637.9747
 Red. masses --      1.0918                 1.0779                 1.0809
 Frc consts  --      8.1168                 8.2581                 8.4288
 IR Inten    --      0.0572                39.0166                44.9082

 - Thermochemistry -
 -------------------
 Temperature   298.150 Kelvin.  Pressure   1.00000 Atm.
 Atom     1 has atomic number  8 and mass  15.99491

 Molecular mass:   226.10659 amu.
 Principal axes and moments of inertia in atomic units:
                           1         2         3
     Eigenvalues --  3093.865055544.508838076.66755
           X            0.79118   0.04485  -0.60994
           Y           -0.29186   0.90410  -0.31211
           Z            0.53745   0.42495   0.72840
 This molecule is an asymmetric top.
 Rotational symmetry number  1.
 Warning -- assumption of classical behavior for rotation
           may cause significant error
 Rotational temperatures (Kelvin)      0.02800     0.01562     0.01072
 Rotational constants (GHZ):           0.58333     0.32550     0.22345
 Zero-point vibrational energy     644849.2 (Joules/Mol)
                                  154.12265 (Kcal/Mol)
 Warning -- explicit consideration of  21 degrees of freedom as
           vibrations may cause significant error
 Vibrational temperatures:     36.85    45.19    67.02    92.90    99.76
          (Kelvin)            120.72   126.72   225.54   244.47   311.23
                              332.81   359.55   384.37   409.85   451.13
                              516.79   555.01   630.78   680.93   739.03
                              782.81   893.23   899.15   935.16   978.71
                             1048.52  1084.23  1105.88  1151.65  1159.89
                             1206.66  1257.64  1263.02  1277.38  1340.40
                             1360.76  1395.53  1446.61  1477.63  1544.37
                             1569.66  1598.98  1611.05  1616.53  1665.98
                             1685.83  1740.03  1776.09  1799.15  1837.59
                             1859.09  1863.66  1911.38  1948.22  1967.58
                             1988.65  2009.65  2058.79  2075.97  2081.69
                             2119.00  2149.89  2165.84  2189.15  2220.24
                             2234.61  2334.58  2447.87  2475.42  2674.22
                             4272.90  4370.50  4379.83  4387.43  4437.68
                             4438.08  4489.60  4692.16  4702.00  4707.47
                             4987.70  5110.78  5188.24  5234.23

 Zero-point correction=                           0.245610 (Hartree/Particle)
 Thermal correction to Energy=                    0.261627
 Thermal correction to Enthalpy=                  0.262571
 Thermal correction to Gibbs Free Energy=         0.199423
 Sum of electronic and zero-point Energies=           -795.834357
 Sum of electronic and thermal Energies=              -795.818340
 Sum of electronic and thermal Enthalpies=            -795.817396
 Sum of electronic and thermal Free Energies=         -795.880544

                     E (Thermal)             CV                S
                      KCal/Mol        Cal/Mol-Kelvin    Cal/Mol-Kelvin
 Total                  164.173             57.891            132.905
 Electronic               0.000              0.000              0.000
 Translational            0.889              2.981             42.150
 Rotational               0.889              2.981             33.293
 Vibrational            162.396             51.929             57.462
 Vibration     1          0.593              1.985              6.143
 Vibration     2          0.594              1.983              5.738
 Vibration     3          0.595              1.979              4.957
 Vibration     4          0.597              1.971              4.312
 Vibration     5          0.598              1.969              4.172
 Vibration     6          0.601              1.960              3.797
 Vibration     7          0.601              1.958              3.702
 Vibration     8          0.620              1.895              2.589
 Vibration     9          0.625              1.880              2.436
 Vibration    10          0.645              1.816              1.990
 Vibration    11          0.653              1.793              1.869
 Vibration    12          0.663              1.763              1.731
 Vibration    13          0.672              1.733              1.615
 Vibration    14          0.683              1.702              1.504
 Vibration    15          0.701              1.648              1.344
 Vibration    16          0.734              1.556              1.126
 Vibration    17          0.754              1.501              1.017
 Vibration    18          0.799              1.386              0.832
 Vibration    19          0.830              1.309              0.728
 Vibration    20          0.869              1.220              0.625
 Vibration    21          0.899              1.153              0.557

 Optimization completed.
    -- Stationary point found.
 Normal termination of Gaussian 09 at Wed Jul 28 22:42:45 2021.
