 Gaussian 09, Revision D.01,
 Gaussian 09:  ES64L-G09RevD.01 24-Apr-2013

 ----------------------------------------------------------------------
 # B3LYP/6-31G(d) opt=calcfc freq=noraman nosymm integral(ultrafinegrid
 )
 ----------------------------------------------------------------------

 ------------------------------------------------------------
 Candidate Structure: Conf:609 OPT and FREQ calc in gas phase
 ------------------------------------------------------------
 Symbolic Z-matrix:
 Charge =  0 Multiplicity = 1

 SCF Done:  E(RB3LYP) =  -796.072164829     A.U. after   14 cycles
 SCF Done:  E(RB3LYP) =  -796.074794533     A.U. after   14 cycles
 SCF Done:  E(RB3LYP) =  -796.075054849     A.U. after   14 cycles
 SCF Done:  E(RB3LYP) =  -796.075279866     A.U. after   12 cycles
 SCF Done:  E(RB3LYP) =  -796.075370634     A.U. after   12 cycles
 SCF Done:  E(RB3LYP) =  -796.075413144     A.U. after   12 cycles
 SCF Done:  E(RB3LYP) =  -796.075420573     A.U. after   11 cycles
 SCF Done:  E(RB3LYP) =  -796.075429641     A.U. after   11 cycles
 SCF Done:  E(RB3LYP) =  -796.075430870     A.U. after   10 cycles
 SCF Done:  E(RB3LYP) =  -796.075431129     A.U. after    9 cycles
 Optimization completed.
    -- Stationary point found.
 Normal termination of Gaussian 09 at Wed Jul 28 22:26:05 2021.

 --------------------------------------------------------------------
 #N Geom=AllCheck Guess=TCheck SCRF=Check GenChk RB3LYP/6-31G(d) Freq
 --------------------------------------------------------------------

 Structure from the checkpoint file:  "conf-609.chk"
 ------------------------------------------------------------
 Candidate Structure: Conf:609 OPT and FREQ calc in gas phase
 ------------------------------------------------------------
 Charge =  0 Multiplicity = 1

                          Input orientation:
 ---------------------------------------------------------------------
 Center     Atomic      Atomic             Coordinates (Angstroms)
 Number     Number       Type             X           Y           Z
 ---------------------------------------------------------------------
      1          8           0        1.412746    1.152835   -0.527024
      2          6           0        1.623852    0.292833    0.321787
      3          7           0        0.613050   -0.508934    0.792801
      4          6           0       -0.689267   -0.496784    0.135375
      5          6           0       -0.489808   -0.859291   -1.347830
      6          8           0       -1.384490   -0.267944   -2.184552
      7          8           0        0.341312   -1.637271   -1.749301
      8          6           0       -1.482155    0.812606    0.414422
      9          6           0       -2.971139    0.658012    0.440402
     10          6           0       -3.872762    0.687663    1.481582
     11          7           0       -5.162663    0.508211    1.035183
     12          6           0       -5.052131    0.368226   -0.268892
     13          7           0       -3.753866    0.453688   -0.681774
     14          6           0        3.007721    0.048601    0.901136
     15          6           0        4.020864   -0.297468   -0.218210
     16          7           0        5.405285   -0.471346    0.211791
     17          1           0        0.868792   -1.345202    1.298454
     18          1           0       -1.258192   -1.328512    0.567790
     19          1           0       -1.151652   -0.581493   -3.079667
     20          1           0       -1.172575    1.150646    1.407713
     21          1           0       -1.159805    1.582677   -0.291735
     22          1           0       -3.658324    0.841428    2.531740
     23          1           0       -5.869528    0.205439   -0.959181
     24          1           0       -3.387412    0.347305   -1.617314
     25          1           0        3.325459    0.974261    1.397677
     26          1           0        2.996070   -0.743121    1.662032
     27          1           0        3.701049   -1.217246   -0.722427
     28          1           0        3.984762    0.497963   -0.968647
     29          1           0        5.470214   -1.207661    0.913352
     30          1           0        5.744662    0.379886    0.657763
 ---------------------------------------------------------------------

 SCF Done:  E(RB3LYP) =  -796.075431129     A.U. after    1 cycles

 Alpha  occ. eigenvalues --  -19.22174 -19.15641 -19.12475 -14.38087 -14.37554
 Alpha  occ. eigenvalues --  -14.31887 -14.30299 -10.34018 -10.29713 -10.26179
 Alpha  occ. eigenvalues --  -10.23128 -10.21466 -10.21348 -10.20617 -10.20196
 Alpha  occ. eigenvalues --  -10.18872  -1.12669  -1.04596  -1.03358  -1.00402
 Alpha  occ. eigenvalues --   -0.93785  -0.88603  -0.86132  -0.80549  -0.76192
 Alpha  occ. eigenvalues --   -0.73301  -0.67660  -0.65018  -0.61936  -0.60711
 Alpha  occ. eigenvalues --   -0.58788  -0.58025  -0.54349  -0.52089  -0.51156
 Alpha  occ. eigenvalues --   -0.50452  -0.50090  -0.47841  -0.46106  -0.44920
 Alpha  occ. eigenvalues --   -0.44388  -0.42985  -0.42582  -0.41922  -0.41277
 Alpha  occ. eigenvalues --   -0.40314  -0.39874  -0.39092  -0.38715  -0.38180
 Alpha  occ. eigenvalues --   -0.37002  -0.34880  -0.33571  -0.29414  -0.27714
 Alpha  occ. eigenvalues --   -0.27074  -0.26570  -0.25756  -0.23669  -0.21664
 Alpha virt. eigenvalues --   -0.01183   0.01196   0.03343   0.05302   0.05711
 Alpha virt. eigenvalues --    0.07570   0.07764   0.11245   0.12143   0.12395
 Alpha virt. eigenvalues --    0.12574   0.14768   0.14976   0.15330   0.15956

 Mulliken charges:
               1
     1  O   -0.525101
     2  C    0.625970
     3  N   -0.592784
     4  C   -0.050763
     5  C    0.618088
     6  O   -0.587169
     7  O   -0.459958
     8  C   -0.350156
     9  C    0.300934
    10  C   -0.082213
    11  N   -0.425937
    12  C    0.203336
    13  N   -0.602643
    14  C   -0.369708
    15  C   -0.145787
    16  N   -0.701062
    17  H    0.333624
    18  H    0.184792
    19  H    0.419291
    20  H    0.170760
    21  H    0.196728
    22  H    0.125890
    23  H    0.149960
    24  H    0.346658
    25  H    0.166340
    26  H    0.125707
    27  H    0.160287
    28  H    0.177050
    29  H    0.292355
    30  H    0.295512
 Sum of Mulliken charges =   0.00000

 Dipole moment (field-independent basis, Debye):
    X=              1.6234    Y=             -1.7503    Z=              0.1887  Tot=              2.3947
 Quadrupole moment (field-independent basis, Debye-Ang):
   XX=           -115.3947   YY=            -95.6956   ZZ=            -83.1020
   XY=              4.6212   XZ=             28.0356   YZ=             -2.9034

  Exact polarizability: 169.676  -3.822  87.160   3.491   2.469 115.336
 Approx polarizability: 210.057  -2.771 143.396  -0.849  -5.826 186.119

                      1                      2                      3
                      A                      A                      A
 Frequencies --     17.9052                26.5041                39.5000
 Red. masses --      5.0372                 5.0895                 5.1548
 Frc consts  --      0.0010                 0.0021                 0.0047
 IR Inten    --      0.5703                10.2815                 4.7157

                      4                      5                      6
                      A                      A                      A
 Frequencies --     56.6266                74.2604                91.6043
 Red. masses --      4.4806                 2.8651                 8.2250
 Frc consts  --      0.0085                 0.0093                 0.0407
 IR Inten    --      2.4937                 2.8092                 2.8404

                      7                      8                      9
                      A                      A                      A
 Frequencies --     96.0936               125.1238               146.4177
 Red. masses --      2.6677                 5.9915                 6.2089
 Frc consts  --      0.0145                 0.0553                 0.0784
 IR Inten    --      2.4810                 1.7161                 5.5895

                     10                     11                     12
                      A                      A                      A
 Frequencies --    190.3797               223.4213               280.6464
 Red. masses --      4.4168                 5.3562                 4.1953
 Frc consts  --      0.0943                 0.1575                 0.1947
 IR Inten    --     10.2853                 3.4991                 7.4586

                     13                     14                     15
                      A                      A                      A
 Frequencies --    307.0564               316.5249               336.4948
 Red. masses --      3.1128                 1.1207                 4.1652
 Frc consts  --      0.1729                 0.0662                 0.2779
 IR Inten    --      7.7201                49.8704                 2.2391

                     16                     17                     18
                      A                      A                      A
 Frequencies --    367.2870               388.6795               430.7486
 Red. masses --      3.4317                 3.5238                 1.8992
 Frc consts  --      0.2727                 0.3137                 0.2076
 IR Inten    --      2.5911                12.5825                22.1416

                     19                     20                     21
                      A                      A                      A
 Frequencies --    443.1788               518.8392               549.0823
 Red. masses --      2.2375                 3.6437                 3.1430
 Frc consts  --      0.2589                 0.5779                 0.5583
 IR Inten    --     55.2060                33.0858                31.2834

                     22                     23                     24
                      A                      A                      A
 Frequencies --    582.9305               616.7816               672.2782
 Red. masses --      1.5836                 2.0489                 2.6947
 Frc consts  --      0.3171                 0.4592                 0.7176
 IR Inten    --     42.5795                74.2318                48.5888

                     25                     26                     27
                      A                      A                      A
 Frequencies --    683.7421               692.8179               728.8634
 Red. masses --      2.8621                 2.0378                 3.2961
 Frc consts  --      0.7884                 0.5763                 1.0317
 IR Inten    --     36.4402                 5.4155                42.1241

                     28                     29                     30
                      A                      A                      A
 Frequencies --    737.1984               772.2027               779.8294
 Red. masses --      4.9573                 1.6579                 1.9477
 Frc consts  --      1.5873                 0.5825                 0.6979
 IR Inten    --      3.0613                 3.4675                 2.0287

                     31                     32                     33
                      A                      A                      A
 Frequencies --    796.7022               840.1649               850.0582
 Red. masses --      1.3785                 1.6989                 2.1301
 Frc consts  --      0.5155                 0.7066                 0.9069
 IR Inten    --     15.5085                31.9427                20.2864

                     34                     35                     36
                      A                      A                      A
 Frequencies --    873.4234               919.1618               935.3141
 Red. masses --      1.6923                 2.6384                 5.9474
 Frc consts  --      0.7606                 1.3133                 3.0654
 IR Inten    --    214.4048                 1.7567                14.3192

                     37                     38                     39
                      A                      A                      A
 Frequencies --    976.1077               993.3020              1024.1166
 Red. masses --      1.9000                 1.8814                 4.5747
 Frc consts  --      1.0666                 1.0937                 2.8269
 IR Inten    --      8.3485                 8.9887                99.7520

                     40                     41                     42
                      A                      A                      A
 Frequencies --   1031.5368              1052.1497              1095.0164
 Red. masses --      3.7636                 4.6665                 1.9274
 Frc consts  --      2.3595                 3.0436                 1.3616
 IR Inten    --     19.9207                 4.7860                 8.6651

                     43                     44                     45
                      A                      A                      A
 Frequencies --   1117.3930              1126.0555              1147.8978
 Red. masses --      3.1521                 1.5641                 1.6311
 Frc consts  --      2.3188                 1.1685                 1.2663
 IR Inten    --     13.3050                48.0849                43.2314

                     46                     47                     48
                      A                      A                      A
 Frequencies --   1156.2764              1174.6467              1209.2597
 Red. masses --      2.0591                 2.1945                 1.5218
 Frc consts  --      1.6220                 1.7840                 1.3111
 IR Inten    --     21.5409               177.0970                52.5874

                     49                     50                     51
                      A                      A                      A
 Frequencies --   1260.5722              1274.1870              1286.0249
 Red. masses --      1.7971                 2.3023                 1.3944
 Frc consts  --      1.6825                 2.2023                 1.3588
 IR Inten    --     75.9784                25.2460                 3.2337

                     52                     53                     54
                      A                      A                      A
 Frequencies --   1307.4624              1314.9765              1342.5460
 Red. masses --      1.3068                 1.2752                 1.4043
 Frc consts  --      1.3162                 1.2991                 1.4913
 IR Inten    --      1.7032                 2.1047                14.5503

                     55                     56                     57
                      A                      A                      A
 Frequencies --   1349.7815              1365.5380              1393.9480
 Red. masses --      1.4331                 1.8955                 1.8653
 Frc consts  --      1.5383                 2.0825                 2.1354
 IR Inten    --     32.1872                 8.6668                 5.0348

                     58                     59                     60
                      A                      A                      A
 Frequencies --   1401.0546              1406.2118              1408.7492
 Red. masses --      1.2509                 2.6864                 1.2298
 Frc consts  --      1.4467                 3.1299                 1.4379
 IR Inten    --     13.1753                16.7768                12.8380

                     61                     62                     63
                      A                      A                      A
 Frequencies --   1445.4597              1505.2435              1510.2639
 Red. masses --      2.9427                 1.1031                 1.2081
 Frc consts  --      3.6225                 1.4726                 1.6236
 IR Inten    --     28.3431                 1.7794                13.9338

                     64                     65                     66
                      A                      A                      A
 Frequencies --   1519.4211              1527.1261              1538.3449
 Red. masses --      2.8852                 1.0908                 1.8775
 Frc consts  --      3.9244                 1.4989                 2.6178
 IR Inten    --     27.2392                 4.5858               204.0410

                     67                     68                     69
                      A                      A                      A
 Frequencies --   1621.2835              1701.1769              1771.2598
 Red. masses --      4.3361                 1.0901                 9.2436
 Frc consts  --      6.7153                 1.8588                17.0866
 IR Inten    --      8.4102                23.9406               159.5054

                     70                     71                     72
                      A                      A                      A
 Frequencies --   1853.3582              3039.6712              3065.2046
 Red. masses --     10.1880                 1.0597                 1.0686
 Frc consts  --     20.6185                 5.7690                 5.9151
 IR Inten    --    255.3679                18.3611                22.1421

                     73                     74                     75
                      A                      A                      A
 Frequencies --   3070.0113              3083.7490              3088.7111
 Red. masses --      1.0829                 1.0978                 1.0620
 Frc consts  --      6.0134                 6.1506                 5.9696
 IR Inten    --      4.6447                14.5065                11.7903

                     76                     77                     78
                      A                      A                      A
 Frequencies --   3123.7397              3132.8057              3250.5698
 Red. masses --      1.1039                 1.1034                 1.0957
 Frc consts  --      6.3464                 6.3805                 6.8213
 IR Inten    --     21.8667                 4.0463                10.7702

                     79                     80                     81
                      A                      A                      A
 Frequencies --   3263.4119              3461.3113              3546.8025
 Red. masses --      1.0968                 1.0490                 1.0928
 Frc consts  --      6.8819                 7.4047                 8.1000
 IR Inten    --      3.7492                 1.1709                 0.4358

                     82                     83                     84
                      A                      A                      A
 Frequencies --   3624.5842              3646.4235              3675.3480
 Red. masses --      1.0782                 1.0808                 1.0640
 Frc consts  --      8.3455                 8.4672                 8.4679
 IR Inten    --     22.1423               105.6599                59.1266

 - Thermochemistry -
 -------------------
 Temperature   298.150 Kelvin.  Pressure   1.00000 Atm.
 Atom     1 has atomic number  8 and mass  15.99491

 Molecular mass:   226.10659 amu.
 Principal axes and moments of inertia in atomic units:
                           1         2         3
     Eigenvalues --  1298.840088012.385528750.48596
           X            0.99592   0.05008   0.07504
           Y           -0.08867   0.39039   0.91637
           Z           -0.01660   0.91929  -0.39324
 This molecule is an asymmetric top.
 Rotational symmetry number  1.
 Warning -- assumption of classical behavior for rotation
           may cause significant error
 Rotational temperatures (Kelvin)      0.06669     0.01081     0.00990
 Rotational constants (GHZ):           1.38950     0.22524     0.20624
 Zero-point vibrational energy     644715.0 (Joules/Mol)
                                  154.09059 (Kcal/Mol)
 Warning -- explicit consideration of  23 degrees of freedom as
           vibrations may cause significant error
 Vibrational temperatures:     25.76    38.13    56.83    81.47   106.84
          (Kelvin)            131.80   138.26   180.03   210.66   273.91
                              321.45   403.79   441.79   455.41   484.14
                              528.44   559.22   619.75   637.63   746.49
                              790.01   838.71   887.41   967.26   983.75
                              996.81  1048.67  1060.66  1111.03  1122.00
                             1146.28  1208.81  1223.04  1256.66  1322.47
                             1345.71  1404.40  1429.14  1473.47  1484.15
                             1513.81  1575.48  1607.68  1620.14  1651.57
                             1663.62  1690.05  1739.85  1813.68  1833.27
                             1850.30  1881.14  1891.96  1931.62  1942.03
                             1964.70  2005.58  2015.80  2023.22  2026.87
                             2079.69  2165.71  2172.93  2186.11  2197.19
                             2213.33  2332.66  2447.61  2548.44  2666.57
                             4373.40  4410.14  4417.06  4436.82  4443.96
                             4494.36  4507.40  4676.84  4695.32  4980.05
                             5103.05  5214.96  5246.38  5288.00

 Zero-point correction=                           0.245559 (Hartree/Particle)
 Thermal correction to Energy=                    0.261715
 Thermal correction to Enthalpy=                  0.262659
 Thermal correction to Gibbs Free Energy=         0.198846
 Sum of electronic and zero-point Energies=           -795.829872
 Sum of electronic and thermal Energies=              -795.813716
 Sum of electronic and thermal Enthalpies=            -795.812772
 Sum of electronic and thermal Free Energies=         -795.876585

                     E (Thermal)             CV                S
                      KCal/Mol        Cal/Mol-Kelvin    Cal/Mol-Kelvin
 Total                  164.229             58.532            134.306
 Electronic               0.000              0.000              0.000
 Translational            0.889              2.981             42.150
 Rotational               0.889              2.981             32.876
 Vibrational            162.451             52.570             59.279
 Vibration     1          0.593              1.986              6.854
 Vibration     2          0.593              1.984              6.075
 Vibration     3          0.594              1.981              5.284
 Vibration     4          0.596              1.975              4.571
 Vibration     5          0.599              1.966              4.037
 Vibration     6          0.602              1.955              3.626
 Vibration     7          0.603              1.952              3.532
 Vibration     8          0.610              1.928              3.020
 Vibration     9          0.617              1.907              2.718
 Vibration    10          0.634              1.853              2.224
 Vibration    11          0.649              1.805              1.931
 Vibration    12          0.680              1.709              1.530
 Vibration    13          0.697              1.660              1.378
 Vibration    14          0.703              1.642              1.328
 Vibration    15          0.717              1.603              1.229
 Vibration    16          0.740              1.540              1.091
 Vibration    17          0.757              1.494              1.005
 Vibration    18          0.792              1.403              0.856
 Vibration    19          0.803              1.376              0.817
 Vibration    20          0.874              1.208              0.613
 Vibration    21          0.904              1.142              0.546
 Vibration    22          0.940              1.068              0.480
 Vibration    23          0.976              0.996              0.422

 Optimization completed.
    -- Stationary point found.
 Normal termination of Gaussian 09 at Wed Jul 28 22:41:01 2021.
