 Gaussian 09, Revision D.01,
 Gaussian 09:  ES64L-G09RevD.01 24-Apr-2013

 ----------------------------------------------------------------------
 # B3LYP/6-31G(d) opt=calcfc freq=noraman nosymm integral(ultrafinegrid
 )
 ----------------------------------------------------------------------

 ------------------------------------------------------------
 Candidate Structure: Conf:150 OPT and FREQ calc in gas phase
 ------------------------------------------------------------
 Symbolic Z-matrix:
 Charge =  0 Multiplicity = 1

 SCF Done:  E(RB3LYP) =  -796.079488163     A.U. after   14 cycles
 SCF Done:  E(RB3LYP) =  -796.081146973     A.U. after   15 cycles
 SCF Done:  E(RB3LYP) =  -796.063829906     A.U. after   15 cycles
 SCF Done:  E(RB3LYP) =  -796.081344955     A.U. after   11 cycles
 SCF Done:  E(RB3LYP) =  -796.081909720     A.U. after   12 cycles
 SCF Done:  E(RB3LYP) =  -796.081549632     A.U. after   14 cycles
 SCF Done:  E(RB3LYP) =  -796.077301469     A.U. after   12 cycles
 SCF Done:  E(RB3LYP) =  -796.081912802     A.U. after    8 cycles
 SCF Done:  E(RB3LYP) =  -796.082021228     A.U. after   11 cycles
 SCF Done:  E(RB3LYP) =  -796.082098489     A.U. after   12 cycles
 SCF Done:  E(RB3LYP) =  -796.082108278     A.U. after   10 cycles
 SCF Done:  E(RB3LYP) =  -796.082109786     A.U. after    9 cycles
 SCF Done:  E(RB3LYP) =  -796.082109894     A.U. after    8 cycles
 Optimization completed.
    -- Stationary point found.
 Normal termination of Gaussian 09 at Wed Jul 28 22:31:14 2021.

 --------------------------------------------------------------------
 #N Geom=AllCheck Guess=TCheck SCRF=Check GenChk RB3LYP/6-31G(d) Freq
 --------------------------------------------------------------------

 Structure from the checkpoint file:  "conf-150.chk"
 ------------------------------------------------------------
 Candidate Structure: Conf:150 OPT and FREQ calc in gas phase
 ------------------------------------------------------------
 Charge =  0 Multiplicity = 1

                          Input orientation:
 ---------------------------------------------------------------------
 Center     Atomic      Atomic             Coordinates (Angstroms)
 Number     Number       Type             X           Y           Z
 ---------------------------------------------------------------------
      1          8           0       -1.135725   -1.881988   -0.799207
      2          6           0       -1.293039   -0.740456   -0.378580
      3          7           0       -0.371807   -0.139941    0.442544
      4          6           0        0.722081   -0.908525    1.015662
      5          6           0        1.099593   -0.254162    2.336165
      6          8           0        2.085912   -0.922603    2.962961
      7          8           0        0.582697    0.747479    2.783898
      8          6           0        1.944407   -1.034381    0.063117
      9          6           0        2.643489    0.253452   -0.229395
     10          6           0        3.881256    0.735778    0.132262
     11          7           0        4.096431    1.998289   -0.373909
     12          6           0        2.999363    2.289942   -1.037918
     13          7           0        2.089408    1.271626   -0.987528
     14          6           0       -2.481960    0.128290   -0.775140
     15          6           0       -3.745577   -0.702642   -1.012116
     16          7           0       -4.805170    0.146964   -1.564791
     17          1           0       -0.618472    0.700515    0.953775
     18          1           0        0.368539   -1.927374    1.220510
     19          1           0        2.284752   -0.425983    3.779375
     20          1           0        1.571420   -1.511303   -0.850658
     21          1           0        2.661314   -1.724784    0.516919
     22          1           0        4.633248    0.231822    0.725735
     23          1           0        2.807380    3.211277   -1.571939
     24          1           0        1.162003    1.261743   -1.386757
     25          1           0       -2.237694    0.650107   -1.710095
     26          1           0       -2.662043    0.906890   -0.021211
     27          1           0       -3.507213   -1.481654   -1.741534
     28          1           0       -4.019344   -1.222003   -0.076697
     29          1           0       -5.158580    0.774773   -0.843252
     30          1           0       -5.596358   -0.431539   -1.841660
 ---------------------------------------------------------------------

 SCF Done:  E(RB3LYP) =  -796.082109894     A.U. after    1 cycles

 Alpha  occ. eigenvalues --  -19.21937 -19.16441 -19.12435 -14.38753 -14.37117
 Alpha  occ. eigenvalues --  -14.31898 -14.30623 -10.34359 -10.29769 -10.25608
 Alpha  occ. eigenvalues --  -10.23512 -10.21693 -10.21443 -10.21084 -10.20179
 Alpha  occ. eigenvalues --  -10.19194  -1.12970  -1.04500  -1.03867  -1.00813
 Alpha  occ. eigenvalues --   -0.93639  -0.88580  -0.86517  -0.80876  -0.76398
 Alpha  occ. eigenvalues --   -0.73794  -0.68229  -0.64820  -0.61238  -0.60646
 Alpha  occ. eigenvalues --   -0.59464  -0.58426  -0.53358  -0.53079  -0.50873
 Alpha  occ. eigenvalues --   -0.49928  -0.49325  -0.48205  -0.46782  -0.45581
 Alpha  occ. eigenvalues --   -0.44956  -0.43681  -0.43115  -0.42010  -0.41639
 Alpha  occ. eigenvalues --   -0.40229  -0.40097  -0.39518  -0.38622  -0.38256
 Alpha  occ. eigenvalues --   -0.35879  -0.35046  -0.34080  -0.30172  -0.27614
 Alpha  occ. eigenvalues --   -0.27266  -0.26177  -0.25994  -0.24155  -0.21988
 Alpha virt. eigenvalues --   -0.01208   0.01237   0.02876   0.05669   0.06370
 Alpha virt. eigenvalues --    0.07251   0.07517   0.09371   0.12149   0.13440
 Alpha virt. eigenvalues --    0.13668   0.14310   0.14884   0.15488   0.15586

 Mulliken charges:
               1
     1  O   -0.518989
     2  C    0.603915
     3  N   -0.629733
     4  C   -0.029470
     5  C    0.594968
     6  O   -0.563092
     7  O   -0.470163
     8  C   -0.360299
     9  C    0.314060
    10  C   -0.079114
    11  N   -0.424221
    12  C    0.207614
    13  N   -0.598780
    14  C   -0.354788
    15  C   -0.137913
    16  N   -0.719688
    17  H    0.350157
    18  H    0.197775
    19  H    0.421383
    20  H    0.189253
    21  H    0.177945
    22  H    0.130478
    23  H    0.153721
    24  H    0.332954
    25  H    0.181720
    26  H    0.137002
    27  H    0.174537
    28  H    0.123815
    29  H    0.292832
    30  H    0.302118
 Sum of Mulliken charges =   0.00000

 Dipole moment (field-independent basis, Debye):
    X=             -3.2700    Y=             -0.3563    Z=              1.7190  Tot=              3.7114
 Quadrupole moment (field-independent basis, Debye-Ang):
   XX=            -97.1049   YY=            -99.6340   ZZ=            -88.8521
   XY=            -10.2812   XZ=              2.3229   YZ=             -6.3983

  Exact polarizability: 143.906   6.761 118.277  21.042  -6.304 103.733
 Approx polarizability: 188.460   2.188 198.387  28.198  -0.959 150.400

                      1                      2                      3
                      A                      A                      A
 Frequencies --     23.2302                34.4092                48.0040
 Red. masses --      3.7377                 3.9076                 5.4440
 Frc consts  --      0.0012                 0.0027                 0.0074
 IR Inten    --      0.7385                 2.1472                 9.7784

                      4                      5                      6
                      A                      A                      A
 Frequencies --     51.9861                62.8516                70.5935
 Red. masses --      3.6255                 5.2460                 7.0164
 Frc consts  --      0.0058                 0.0122                 0.0206
 IR Inten    --      2.0213                 0.7739                 2.3085

                      7                      8                      9
                      A                      A                      A
 Frequencies --     76.3586               122.9234               130.8148
 Red. masses --      3.8666                 4.7336                 4.1317
 Frc consts  --      0.0133                 0.0421                 0.0417
 IR Inten    --      1.3587                 3.8653                 5.0074

                     10                     11                     12
                      A                      A                      A
 Frequencies --    188.6321               221.1712               252.8464
 Red. masses --      5.2066                 3.7429                 3.3782
 Frc consts  --      0.1092                 0.1079                 0.1272
 IR Inten    --      1.5011                16.8868                 7.8138

                     13                     14                     15
                      A                      A                      A
 Frequencies --    271.8096               309.2170               329.9874
 Red. masses --      1.4542                 4.8724                 5.8642
 Frc consts  --      0.0633                 0.2745                 0.3762
 IR Inten    --     56.0810                 1.6018                 2.8257

                     16                     17                     18
                      A                      A                      A
 Frequencies --    367.2024               397.9296               473.6801
 Red. masses --      2.3791                 3.6235                 3.1640
 Frc consts  --      0.1890                 0.3381                 0.4183
 IR Inten    --      3.2471                 7.1128                19.3855

                     19                     20                     21
                      A                      A                      A
 Frequencies --    499.1201               542.0744               582.3222
 Red. masses --      1.3997                 3.3969                 1.8124
 Frc consts  --      0.2054                 0.5881                 0.3621
 IR Inten    --    122.4088                19.1787                19.4716

                     22                     23                     24
                      A                      A                      A
 Frequencies --    595.2264               623.1273               646.9217
 Red. masses --      3.6538                 2.0593                 1.9567
 Frc consts  --      0.7627                 0.4711                 0.4825
 IR Inten    --     32.2857                82.0340                 7.5419

                     25                     26                     27
                      A                      A                      A
 Frequencies --    661.0552               685.0086               706.6342
 Red. masses --      2.0545                 2.6267                 2.8984
 Frc consts  --      0.5290                 0.7262                 0.8527
 IR Inten    --     21.3728                 1.3641                62.8363

                     28                     29                     30
                      A                      A                      A
 Frequencies --    737.5220               780.1579               798.1541
 Red. masses --      4.2849                 2.6673                 1.3922
 Frc consts  --      1.3732                 0.9565                 0.5225
 IR Inten    --     17.1961                25.8653                14.2429

                     31                     32                     33
                      A                      A                      A
 Frequencies --    810.6044               844.9902               872.7469
 Red. masses --      1.4528                 1.4186                 2.5656
 Frc consts  --      0.5624                 0.5968                 1.1514
 IR Inten    --      9.4374                15.5790                39.9831

                     34                     35                     36
                      A                      A                      A
 Frequencies --    886.9917               924.5333               935.5741
 Red. masses --      1.4195                 3.8281                 4.6432
 Frc consts  --      0.6580                 1.9279                 2.3946
 IR Inten    --     93.3235                11.4152                14.6140

                     37                     38                     39
                      A                      A                      A
 Frequencies --    974.5580               993.8480              1025.6496
 Red. masses --      3.1100                 2.1268                 3.0360
 Frc consts  --      1.7403                 1.2377                 1.8817
 IR Inten    --      8.2988                 4.9148                23.8464

                     40                     41                     42
                      A                      A                      A
 Frequencies --   1032.6917              1072.5025              1105.6228
 Red. masses --      2.8827                 2.7726                 1.9179
 Frc consts  --      1.8113                 1.8790                 1.3813
 IR Inten    --      1.3881                24.2708                22.9386

                     43                     44                     45
                      A                      A                      A
 Frequencies --   1119.5690              1125.2990              1154.5385
 Red. masses --      1.5827                 2.4268                 2.0591
 Frc consts  --      1.1688                 1.8106                 1.6171
 IR Inten    --     17.5796                43.4511                10.9306

                     46                     47                     48
                      A                      A                      A
 Frequencies --   1171.2095              1195.9390              1222.4753
 Red. masses --      1.4894                 2.2404                 1.3817
 Frc consts  --      1.2037                 1.8880                 1.2166
 IR Inten    --     33.4571               192.6923                 0.9322

                     49                     50                     51
                      A                      A                      A
 Frequencies --   1244.2154              1265.1529              1274.8743
 Red. masses --      1.7687                 1.8612                 1.6706
 Frc consts  --      1.6132                 1.7552                 1.5998
 IR Inten    --     40.2561                11.0982                 0.4552

                     52                     53                     54
                      A                      A                      A
 Frequencies --   1280.8970              1301.8027              1330.0878
 Red. masses --      1.5242                 1.3299                 1.4003
 Frc consts  --      1.4734                 1.3278                 1.4596
 IR Inten    --     26.0715                 9.0836                 4.2207

                     55                     56                     57
                      A                      A                      A
 Frequencies --   1351.9924              1379.0232              1390.9382
 Red. masses --      1.1190                 1.4961                 2.0687
 Frc consts  --      1.2051                 1.6763                 2.3581
 IR Inten    --      5.5070                 5.5872                 6.7950

                     58                     59                     60
                      A                      A                      A
 Frequencies --   1404.5490              1427.7294              1443.2555
 Red. masses --      1.9277                 2.5096                 2.8171
 Frc consts  --      2.2406                 3.0140                 3.4573
 IR Inten    --     24.0315               158.8938                16.6746

                     61                     62                     63
                      A                      A                      A
 Frequencies --   1446.7507              1498.7031              1509.1949
 Red. masses --      1.5986                 1.0954                 1.1882
 Frc consts  --      1.9714                 1.4496                 1.5945
 IR Inten    --     50.7003                 9.1867                10.3700

                     64                     65                     66
                      A                      A                      A
 Frequencies --   1518.3995              1535.5425              1543.4381
 Red. masses --      3.2139                 2.0354                 1.0854
 Frc consts  --      4.3656                 2.8277                 1.5235
 IR Inten    --     83.9305               237.2159                 0.3797

                     67                     68                     69
                      A                      A                      A
 Frequencies --   1624.9750              1700.7432              1770.4704
 Red. masses --      4.4872                 1.0894                 9.5444
 Frc consts  --      6.9811                 1.8566                17.6269
 IR Inten    --      8.7462                22.7805               206.1433

                     70                     71                     72
                      A                      A                      A
 Frequencies --   1837.2896              2968.2992              3037.6808
 Red. masses --      9.7903                 1.0745                 1.0608
 Frc consts  --     19.4716                 5.5779                 5.7674
 IR Inten    --    196.8360                71.5075                18.4901

                     73                     74                     75
                      A                      A                      A
 Frequencies --   3058.4006              3072.4884              3076.4734
 Red. masses --      1.0809                 1.0659                 1.0997
 Frc consts  --      5.9568                 5.9286                 6.1324
 IR Inten    --      9.8420                11.2288                13.4438

                     76                     77                     78
                      A                      A                      A
 Frequencies --   3119.5413              3125.3800              3255.5588
 Red. masses --      1.0901                 1.1004                 1.0957
 Frc consts  --      6.2500                 6.3328                 6.8421
 IR Inten    --     17.9614                 7.7293                 9.0987

                     79                     80                     81
                      A                      A                      A
 Frequencies --   3265.6942              3462.7960              3547.8882
 Red. masses --      1.0970                 1.0504                 1.0917
 Frc consts  --      6.8932                 7.4212                 8.0966
 IR Inten    --      2.3503                 2.1978                 0.3227

                     82                     83                     84
                      A                      A                      A
 Frequencies --   3576.3188              3651.0628              3685.9930
 Red. masses --      1.0772                 1.0809                 1.0642
 Frc consts  --      8.1171                 8.4890                 8.5185
 IR Inten    --     62.6671                44.7648                69.7932

 - Thermochemistry -
 -------------------
 Temperature   298.150 Kelvin.  Pressure   1.00000 Atm.
 Atom     1 has atomic number  8 and mass  15.99491

 Molecular mass:   226.10659 amu.
 Principal axes and moments of inertia in atomic units:
                           1         2         3
     Eigenvalues --  2270.059716459.538747531.31023
           X            0.95689  -0.10167  -0.27207
           Y            0.19156  -0.48321   0.85429
           Z            0.21832   0.86958   0.44291
 This molecule is an asymmetric top.
 Rotational symmetry number  1.
 Warning -- assumption of classical behavior for rotation
           may cause significant error
 Rotational temperatures (Kelvin)      0.03815     0.01341     0.01150
 Rotational constants (GHZ):           0.79502     0.27939     0.23963
 Zero-point vibrational energy     644451.7 (Joules/Mol)
                                  154.02766 (Kcal/Mol)
 Warning -- explicit consideration of  22 degrees of freedom as
           vibrations may cause significant error
 Vibrational temperatures:     33.42    49.51    69.07    74.80    90.43
          (Kelvin)            101.57   109.86   176.86   188.21   271.40
                              318.22   363.79   391.07   444.89   474.78
                              528.32   572.53   681.52   718.12   779.92
                              837.83   856.40   896.54   930.77   951.11
                              985.57  1016.69  1061.13  1122.47  1148.36
                             1166.28  1215.75  1255.69  1276.18  1330.20
                             1346.08  1402.17  1429.92  1475.68  1485.81
                             1543.09  1590.74  1610.81  1619.05  1661.12
                             1685.11  1720.69  1758.87  1790.15  1820.27
                             1834.26  1842.92  1873.00  1913.70  1945.21
                             1984.10  2001.25  2020.83  2054.18  2076.52
                             2081.55  2156.30  2171.39  2184.64  2209.30
                             2220.66  2337.97  2446.99  2547.31  2643.45
                             4270.72  4370.54  4400.35  4420.62  4426.35
                             4488.32  4496.72  4684.02  4698.60  4982.18
                             5104.61  5145.52  5253.06  5303.32

 Zero-point correction=                           0.245459 (Hartree/Particle)
 Thermal correction to Energy=                    0.261686
 Thermal correction to Enthalpy=                  0.262631
 Thermal correction to Gibbs Free Energy=         0.198568
 Sum of electronic and zero-point Energies=           -795.836651
 Sum of electronic and thermal Energies=              -795.820423
 Sum of electronic and thermal Enthalpies=            -795.819479
 Sum of electronic and thermal Free Energies=         -795.883542

                     E (Thermal)             CV                S
                      KCal/Mol        Cal/Mol-Kelvin    Cal/Mol-Kelvin
 Total                  164.211             58.290            134.831
 Electronic               0.000              0.000              0.000
 Translational            0.889              2.981             42.150
 Rotational               0.889              2.981             33.068
 Vibrational            162.433             52.329             59.613
 Vibration     1          0.593              1.985              6.337
 Vibration     2          0.594              1.983              5.557
 Vibration     3          0.595              1.978              4.898
 Vibration     4          0.596              1.977              4.740
 Vibration     5          0.597              1.972              4.366
 Vibration     6          0.598              1.968              4.137
 Vibration     7          0.599              1.965              3.982
 Vibration     8          0.610              1.930              3.054
 Vibration     9          0.612              1.923              2.934
 Vibration    10          0.633              1.855              2.241
 Vibration    11          0.648              1.809              1.949
 Vibration    12          0.664              1.758              1.711
 Vibration    13          0.675              1.725              1.585
 Vibration    14          0.699              1.656              1.367
 Vibration    15          0.713              1.616              1.260
 Vibration    16          0.740              1.540              1.091
 Vibration    17          0.764              1.475              0.970
 Vibration    18          0.830              1.308              0.727
 Vibration    19          0.855              1.252              0.660
 Vibration    20          0.897              1.157              0.561
 Vibration    21          0.939              1.070              0.481
 Vibration    22          0.953              1.042              0.458

 Optimization completed.
    -- Stationary point found.
 Normal termination of Gaussian 09 at Wed Jul 28 22:46:25 2021.
