 Gaussian 09, Revision D.01,
 Gaussian 09:  ES64L-G09RevD.01 24-Apr-2013

 ----------------------------------------------------------------------
 # B3LYP/6-31G(d) opt=calcfc freq=noraman nosymm integral(ultrafinegrid
 )
 ----------------------------------------------------------------------

 ------------------------------------------------------------
 Candidate Structure: Conf:340 OPT and FREQ calc in gas phase
 ------------------------------------------------------------
 Symbolic Z-matrix:
 Charge =  0 Multiplicity = 1

 SCF Done:  E(RB3LYP) =  -796.078696520     A.U. after   14 cycles
 SCF Done:  E(RB3LYP) =  -796.081463802     A.U. after   12 cycles
 SCF Done:  E(RB3LYP) =  -796.081770156     A.U. after   12 cycles
 SCF Done:  E(RB3LYP) =  -796.081761059     A.U. after   12 cycles
 SCF Done:  E(RB3LYP) =  -796.081798820     A.U. after   12 cycles
 SCF Done:  E(RB3LYP) =  -796.081823812     A.U. after   11 cycles
 SCF Done:  E(RB3LYP) =  -796.081825368     A.U. after    9 cycles
 SCF Done:  E(RB3LYP) =  -796.081825461     A.U. after    8 cycles
 Optimization completed.
    -- Stationary point found.
 Normal termination of Gaussian 09 at Wed Jul 28 22:23:48 2021.

 --------------------------------------------------------------------
 #N Geom=AllCheck Guess=TCheck SCRF=Check GenChk RB3LYP/6-31G(d) Freq
 --------------------------------------------------------------------

 Structure from the checkpoint file:  "conf-340.chk"
 ------------------------------------------------------------
 Candidate Structure: Conf:340 OPT and FREQ calc in gas phase
 ------------------------------------------------------------
 Charge =  0 Multiplicity = 1

                          Input orientation:
 ---------------------------------------------------------------------
 Center     Atomic      Atomic             Coordinates (Angstroms)
 Number     Number       Type             X           Y           Z
 ---------------------------------------------------------------------
      1          8           0        0.599696   -1.005081   -0.712134
      2          6           0        1.375482   -0.197025   -0.188560
      3          7           0        0.928244    0.973685    0.341258
      4          6           0       -0.455338    1.352015    0.169091
      5          6           0       -0.605100    2.848975    0.418019
      6          8           0       -1.853303    3.327569    0.244696
      7          8           0        0.306454    3.566487    0.756237
      8          6           0       -1.440739    0.527072    1.074528
      9          6           0       -2.627401    0.066693    0.296658
     10          6           0       -3.970883    0.378293    0.299282
     11          7           0       -4.636861   -0.311016   -0.691858
     12          6           0       -3.708798   -1.026527   -1.292201
     13          7           0       -2.476027   -0.836669   -0.738318
     14          6           0        2.872371   -0.446477   -0.108228
     15          6           0        3.199613   -1.916608    0.173079
     16          7           0        4.645507   -2.131735    0.073780
     17          1           0        1.559571    1.696355    0.668401
     18          1           0       -0.731208    1.159275   -0.875510
     19          1           0       -2.466683    2.612504   -0.019587
     20          1           0       -0.883564   -0.330208    1.463575
     21          1           0       -1.762852    1.116150    1.939453
     22          1           0       -4.499256    1.033319    0.981297
     23          1           0       -3.872051   -1.697243   -2.125383
     24          1           0       -1.576448   -1.226202   -1.011067
     25          1           0        3.318302   -0.175382   -1.073950
     26          1           0        3.330119    0.205890    0.646995
     27          1           0        2.704600   -2.526254   -0.588097
     28          1           0        2.760865   -2.206706    1.144789
     29          1           0        4.848502   -3.127955    0.132057
     30          1           0        5.117059   -1.703085    0.869558
 ---------------------------------------------------------------------

 SCF Done:  E(RB3LYP) =  -796.081825461     A.U. after    1 cycles

 Alpha  occ. eigenvalues --  -19.21107 -19.15670 -19.13756 -14.38951 -14.38092
 Alpha  occ. eigenvalues --  -14.32314 -14.31518 -10.33970 -10.30862 -10.26302
 Alpha  occ. eigenvalues --  -10.24381 -10.22875 -10.22402 -10.22054 -10.20667
 Alpha  occ. eigenvalues --  -10.20603  -1.11836  -1.05423  -1.03838  -1.01611
 Alpha  occ. eigenvalues --   -0.94596  -0.89061  -0.87344  -0.81485  -0.77235
 Alpha  occ. eigenvalues --   -0.74028  -0.68606  -0.64434  -0.62353  -0.61613
 Alpha  occ. eigenvalues --   -0.60400  -0.59357  -0.56165  -0.54881  -0.51035
 Alpha  occ. eigenvalues --   -0.50082  -0.49331  -0.47985  -0.47042  -0.45957
 Alpha  occ. eigenvalues --   -0.45548  -0.43834  -0.43406  -0.42522  -0.41939
 Alpha  occ. eigenvalues --   -0.41268  -0.40692  -0.40055  -0.39638  -0.39109
 Alpha  occ. eigenvalues --   -0.36260  -0.35743  -0.33345  -0.29723  -0.28315
 Alpha  occ. eigenvalues --   -0.28079  -0.27497  -0.26873  -0.24570  -0.23308
 Alpha virt. eigenvalues --   -0.01189   0.00540   0.01877   0.05350   0.06978
 Alpha virt. eigenvalues --    0.07591   0.07796   0.10473   0.10661   0.11171
 Alpha virt. eigenvalues --    0.13055   0.13250   0.14101   0.15032   0.15459

 Mulliken charges:
               1
     1  O   -0.555083
     2  C    0.629759
     3  N   -0.618956
     4  C   -0.056673
     5  C    0.601162
     6  O   -0.568601
     7  O   -0.453312
     8  C   -0.375878
     9  C    0.276498
    10  C   -0.098671
    11  N   -0.422353
    12  C    0.209945
    13  N   -0.595852
    14  C   -0.355898
    15  C   -0.139174
    16  N   -0.717698
    17  H    0.354382
    18  H    0.194521
    19  H    0.419656
    20  H    0.192376
    21  H    0.178966
    22  H    0.140450
    23  H    0.160841
    24  H    0.373962
    25  H    0.192568
    26  H    0.141065
    27  H    0.172465
    28  H    0.121946
    29  H    0.303037
    30  H    0.294548
 Sum of Mulliken charges =   0.00000

 Dipole moment (field-independent basis, Debye):
    X=              3.2613    Y=             -2.5478    Z=              1.3336  Tot=              4.3481
 Quadrupole moment (field-independent basis, Debye-Ang):
   XX=           -106.6240   YY=           -103.8002   ZZ=            -89.7728
   XY=             -4.1918   XZ=              5.1001   YZ=             -3.1958

  Exact polarizability: 159.169  -4.572 120.212  10.639  21.216  92.199
 Approx polarizability: 216.848   3.486 178.246  17.058  39.614 148.645

                      1                      2                      3
                      A                      A                      A
 Frequencies --     28.2522                37.2497                62.5900
 Red. masses --      3.5710                 5.6981                 2.5409
 Frc consts  --      0.0017                 0.0047                 0.0059
 IR Inten    --      0.9634                 2.7957                 4.4761

                      4                      5                      6
                      A                      A                      A
 Frequencies --     76.5866                85.9611                89.8049
 Red. masses --      4.6574                 6.5779                 4.5446
 Frc consts  --      0.0161                 0.0286                 0.0216
 IR Inten    --      3.0177                 1.7091                 2.0019

                      7                      8                      9
                      A                      A                      A
 Frequencies --    100.8301               116.7817               166.9894
 Red. masses --      6.2828                 5.7168                 4.3249
 Frc consts  --      0.0376                 0.0459                 0.0711
 IR Inten    --      7.1736                 6.1353                 6.4818

                     10                     11                     12
                      A                      A                      A
 Frequencies --    193.8925               207.9417               262.0913
 Red. masses --      5.4206                 4.0576                 1.5141
 Frc consts  --      0.1201                 0.1034                 0.0613
 IR Inten    --      9.9418                11.2309                39.5328

                     13                     14                     15
                      A                      A                      A
 Frequencies --    278.0915               318.7537               340.7538
 Red. masses --      2.8347                 5.1894                 2.4936
 Frc consts  --      0.1292                 0.3107                 0.1706
 IR Inten    --     17.1738                 3.0472                 6.3331

                     16                     17                     18
                      A                      A                      A
 Frequencies --    357.9370               396.0512               411.9418
 Red. masses --      5.9089                 3.9573                 3.9092
 Frc consts  --      0.4460                 0.3657                 0.3909
 IR Inten    --      9.2902                 7.7623                 8.7720

                     19                     20                     21
                      A                      A                      A
 Frequencies --    530.3594               553.9249               607.8763
 Red. masses --      1.5790                 2.3588                 2.2285
 Frc consts  --      0.2617                 0.4264                 0.4852
 IR Inten    --     60.5350                14.9601                40.7785

                     22                     23                     24
                      A                      A                      A
 Frequencies --    634.3439               644.0212               658.7387
 Red. masses --      1.8230                 3.6343                 2.6617
 Frc consts  --      0.4322                 0.8881                 0.6805
 IR Inten    --    101.6190                 5.6358                 2.6356

                     25                     26                     27
                      A                      A                      A
 Frequencies --    678.5636               711.8380               746.2402
 Red. masses --      3.9496                 3.2747                 1.2789
 Frc consts  --      1.0715                 0.9777                 0.4196
 IR Inten    --     12.3225                 4.6268                54.8495

                     28                     29                     30
                      A                      A                      A
 Frequencies --    755.2221               771.3092               809.7332
 Red. masses --      2.8434                 4.1054                 1.3746
 Frc consts  --      0.9555                 1.4390                 0.5310
 IR Inten    --     14.2313                 3.1030                 9.3217

                     31                     32                     33
                      A                      A                      A
 Frequencies --    820.9550               841.9962               863.7115
 Red. masses --      1.3900                 1.3026                 2.8438
 Frc consts  --      0.5520                 0.5441                 1.2500
 IR Inten    --     19.8657                22.5913                 7.0895

                     34                     35                     36
                      A                      A                      A
 Frequencies --    881.1629               936.6234               953.9812
 Red. masses --      1.3312                 6.0354                 2.8292
 Frc consts  --      0.6090                 3.1195                 1.5170
 IR Inten    --    134.4742                14.3284                11.2748

                     37                     38                     39
                      A                      A                      A
 Frequencies --    991.5054               993.3830              1023.0547
 Red. masses --      2.7820                 3.6569                 3.6188
 Frc consts  --      1.6114                 2.1262                 2.2316
 IR Inten    --      4.4084                 0.4574                15.2461

                     40                     41                     42
                      A                      A                      A
 Frequencies --   1036.0758              1075.0973              1109.4484
 Red. masses --      3.1399                 2.7941                 1.9912
 Frc consts  --      1.9859                 1.9028                 1.4440
 IR Inten    --      3.4358                23.8480                17.8494

                     43                     44                     45
                      A                      A                      A
 Frequencies --   1128.3280              1145.3267              1152.7531
 Red. masses --      1.7090                 1.8996                 1.9927
 Frc consts  --      1.2819                 1.4681                 1.5601
 IR Inten    --     43.6358                 7.3027                 5.3377

                     46                     47                     48
                      A                      A                      A
 Frequencies --   1178.4034              1204.8404              1216.9719
 Red. masses --      1.4626                 1.5878                 2.1194
 Frc consts  --      1.1966                 1.3580                 1.8494
 IR Inten    --      4.9348                17.9657                17.6141

                     49                     50                     51
                      A                      A                      A
 Frequencies --   1239.7432              1270.5968              1277.8632
 Red. masses --      1.5440                 2.2798                 1.3933
 Frc consts  --      1.3982                 2.1685                 1.3405
 IR Inten    --     29.0284                22.1778                 3.5142

                     52                     53                     54
                      A                      A                      A
 Frequencies --   1289.6508              1319.4188              1345.4494
 Red. masses --      1.3534                 1.3351                 1.3271
 Frc consts  --      1.3262                 1.3694                 1.4155
 IR Inten    --      5.3554                34.1525                 5.6165

                     55                     56                     57
                      A                      A                      A
 Frequencies --   1352.3893              1368.5450              1385.4565
 Red. masses --      1.1624                 1.8125                 1.5993
 Frc consts  --      1.2526                 2.0000                 1.8086
 IR Inten    --     43.4942               231.6887                 7.4656

                     58                     59                     60
                      A                      A                      A
 Frequencies --   1396.6551              1425.9777              1446.0965
 Red. masses --      2.5168                 1.7348                 1.5189
 Frc consts  --      2.8926                 2.0783                 1.8714
 IR Inten    --     18.7203                70.5504                43.0129

                     61                     62                     63
                      A                      A                      A
 Frequencies --   1451.0257              1498.4330              1512.1249
 Red. masses --      2.6674                 1.0976                 1.1286
 Frc consts  --      3.3089                 1.4520                 1.5204
 IR Inten    --     71.1927                 8.1442                12.2586

                     64                     65                     66
                      A                      A                      A
 Frequencies --   1522.0992              1538.2175              1544.3343
 Red. masses --      3.5314                 2.5063                 1.0852
 Frc consts  --      4.8204                 3.4939                 1.5250
 IR Inten    --     46.7579               272.7263                 0.7222

                     67                     68                     69
                      A                      A                      A
 Frequencies --   1622.9216              1700.7458              1732.5980
 Red. masses --      4.3558                 1.0934                 8.6308
 Frc consts  --      6.7595                 1.8634                15.2650
 IR Inten    --     12.1129                20.8144               182.7574

                     70                     71                     72
                      A                      A                      A
 Frequencies --   1867.4274              2961.7641              3045.4688
 Red. masses --      9.7444                 1.0744                 1.0607
 Frc consts  --     20.0212                 5.5531                 5.7962
 IR Inten    --    282.2102                76.2052                15.4226

                     73                     74                     75
                      A                      A                      A
 Frequencies --   3049.2914              3078.7458              3085.8898
 Red. masses --      1.0823                 1.0609                 1.0996
 Frc consts  --      5.9294                 5.9248                 6.1692
 IR Inten    --      9.6518                15.9368                 8.0700

                     76                     77                     78
                      A                      A                      A
 Frequencies --   3117.7245              3121.0922              3247.8564
 Red. masses --      1.0906                 1.1052                 1.0958
 Frc consts  --      6.2459                 6.3434                 6.8106
 IR Inten    --     20.0250                 8.4830                 6.0737

                     79                     80                     81
                      A                      A                      A
 Frequencies --   3269.0650              3465.0654              3546.6455
 Red. masses --      1.0969                 1.0504                 1.0834
 Frc consts  --      6.9068                 7.4306                 8.0292
 IR Inten    --      2.5637                 1.8579               192.8517

                     82                     83                     84
                      A                      A                      A
 Frequencies --   3550.2382              3587.0313              3610.0577
 Red. masses --      1.0919                 1.0779                 1.0672
 Frc consts  --      8.1084                 8.1716                 8.1947
 IR Inten    --      0.0898                66.5274               209.8753

 - Thermochemistry -
 -------------------
 Temperature   298.150 Kelvin.  Pressure   1.00000 Atm.
 Atom     1 has atomic number  8 and mass  15.99491

 Molecular mass:   226.10659 amu.
 Principal axes and moments of inertia in atomic units:
                           1         2         3
     Eigenvalues --  2481.050896111.359188219.91468
           X            0.96169   0.25540  -0.09957
           Y           -0.27210   0.93346  -0.23369
           Z            0.03326   0.25183   0.96720
 This molecule is an asymmetric top.
 Rotational symmetry number  1.
 Warning -- assumption of classical behavior for rotation
           may cause significant error
 Rotational temperatures (Kelvin)      0.03491     0.01417     0.01054
 Rotational constants (GHZ):           0.72741     0.29531     0.21956
 Zero-point vibrational energy     646174.8 (Joules/Mol)
                                  154.43949 (Kcal/Mol)
 Warning -- explicit consideration of  21 degrees of freedom as
           vibrations may cause significant error
 Vibrational temperatures:     40.65    53.59    90.05   110.19   123.68
          (Kelvin)            129.21   145.07   168.02   240.26   278.97
                              299.18   377.09   400.11   458.61   490.27
                              514.99   569.83   592.69   763.07   796.97
                              874.60   912.68   926.60   947.78   976.30
                             1024.17  1073.67  1086.59  1109.74  1165.02
                             1181.17  1211.44  1242.69  1267.80  1347.59
                             1372.56  1426.55  1429.25  1471.95  1490.68
                             1546.82  1596.25  1623.41  1647.87  1658.55
                             1695.46  1733.49  1750.95  1783.71  1828.10
                             1838.56  1855.52  1898.35  1935.80  1945.78
                             1969.03  1993.36  2009.47  2051.66  2080.61
                             2087.70  2155.91  2175.61  2189.96  2213.15
                             2221.95  2335.02  2446.99  2492.82  2686.81
                             4261.31  4381.74  4387.24  4429.62  4439.90
                             4485.70  4490.55  4672.94  4703.45  4985.45
                             5102.83  5107.99  5160.93  5194.06

 Zero-point correction=                           0.246115 (Hartree/Particle)
 Thermal correction to Energy=                    0.261961
 Thermal correction to Enthalpy=                  0.262905
 Thermal correction to Gibbs Free Energy=         0.200752
 Sum of electronic and zero-point Energies=           -795.835710
 Sum of electronic and thermal Energies=              -795.819865
 Sum of electronic and thermal Enthalpies=            -795.818920
 Sum of electronic and thermal Free Energies=         -795.881073

                     E (Thermal)             CV                S
                      KCal/Mol        Cal/Mol-Kelvin    Cal/Mol-Kelvin
 Total                  164.383             57.709            130.812
 Electronic               0.000              0.000              0.000
 Translational            0.889              2.981             42.150
 Rotational               0.889              2.981             33.188
 Vibrational            162.605             51.747             55.474
 Vibration     1          0.593              1.984              5.949
 Vibration     2          0.594              1.982              5.400
 Vibration     3          0.597              1.972              4.374
 Vibration     4          0.599              1.965              3.977
 Vibration     5          0.601              1.959              3.750
 Vibration     6          0.602              1.956              3.664
 Vibration     7          0.604              1.948              3.438
 Vibration     8          0.608              1.935              3.153
 Vibration     9          0.624              1.883              2.469
 Vibration    10          0.635              1.848              2.190
 Vibration    11          0.641              1.829              2.062
 Vibration    12          0.669              1.742              1.648
 Vibration    13          0.679              1.714              1.545
 Vibration    14          0.705              1.638              1.316
 Vibration    15          0.720              1.594              1.209
 Vibration    16          0.733              1.559              1.131
 Vibration    17          0.763              1.479              0.977
 Vibration    18          0.776              1.444              0.920
 Vibration    19          0.885              1.183              0.586
 Vibration    20          0.909              1.131              0.536
 Vibration    21          0.967              1.015              0.436

 Optimization completed.
    -- Stationary point found.
 Normal termination of Gaussian 09 at Wed Jul 28 22:39:08 2021.
