 Gaussian 09, Revision D.01,
 Gaussian 09:  ES64L-G09RevD.01 24-Apr-2013

 ----------------------------------------------------------------------
 # B3LYP/6-31G(d) opt=calcfc freq=noraman nosymm integral(ultrafinegrid
 )
 ----------------------------------------------------------------------

 ------------------------------------------------------------
 Candidate Structure: Conf:490 OPT and FREQ calc in gas phase
 ------------------------------------------------------------
 Symbolic Z-matrix:
 Charge =  0 Multiplicity = 1

 SCF Done:  E(RB3LYP) =  -796.076287591     A.U. after   14 cycles
 SCF Done:  E(RB3LYP) =  -796.078814637     A.U. after   15 cycles
 SCF Done:  E(RB3LYP) =  -796.073372390     A.U. after   15 cycles
 SCF Done:  E(RB3LYP) =  -796.079335090     A.U. after   11 cycles
 SCF Done:  E(RB3LYP) =  -796.080398460     A.U. after   13 cycles
 SCF Done:  E(RB3LYP) =  -796.080604133     A.U. after   11 cycles
 SCF Done:  E(RB3LYP) =  -796.080254120     A.U. after   14 cycles
 SCF Done:  E(RB3LYP) =  -796.080727864     A.U. after   14 cycles
 SCF Done:  E(RB3LYP) =  -796.080749705     A.U. after   11 cycles
 SCF Done:  E(RB3LYP) =  -796.080761276     A.U. after   11 cycles
 SCF Done:  E(RB3LYP) =  -796.080761938     A.U. after    8 cycles
 SCF Done:  E(RB3LYP) =  -796.080762013     A.U. after    7 cycles
 Optimization completed.
    -- Stationary point found.
 Normal termination of Gaussian 09 at Wed Jul 28 22:30:18 2021.

 --------------------------------------------------------------------
 #N Geom=AllCheck Guess=TCheck SCRF=Check GenChk RB3LYP/6-31G(d) Freq
 --------------------------------------------------------------------

 Structure from the checkpoint file:  "conf-490.chk"
 ------------------------------------------------------------
 Candidate Structure: Conf:490 OPT and FREQ calc in gas phase
 ------------------------------------------------------------
 Charge =  0 Multiplicity = 1

                          Input orientation:
 ---------------------------------------------------------------------
 Center     Atomic      Atomic             Coordinates (Angstroms)
 Number     Number       Type             X           Y           Z
 ---------------------------------------------------------------------
      1          8           0        0.875838    0.513462   -2.335488
      2          6           0        1.569100    0.149940   -1.385817
      3          7           0        1.078229    0.032686   -0.121456
      4          6           0       -0.277209    0.428067    0.179336
      5          6           0       -0.385964    0.700939    1.683647
      6          8           0       -1.529510    1.290087    2.091397
      7          8           0        0.475456    0.406122    2.478310
      8          6           0       -1.302749   -0.650798   -0.299450
      9          6           0       -2.739303   -0.264543   -0.114936
     10          6           0       -3.510522    0.752191   -0.644850
     11          7           0       -4.794475    0.720678   -0.142376
     12          6           0       -4.813369   -0.300242    0.684798
     13          7           0       -3.600235   -0.927641    0.742457
     14          6           0        3.041756   -0.227718   -1.569894
     15          6           0        3.994352    0.176791   -0.434890
     16          7           0        3.699683   -0.574349    0.795496
     17          1           0        1.716658   -0.221720    0.639658
     18          1           0       -0.504844    1.350906   -0.370572
     19          1           0       -2.138973    1.406505    1.334975
     20          1           0       -1.085539   -0.806799   -1.360359
     21          1           0       -1.087513   -1.591434    0.221516
     22          1           0       -3.215185    1.486708   -1.383315
     23          1           0       -5.663764   -0.630513    1.266256
     24          1           0       -3.359946   -1.719754    1.322138
     25          1           0        3.099938   -1.315378   -1.725162
     26          1           0        3.357343    0.236701   -2.508438
     27          1           0        5.032411    0.052897   -0.784009
     28          1           0        3.861646    1.241543   -0.210708
     29          1           0        4.193271   -0.175796    1.590980
     30          1           0        4.013231   -1.539657    0.705366
 ---------------------------------------------------------------------

 SCF Done:  E(RB3LYP) =  -796.080762013     A.U. after    1 cycles

 Alpha  occ. eigenvalues --  -19.19439 -19.13947 -19.10537 -14.40321 -14.34636
 Alpha  occ. eigenvalues --  -14.33833 -14.32060 -10.32293 -10.28051 -10.24836
 Alpha  occ. eigenvalues --  -10.24784 -10.23409 -10.22859 -10.21537 -10.20684
 Alpha  occ. eigenvalues --  -10.19698  -1.10226  -1.02577  -1.02383  -1.01944
 Alpha  occ. eigenvalues --   -0.92014  -0.89932  -0.87982  -0.80553  -0.76519
 Alpha  occ. eigenvalues --   -0.73424  -0.67696  -0.63771  -0.62485  -0.61467
 Alpha  occ. eigenvalues --   -0.59891  -0.57203  -0.55879  -0.53741  -0.51421
 Alpha  occ. eigenvalues --   -0.49342  -0.47300  -0.46955  -0.45867  -0.45643
 Alpha  occ. eigenvalues --   -0.44289  -0.43523  -0.42885  -0.42546  -0.41478
 Alpha  occ. eigenvalues --   -0.40825  -0.39759  -0.38968  -0.38569  -0.37610
 Alpha  occ. eigenvalues --   -0.36902  -0.34430  -0.31857  -0.29076  -0.27811
 Alpha  occ. eigenvalues --   -0.27404  -0.26172  -0.25388  -0.24224  -0.23155
 Alpha virt. eigenvalues --    0.00044   0.01909   0.02950   0.04908   0.06408
 Alpha virt. eigenvalues --    0.06629   0.09452   0.11560   0.11610   0.11937
 Alpha virt. eigenvalues --    0.12450   0.13825   0.14791   0.15632   0.16266

 Mulliken charges:
               1
     1  O   -0.534996
     2  C    0.584899
     3  N   -0.624666
     4  C   -0.061443
     5  C    0.594637
     6  O   -0.577366
     7  O   -0.452545
     8  C   -0.341197
     9  C    0.264427
    10  C   -0.101188
    11  N   -0.413192
    12  C    0.208121
    13  N   -0.587377
    14  C   -0.349433
    15  C   -0.156864
    16  N   -0.734531
    17  H    0.401271
    18  H    0.182690
    19  H    0.427361
    20  H    0.211899
    21  H    0.149662
    22  H    0.152648
    23  H    0.163568
    24  H    0.338705
    25  H    0.158534
    26  H    0.172991
    27  H    0.135791
    28  H    0.161025
    29  H    0.319468
    30  H    0.307100
 Sum of Mulliken charges =   0.00000

 Dipole moment (field-independent basis, Debye):
    X=              3.2120    Y=             -3.8243    Z=              1.1845  Tot=              5.1328
 Quadrupole moment (field-independent basis, Debye-Ang):
   XX=            -80.6383   YY=            -87.2343   ZZ=           -108.7396
   XY=              8.0407   XZ=             -5.9922   YZ=             -3.8663

  Exact polarizability: 164.830  -8.074  93.849  -7.454 -10.666 112.916
 Approx polarizability: 208.782 -20.561 155.741   1.142 -28.152 180.619

                      1                      2                      3
                      A                      A                      A
 Frequencies --     25.2658                37.3264                49.6699
 Red. masses --      4.5929                 5.0802                 4.4854
 Frc consts  --      0.0017                 0.0042                 0.0065
 IR Inten    --      0.8811                 7.3430                 1.6774

                      4                      5                      6
                      A                      A                      A
 Frequencies --     62.9884                82.9237                87.1883
 Red. masses --      4.2538                 6.5810                 5.4449
 Frc consts  --      0.0099                 0.0267                 0.0244
 IR Inten    --      5.6588                 2.5361                 2.3724

                      7                      8                      9
                      A                      A                      A
 Frequencies --    102.0208               122.0976               174.8778
 Red. masses --      6.7817                 4.2132                 4.9393
 Frc consts  --      0.0416                 0.0370                 0.0890
 IR Inten    --      7.7321                 6.6285                 8.2407

                     10                     11                     12
                      A                      A                      A
 Frequencies --    200.6255               229.3821               288.9486
 Red. masses --      2.2388                 5.3898                 7.5855
 Frc consts  --      0.0531                 0.1671                 0.3731
 IR Inten    --      7.1256                 5.0180                 0.5844

                     13                     14                     15
                      A                      A                      A
 Frequencies --    300.3116               331.8387               343.8383
 Red. masses --      1.2953                 2.2713                 5.4365
 Frc consts  --      0.0688                 0.1474                 0.3787
 IR Inten    --     12.6599                 5.9655                 0.5392

                     16                     17                     18
                      A                      A                      A
 Frequencies --    346.8365               391.9240               475.5652
 Red. masses --      4.0196                 4.4820                 2.6994
 Frc consts  --      0.2849                 0.4056                 0.3597
 IR Inten    --     17.9997                18.5005                13.9077

                     19                     20                     21
                      A                      A                      A
 Frequencies --    509.0694               532.1477               601.4883
 Red. masses --      3.2253                 1.4166                 4.0886
 Frc consts  --      0.4925                 0.2363                 0.8715
 IR Inten    --     28.5503                89.9099                 8.9390

                     22                     23                     24
                      A                      A                      A
 Frequencies --    612.0562               648.1146               668.2250
 Red. masses --      1.8536                 2.0763                 3.2594
 Frc consts  --      0.4091                 0.5139                 0.8575
 IR Inten    --     67.9869                15.2319                18.9688

                     25                     26                     27
                      A                      A                      A
 Frequencies --    682.1780               695.7128               730.0538
 Red. masses --      3.0050                 3.3488                 3.1172
 Frc consts  --      0.8239                 0.9550                 0.9789
 IR Inten    --      6.3501                28.1064                 9.6486

                     28                     29                     30
                      A                      A                      A
 Frequencies --    763.2456               805.4996               812.8315
 Red. masses --      3.4177                 1.4736                 1.6932
 Frc consts  --      1.1730                 0.5633                 0.6591
 IR Inten    --      3.1930                 9.0697                42.0702

                     31                     32                     33
                      A                      A                      A
 Frequencies --    825.4829               851.5512               856.1155
 Red. masses --      1.6520                 1.3551                 1.4610
 Frc consts  --      0.6632                 0.5790                 0.6309
 IR Inten    --     16.0680                40.2037                70.4421

                     34                     35                     36
                      A                      A                      A
 Frequencies --    896.5330               931.3540               933.6709
 Red. masses --      2.7047                 2.0520                 4.8119
 Frc consts  --      1.2809                 1.0487                 2.4714
 IR Inten    --     11.0928                24.5415                 8.8806

                     37                     38                     39
                      A                      A                      A
 Frequencies --    981.4251              1012.7342              1020.8320
 Red. masses --      2.1258                 2.4955                 2.0587
 Frc consts  --      1.2064                 1.5080                 1.2640
 IR Inten    --     21.0374                17.3913                 4.8944

                     40                     41                     42
                      A                      A                      A
 Frequencies --   1029.6616              1044.1745              1094.1566
 Red. masses --      4.0350                 2.8498                 2.5044
 Frc consts  --      2.5205                 1.8307                 1.7665
 IR Inten    --      6.6756                12.0940                 4.4785

                     43                     44                     45
                      A                      A                      A
 Frequencies --   1121.8154              1151.8149              1153.1851
 Red. masses --      1.6393                 2.0719                 1.9889
 Frc consts  --      1.2155                 1.6195                 1.5583
 IR Inten    --     16.0790                12.0063                 5.6203

                     46                     47                     48
                      A                      A                      A
 Frequencies --   1169.9394              1173.9585              1216.5064
 Red. masses --      1.4708                 1.8615                 2.2864
 Frc consts  --      1.1861                 1.5115                 1.9936
 IR Inten    --      8.5654                13.7892                19.5253

                     49                     50                     51
                      A                      A                      A
 Frequencies --   1256.9575              1267.2405              1289.7127
 Red. masses --      1.6116                 1.8755                 1.4327
 Frc consts  --      1.5002                 1.7745                 1.4041
 IR Inten    --     19.3372                27.4701                 0.5591

                     52                     53                     54
                      A                      A                      A
 Frequencies --   1305.9934              1326.0032              1331.9123
 Red. masses --      1.3344                 1.5133                 1.3572
 Frc consts  --      1.3410                 1.5677                 1.4185
 IR Inten    --      0.8571                 6.4644                 8.2776

                     55                     56                     57
                      A                      A                      A
 Frequencies --   1336.5279              1374.6171              1383.5585
 Red. masses --      1.3824                 1.3909                 1.3916
 Frc consts  --      1.4549                 1.5485                 1.5695
 IR Inten    --     98.1986               120.6166                22.5968

                     58                     59                     60
                      A                      A                      A
 Frequencies --   1407.1193              1416.2316              1438.8376
 Red. masses --      2.5928                 1.9453                 1.4210
 Frc consts  --      3.0247                 2.2988                 1.7332
 IR Inten    --     33.7747               110.1955                19.3827

                     61                     62                     63
                      A                      A                      A
 Frequencies --   1446.3680              1493.1490              1507.3332
 Red. masses --      3.1746                 1.0845                 2.6731
 Frc consts  --      3.9128                 1.4246                 3.5783
 IR Inten    --     22.1335                12.1651                17.8467

                     64                     65                     66
                      A                      A                      A
 Frequencies --   1514.6719              1536.4816              1565.8733
 Red. masses --      1.3074                 1.1167                 1.9559
 Frc consts  --      1.7672                 1.5532                 2.8256
 IR Inten    --      8.3188                29.1146               382.2670

                     67                     68                     69
                      A                      A                      A
 Frequencies --   1610.7092              1692.8024              1757.5834
 Red. masses --      4.0138                 1.0898                 9.4105
 Frc consts  --      6.1353                 1.8399                17.1275
 IR Inten    --     10.8273                34.2508               262.5595

                     70                     71                     72
                      A                      A                      A
 Frequencies --   1863.6770              2992.2774              3034.2445
 Red. masses --      9.6729                 1.0728                 1.0710
 Frc consts  --     19.7947                 5.6597                 5.8097
 IR Inten    --    238.5385                95.9740                11.5463

                     73                     74                     75
                      A                      A                      A
 Frequencies --   3046.9887              3064.8657              3086.3341
 Red. masses --      1.0810                 1.0652                 1.0911
 Frc consts  --      5.9130                 5.8954                 6.1236
 IR Inten    --      8.1717                21.8257                27.2768

                     76                     77                     78
                      A                      A                      A
 Frequencies --   3119.0635              3123.0575              3256.3928
 Red. masses --      1.1019                 1.0924                 1.0958
 Frc consts  --      6.3158                 6.2778                 6.8462
 IR Inten    --      2.5810                11.4592                 4.4542

                     79                     80                     81
                      A                      A                      A
 Frequencies --   3270.8461              3384.4361              3479.2305
 Red. masses --      1.0972                 1.0820                 1.0505
 Frc consts  --      6.9161                 7.3018                 7.4922
 IR Inten    --      1.8179               337.1061                 0.3261

                     82                     83                     84
                      A                      A                      A
 Frequencies --   3567.7961              3603.5922              3639.7598
 Red. masses --      1.0928                 1.0665                 1.0811
 Frc consts  --      8.1961                 8.1598                 8.4384
 IR Inten    --      1.4209               213.6941                45.8443

 - Thermochemistry -
 -------------------
 Temperature   298.150 Kelvin.  Pressure   1.00000 Atm.
 Atom     1 has atomic number  8 and mass  15.99491

 Molecular mass:   226.10659 amu.
 Principal axes and moments of inertia in atomic units:
                           1         2         3
     Eigenvalues --  1657.607776670.038827669.98734
           X            0.99184   0.12662   0.01452
           Y           -0.02406   0.07412   0.99696
           Z           -0.12516   0.98918  -0.07656
 This molecule is an asymmetric top.
 Rotational symmetry number  1.
 Warning -- assumption of classical behavior for rotation
           may cause significant error
 Rotational temperatures (Kelvin)      0.05225     0.01299     0.01129
 Rotational constants (GHZ):           1.08876     0.27057     0.23530
 Zero-point vibrational energy     645812.4 (Joules/Mol)
                                  154.35288 (Kcal/Mol)
 Warning -- explicit consideration of  22 degrees of freedom as
           vibrations may cause significant error
 Vibrational temperatures:     36.35    53.70    71.46    90.63   119.31
          (Kelvin)            125.44   146.78   175.67   251.61   288.65
                              330.03   415.73   432.08   477.44   494.71
                              499.02   563.89   684.23   732.44   765.64
                              865.41   880.61   932.49   961.43   981.50
                             1000.97  1050.38  1098.14  1158.93  1169.48
                             1187.68  1225.19  1231.76  1289.91  1340.01
                             1343.34  1412.05  1457.10  1468.75  1481.45
                             1502.33  1574.25  1614.04  1657.20  1659.17
                             1683.28  1689.06  1750.28  1808.48  1823.27
                             1855.61  1879.03  1907.82  1916.32  1922.96
                             1977.76  1990.63  2024.53  2037.64  2070.16
                             2081.00  2148.31  2168.71  2179.27  2210.65
                             2252.94  2317.45  2435.56  2528.77  2681.41
                             4305.21  4365.60  4383.93  4409.65  4440.54
                             4487.63  4493.38  4685.22  4706.01  4869.44
                             5005.83  5133.26  5184.76  5236.80

 Zero-point correction=                           0.245977 (Hartree/Particle)
 Thermal correction to Energy=                    0.261745
 Thermal correction to Enthalpy=                  0.262690
 Thermal correction to Gibbs Free Energy=         0.200542
 Sum of electronic and zero-point Energies=           -795.834785
 Sum of electronic and thermal Energies=              -795.819017
 Sum of electronic and thermal Enthalpies=            -795.818072
 Sum of electronic and thermal Free Energies=         -795.880220

                     E (Thermal)             CV                S
                      KCal/Mol        Cal/Mol-Kelvin    Cal/Mol-Kelvin
 Total                  164.248             57.602            130.800
 Electronic               0.000              0.000              0.000
 Translational            0.889              2.981             42.150
 Rotational               0.889              2.981             32.806
 Vibrational            162.470             51.640             55.845
 Vibration     1          0.593              1.985              6.170
 Vibration     2          0.594              1.982              5.396
 Vibration     3          0.595              1.978              4.830
 Vibration     4          0.597              1.972              4.361
 Vibration     5          0.600              1.961              3.820
 Vibration     6          0.601              1.958              3.722
 Vibration     7          0.604              1.948              3.415
 Vibration     8          0.610              1.931              3.067
 Vibration     9          0.627              1.873              2.382
 Vibration    10          0.638              1.839              2.127
 Vibration    11          0.652              1.796              1.884
 Vibration    12          0.686              1.694              1.480
 Vibration    13          0.693              1.673              1.415
 Vibration    14          0.714              1.612              1.251
 Vibration    15          0.723              1.588              1.194
 Vibration    16          0.725              1.582              1.181
 Vibration    17          0.759              1.487              0.993
 Vibration    18          0.832              1.304              0.722
 Vibration    19          0.864              1.230              0.636
 Vibration    20          0.887              1.179              0.582
 Vibration    21          0.960              1.029              0.447
 Vibration    22          0.971              1.006              0.429

 Optimization completed.
    -- Stationary point found.
 Normal termination of Gaussian 09 at Wed Jul 28 22:45:49 2021.
