 Gaussian 09, Revision D.01,
 Gaussian 09:  ES64L-G09RevD.01 24-Apr-2013

 ----------------------------------------------------------------------
 # B3LYP/6-31G(d) opt=calcfc freq=noraman nosymm integral(ultrafinegrid
 )
 ----------------------------------------------------------------------

 ------------------------------------------------------------
 Candidate Structure: Conf:591 OPT and FREQ calc in gas phase
 ------------------------------------------------------------
 Symbolic Z-matrix:
 Charge =  0 Multiplicity = 1

 SCF Done:  E(RB3LYP) =  -796.076949428     A.U. after   15 cycles
 SCF Done:  E(RB3LYP) =  -796.079386857     A.U. after   14 cycles
 SCF Done:  E(RB3LYP) =  -796.079496544     A.U. after   15 cycles
 SCF Done:  E(RB3LYP) =  -796.079860381     A.U. after   14 cycles
 SCF Done:  E(RB3LYP) =  -796.080112504     A.U. after   12 cycles
 SCF Done:  E(RB3LYP) =  -796.080358165     A.U. after   14 cycles
 SCF Done:  E(RB3LYP) =  -796.081994237     A.U. after   15 cycles
 SCF Done:  E(RB3LYP) =  -796.083319902     A.U. after   13 cycles
 SCF Done:  E(RB3LYP) =  -796.084885066     A.U. after   12 cycles
 SCF Done:  E(RB3LYP) =  -796.085226008     A.U. after   11 cycles
 SCF Done:  E(RB3LYP) =  -796.085449283     A.U. after   12 cycles
 SCF Done:  E(RB3LYP) =  -796.085679717     A.U. after   12 cycles
 SCF Done:  E(RB3LYP) =  -796.085691485     A.U. after   12 cycles
 SCF Done:  E(RB3LYP) =  -796.085740194     A.U. after   11 cycles
 SCF Done:  E(RB3LYP) =  -796.085745949     A.U. after   10 cycles
 SCF Done:  E(RB3LYP) =  -796.085747848     A.U. after   10 cycles
 SCF Done:  E(RB3LYP) =  -796.085748066     A.U. after   10 cycles
 SCF Done:  E(RB3LYP) =  -796.085748744     A.U. after    9 cycles
 SCF Done:  E(RB3LYP) =  -796.085748751     A.U. after    6 cycles
 Optimization completed.
    -- Stationary point found.
 Normal termination of Gaussian 09 at Wed Jul 28 22:38:33 2021.

 --------------------------------------------------------------------
 #N Geom=AllCheck Guess=TCheck SCRF=Check GenChk RB3LYP/6-31G(d) Freq
 --------------------------------------------------------------------

 Structure from the checkpoint file:  "conf-591.chk"
 ------------------------------------------------------------
 Candidate Structure: Conf:591 OPT and FREQ calc in gas phase
 ------------------------------------------------------------
 Charge =  0 Multiplicity = 1

                          Input orientation:
 ---------------------------------------------------------------------
 Center     Atomic      Atomic             Coordinates (Angstroms)
 Number     Number       Type             X           Y           Z
 ---------------------------------------------------------------------
      1          8           0       -0.841807    0.171178   -1.019271
      2          6           0       -1.269415    0.053474    0.134329
      3          7           0       -0.465426   -0.241725    1.186440
      4          6           0        0.956073   -0.509682    1.054020
      5          6           0        1.380508   -1.249788    2.312970
      6          8           0        2.636654   -1.720011    2.212985
      7          8           0        0.689183   -1.389788    3.300608
      8          6           0        1.832038    0.786652    0.840769
      9          6           0        2.549073    0.833109   -0.468278
     10          6           0        3.877384    0.981284   -0.799864
     11          7           0        4.048785    0.986466   -2.165310
     12          6           0        2.834450    0.837933   -2.657611
     13          7           0        1.890308    0.745198   -1.679504
     14          6           0       -2.743470    0.241311    0.457120
     15          6           0       -3.644398   -0.550465   -0.501319
     16          7           0       -5.051737   -0.305867   -0.169207
     17          1           0       -0.857023   -0.397266    2.108227
     18          1           0        1.117583   -1.175574    0.199851
     19          1           0        2.843720   -2.156059    3.061387
     20          1           0        2.578260    0.870887    1.636590
     21          1           0        1.153850    1.641415    0.955414
     22          1           0        4.718423    1.086651   -0.126075
     23          1           0        2.583312    0.790346   -3.709147
     24          1           0        0.886090    0.586100   -1.761175
     25          1           0       -2.975990   -0.034772    1.491109
     26          1           0       -2.963811    1.313101    0.352551
     27          1           0       -3.452429   -1.622479   -0.370054
     28          1           0       -3.360113   -0.298556   -1.534277
     29          1           0       -5.644697   -0.918284   -0.726784
     30          1           0       -5.305354    0.645352   -0.435852
 ---------------------------------------------------------------------

 SCF Done:  E(RB3LYP) =  -796.085748751     A.U. after    1 cycles

 Alpha  occ. eigenvalues --  -19.22390 -19.16994 -19.13440 -14.37973 -14.36459
 Alpha  occ. eigenvalues --  -14.32189 -14.29334 -10.34932 -10.30686 -10.26211
 Alpha  occ. eigenvalues --  -10.22087 -10.21996 -10.21445 -10.20494 -10.20477
 Alpha  occ. eigenvalues --  -10.18125  -1.13505  -1.05199  -1.04450  -0.99279
 Alpha  occ. eigenvalues --   -0.94487  -0.88933  -0.85075  -0.80797  -0.76553
 Alpha  occ. eigenvalues --   -0.73677  -0.67784  -0.65385  -0.61520  -0.60251
 Alpha  occ. eigenvalues --   -0.59238  -0.57106  -0.53689  -0.53391  -0.51243
 Alpha  occ. eigenvalues --   -0.49775  -0.49478  -0.48374  -0.47584  -0.45887
 Alpha  occ. eigenvalues --   -0.45062  -0.44127  -0.42747  -0.42130  -0.41051
 Alpha  occ. eigenvalues --   -0.40064  -0.39103  -0.38906  -0.38677  -0.38174
 Alpha  occ. eigenvalues --   -0.37501  -0.35169  -0.34573  -0.30792  -0.27980
 Alpha  occ. eigenvalues --   -0.27496  -0.26007  -0.24868  -0.24189  -0.20864
 Alpha virt. eigenvalues --   -0.01914   0.00753   0.04120   0.05242   0.07333
 Alpha virt. eigenvalues --    0.07908   0.08454   0.11172   0.11631   0.12235
 Alpha virt. eigenvalues --    0.13170   0.14400   0.14756   0.15794   0.16731

 Mulliken charges:
               1
     1  O   -0.550599
     2  C    0.625605
     3  N   -0.619680
     4  C   -0.011166
     5  C    0.558638
     6  O   -0.553296
     7  O   -0.467051
     8  C   -0.361692
     9  C    0.305626
    10  C   -0.080621
    11  N   -0.432193
    12  C    0.201181
    13  N   -0.614955
    14  C   -0.352003
    15  C   -0.139579
    16  N   -0.719355
    17  H    0.355824
    18  H    0.206875
    19  H    0.421259
    20  H    0.175556
    21  H    0.175393
    22  H    0.122220
    23  H    0.148004
    24  H    0.381160
    25  H    0.159404
    26  H    0.168354
    27  H    0.147333
    28  H    0.151821
    29  H    0.302385
    30  H    0.295552
 Sum of Mulliken charges =   0.00000

 Dipole moment (field-independent basis, Debye):
    X=             -3.6458    Y=             -1.1264    Z=              2.4280  Tot=              4.5228
 Quadrupole moment (field-independent basis, Debye-Ang):
   XX=           -102.2661   YY=            -90.3718   ZZ=            -94.1913
   XY=             -9.0187   XZ=             23.6694   YZ=              1.6394

  Exact polarizability: 156.274   2.976  82.830  -4.834 -12.020 134.152
 Approx polarizability: 207.632   1.736 121.569 -11.958 -11.124 209.920

                      1                      2                      3
                      A                      A                      A
 Frequencies --     25.1809                33.2051                56.8948
 Red. masses --      3.3438                 6.0993                 4.3817
 Frc consts  --      0.0012                 0.0040                 0.0084
 IR Inten    --      1.5210                 1.2249                 1.7206

                      4                      5                      6
                      A                      A                      A
 Frequencies --     61.3189                76.5490                80.9344
 Red. masses --      7.4399                 2.5809                 4.8083
 Frc consts  --      0.0165                 0.0089                 0.0186
 IR Inten    --      0.8099                 2.1099                 0.9501

                      7                      8                      9
                      A                      A                      A
 Frequencies --     90.9663               133.2496               137.6763
 Red. masses --      6.3731                 5.6524                 4.2001
 Frc consts  --      0.0311                 0.0591                 0.0469
 IR Inten    --      7.7589                 3.4350                 8.5454

                     10                     11                     12
                      A                      A                      A
 Frequencies --    190.3627               232.9238               252.5910
 Red. masses --      5.1262                 3.6930                 1.5713
 Frc consts  --      0.1094                 0.1180                 0.0591
 IR Inten    --      1.3806                13.8689                41.9086

                     13                     14                     15
                      A                      A                      A
 Frequencies --    282.7248               290.5910               316.6334
 Red. masses --      2.7057                 2.7728                 4.1636
 Frc consts  --      0.1274                 0.1380                 0.2459
 IR Inten    --     12.7686                14.5924                 5.0953

                     16                     17                     18
                      A                      A                      A
 Frequencies --    355.7084               394.9815               426.0663
 Red. masses --      6.5266                 4.2877                 3.5001
 Frc consts  --      0.4865                 0.3941                 0.3744
 IR Inten    --      0.6425                 6.9785                 3.5962

                     19                     20                     21
                      A                      A                      A
 Frequencies --    532.8073               566.3512               599.8640
 Red. masses --      2.5520                 1.5938                 1.7095
 Frc consts  --      0.4268                 0.3012                 0.3624
 IR Inten    --     70.6149                34.1095                69.0176

                     22                     23                     24
                      A                      A                      A
 Frequencies --    634.0578               643.6016               653.6685
 Red. masses --      3.5532                 3.6547                 2.0013
 Frc consts  --      0.8416                 0.8920                 0.5038
 IR Inten    --     31.9439                 7.4291                 6.0912

                     25                     26                     27
                      A                      A                      A
 Frequencies --    676.2007               717.6246               753.9015
 Red. masses --      3.7216                 3.0390                 4.9152
 Frc consts  --      1.0026                 0.9221                 1.6460
 IR Inten    --     45.1217                34.7257                15.0522

                     28                     29                     30
                      A                      A                      A
 Frequencies --    774.5226               777.5383               804.6165
 Red. masses --      1.2348                 2.8263                 1.2781
 Frc consts  --      0.4364                 1.0067                 0.4875
 IR Inten    --     45.4968                11.6214                 6.2946

                     31                     32                     33
                      A                      A                      A
 Frequencies --    806.5722               841.0786               871.1508
 Red. masses --      1.3974                 1.3055                 2.5652
 Frc consts  --      0.5356                 0.5441                 1.1470
 IR Inten    --     20.9221                28.5582                16.9092

                     34                     35                     36
                      A                      A                      A
 Frequencies --    886.3801               938.5406               947.0312
 Red. masses --      1.3431                 6.0636                 3.5470
 Frc consts  --      0.6217                 3.1469                 1.8743
 IR Inten    --    149.8624                19.2538                 8.1771

                     37                     38                     39
                      A                      A                      A
 Frequencies --    983.1401               994.1791              1026.7828
 Red. masses --      3.2805                 2.5975                 3.7051
 Frc consts  --      1.8682                 1.5126                 2.3015
 IR Inten    --      2.9394                 4.2638                 1.1196

                     40                     41                     42
                      A                      A                      A
 Frequencies --   1028.3354              1060.3860              1101.1443
 Red. masses --      3.3070                 2.3344                 2.4424
 Frc consts  --      2.0604                 1.5465                 1.7448
 IR Inten    --     26.2434                 5.1628                37.3625

                     43                     44                     45
                      A                      A                      A
 Frequencies --   1142.6138              1145.9231              1161.5882
 Red. masses --      2.5883                 2.0837                 1.7622
 Frc consts  --      1.9909                 1.6121                 1.4009
 IR Inten    --     43.8483                38.5510                 5.5738

                     46                     47                     48
                      A                      A                      A
 Frequencies --   1171.4360              1195.3037              1220.9669
 Red. masses --      1.3097                 2.4149                 1.2560
 Frc consts  --      1.0589                 2.0329                 1.1032
 IR Inten    --     18.6688               173.9469                 9.8490

                     49                     50                     51
                      A                      A                      A
 Frequencies --   1249.3937              1278.5868              1287.7545
 Red. masses --      1.5511                 2.1185                 1.4510
 Frc consts  --      1.4266                 2.0405                 1.4177
 IR Inten    --     21.6434                 6.3437                11.1581

                     52                     53                     54
                      A                      A                      A
 Frequencies --   1298.7751              1314.8070              1329.7759
 Red. masses --      1.3318                 1.3396                 1.2060
 Frc consts  --      1.3236                 1.3645                 1.2565
 IR Inten    --     16.6120                 7.0197                 0.5141

                     55                     56                     57
                      A                      A                      A
 Frequencies --   1344.3426              1374.6014              1380.8128
 Red. masses --      1.3765                 1.4788                 1.4509
 Frc consts  --      1.4657                 1.6464                 1.6299
 IR Inten    --      1.9936                38.0393                 6.6641

                     58                     59                     60
                      A                      A                      A
 Frequencies --   1399.4313              1430.1537              1445.2947
 Red. masses --      3.4736                 2.5300                 1.4529
 Frc consts  --      4.0081                 3.0489                 1.7881
 IR Inten    --     18.2227               107.8219                42.1321

                     61                     62                     63
                      A                      A                      A
 Frequencies --   1462.6930              1502.8280              1504.6434
 Red. masses --      2.4793                 1.1384                 1.1126
 Frc consts  --      3.1253                 1.5148                 1.4840
 IR Inten    --     73.6394                13.1246                 6.8709

                     64                     65                     66
                      A                      A                      A
 Frequencies --   1521.5398              1547.1526              1557.4758
 Red. masses --      3.3255                 1.0872                 2.3428
 Frc consts  --      4.5360                 1.5334                 3.3484
 IR Inten    --     22.5201                 1.7369               323.4727

                     67                     68                     69
                      A                      A                      A
 Frequencies --   1625.9641              1698.3208              1742.1907
 Red. masses --      4.0858                 1.0887                 8.7034
 Frc consts  --      6.3643                 1.8501                15.5643
 IR Inten    --     16.8765                26.8329               216.3604

                     70                     71                     72
                      A                      A                      A
 Frequencies --   1833.8197              3014.2788              3041.3007
 Red. masses --      9.6157                 1.0669                 1.0671
 Frc consts  --     19.0521                 5.7114                 5.8154
 IR Inten    --    259.7535                37.4259                 8.4553

                     73                     74                     75
                      A                      A                      A
 Frequencies --   3051.8826              3073.8350              3087.3680
 Red. masses --      1.0665                 1.0926                 1.0842
 Frc consts  --      5.8526                 6.0825                 6.0890
 IR Inten    --     21.1410                24.9713                 8.8154

                     76                     77                     78
                      A                      A                      A
 Frequencies --   3106.0684              3110.8695              3250.0831
 Red. masses --      1.0999                 1.0974                 1.0958
 Frc consts  --      6.2522                 6.2571                 6.8195
 IR Inten    --     28.6691                11.0030                12.2243

                     79                     80                     81
                      A                      A                      A
 Frequencies --   3263.8548              3460.6227              3491.6025
 Red. masses --      1.0966                 1.0505                 1.0846
 Frc consts  --      6.8829                 7.4125                 7.7908
 IR Inten    --      4.1037                 1.9368               436.5129

                     82                     83                     84
                      A                      A                      A
 Frequencies --   3546.9621              3586.7408              3684.9244
 Red. masses --      1.0917                 1.0777                 1.0642
 Frc consts  --      8.0920                 8.1687                 8.5136
 IR Inten    --      0.2655                77.9820                72.9816

 - Thermochemistry -
 -------------------
 Temperature   298.150 Kelvin.  Pressure   1.00000 Atm.
 Atom     1 has atomic number  8 and mass  15.99491

 Molecular mass:   226.10659 amu.
 Principal axes and moments of inertia in atomic units:
                           1         2         3
     Eigenvalues --  2744.113935891.627688249.52528
           X            0.98513   0.16400  -0.05122
           Y            0.11420  -0.40234   0.90834
           Z           -0.12837   0.90068   0.41508
 This molecule is an asymmetric top.
 Rotational symmetry number  1.
 Warning -- assumption of classical behavior for rotation
           may cause significant error
 Rotational temperatures (Kelvin)      0.03156     0.01470     0.01050
 Rotational constants (GHZ):           0.65768     0.30632     0.21877
 Zero-point vibrational energy     645963.2 (Joules/Mol)
                                  154.38891 (Kcal/Mol)
 Warning -- explicit consideration of  21 degrees of freedom as
           vibrations may cause significant error
 Vibrational temperatures:     36.23    47.77    81.86    88.22   110.14
          (Kelvin)            116.45   130.88   191.72   198.09   273.89
                              335.12   363.42   406.78   418.10   455.56
                              511.78   568.29   613.01   766.59   814.85
                              863.07   912.27   926.00   940.48   972.90
                             1032.50  1084.69  1114.36  1118.70  1157.66
                             1160.48  1210.12  1253.39  1275.30  1350.35
                             1362.56  1414.52  1430.40  1477.31  1479.54
                             1525.66  1584.30  1643.96  1648.73  1671.26
                             1685.43  1719.77  1756.70  1797.60  1839.60
                             1852.79  1868.65  1891.71  1913.25  1934.21
                             1977.74  1986.68  2013.47  2057.67  2079.45
                             2104.49  2162.23  2164.84  2189.15  2226.00
                             2240.86  2339.40  2443.50  2506.62  2638.45
                             4336.87  4375.75  4390.97  4422.56  4442.03
                             4468.93  4475.84  4676.14  4695.95  4979.06
                             5023.63  5103.28  5160.51  5301.78

 Zero-point correction=                           0.246034 (Hartree/Particle)
 Thermal correction to Energy=                    0.262033
 Thermal correction to Enthalpy=                  0.262978
 Thermal correction to Gibbs Free Energy=         0.199889
 Sum of electronic and zero-point Energies=           -795.839714
 Sum of electronic and thermal Energies=              -795.823715
 Sum of electronic and thermal Enthalpies=            -795.822771
 Sum of electronic and thermal Free Energies=         -795.885860

                     E (Thermal)             CV                S
                      KCal/Mol        Cal/Mol-Kelvin    Cal/Mol-Kelvin
 Total                  164.428             57.770            132.781
 Electronic               0.000              0.000              0.000
 Translational            0.889              2.981             42.150
 Rotational               0.889              2.981             33.255
 Vibrational            162.651             51.808             57.376
 Vibration     1          0.593              1.985              6.177
 Vibration     2          0.594              1.983              5.628
 Vibration     3          0.596              1.975              4.562
 Vibration     4          0.597              1.973              4.414
 Vibration     5          0.599              1.965              3.977
 Vibration     6          0.600              1.962              3.868
 Vibration     7          0.602              1.956              3.639
 Vibration     8          0.613              1.920              2.899
 Vibration     9          0.614              1.916              2.836
 Vibration    10          0.634              1.853              2.224
 Vibration    11          0.654              1.791              1.856
 Vibration    12          0.664              1.758              1.712
 Vibration    13          0.682              1.706              1.517
 Vibration    14          0.687              1.691              1.471
 Vibration    15          0.704              1.642              1.327
 Vibration    16          0.731              1.564              1.141
 Vibration    17          0.762              1.481              0.981
 Vibration    18          0.788              1.414              0.872
 Vibration    19          0.888              1.177              0.581
 Vibration    20          0.922              1.104              0.511
 Vibration    21          0.958              1.032              0.450

 Optimization completed.
    -- Stationary point found.
 Normal termination of Gaussian 09 at Wed Jul 28 22:53:39 2021.
