 Gaussian 09, Revision D.01,
 Gaussian 09:  ES64L-G09RevD.01 24-Apr-2013

 ----------------------------------------------------------------------
 # B3LYP/6-31G(d) opt=calcfc freq=noraman nosymm integral(ultrafinegrid
 )
 ----------------------------------------------------------------------

 ------------------------------------------------------------
 Candidate Structure: Conf:295 OPT and FREQ calc in gas phase
 ------------------------------------------------------------
 Symbolic Z-matrix:
 Charge =  0 Multiplicity = 1

 SCF Done:  E(RB3LYP) =  -796.076228303     A.U. after   14 cycles
 SCF Done:  E(RB3LYP) =  -796.079801222     A.U. after   13 cycles
 SCF Done:  E(RB3LYP) =  -796.080757746     A.U. after   14 cycles
 SCF Done:  E(RB3LYP) =  -796.081082983     A.U. after   14 cycles
 SCF Done:  E(RB3LYP) =  -796.081247022     A.U. after   11 cycles
 SCF Done:  E(RB3LYP) =  -796.081312959     A.U. after   11 cycles
 SCF Done:  E(RB3LYP) =  -796.081333895     A.U. after   11 cycles
 SCF Done:  E(RB3LYP) =  -796.081345947     A.U. after   10 cycles
 SCF Done:  E(RB3LYP) =  -796.081348879     A.U. after   10 cycles
 SCF Done:  E(RB3LYP) =  -796.081349256     A.U. after    9 cycles
 SCF Done:  E(RB3LYP) =  -796.081349292     A.U. after    7 cycles
 SCF Done:  E(RB3LYP) =  -796.081349299     A.U. after    7 cycles
 Optimization completed.
    -- Stationary point found.
 Normal termination of Gaussian 09 at Wed Jul 28 22:28:17 2021.

 --------------------------------------------------------------------
 #N Geom=AllCheck Guess=TCheck SCRF=Check GenChk RB3LYP/6-31G(d) Freq
 --------------------------------------------------------------------

 Structure from the checkpoint file:  "conf-295.chk"
 ------------------------------------------------------------
 Candidate Structure: Conf:295 OPT and FREQ calc in gas phase
 ------------------------------------------------------------
 Charge =  0 Multiplicity = 1

                          Input orientation:
 ---------------------------------------------------------------------
 Center     Atomic      Atomic             Coordinates (Angstroms)
 Number     Number       Type             X           Y           Z
 ---------------------------------------------------------------------
      1          8           0        1.335844    0.886321   -0.760772
      2          6           0        1.744606    0.006408   -0.005071
      3          7           0        0.910626   -0.616831    0.879236
      4          6           0       -0.472149   -0.205613    1.037526
      5          6           0       -0.919411   -0.723077    2.396434
      6          8           0       -2.182919   -0.352050    2.722818
      7          8           0       -0.248520   -1.411751    3.133757
      8          6           0       -1.375715   -0.721063   -0.136841
      9          6           0       -2.553508    0.128503   -0.494983
     10          6           0       -2.836889    0.822409   -1.650276
     11          7           0       -4.060794    1.446893   -1.573675
     12          6           0       -4.521910    1.142177   -0.379646
     13          7           0       -3.659844    0.339313    0.310796
     14          6           0        3.189938   -0.486238    0.010224
     15          6           0        4.101910    0.330784   -0.907697
     16          7           0        3.747221    0.103439   -2.311345
     17          1           0        1.274217   -1.257481    1.573888
     18          1           0       -0.526167    0.890170    1.037989
     19          1           0       -2.357478   -0.741149    3.601578
     20          1           0       -0.724903   -0.739159   -1.013402
     21          1           0       -1.667556   -1.761403    0.063770
     22          1           0       -2.218265    0.899647   -2.534972
     23          1           0       -5.465831    1.469107    0.036805
     24          1           0       -3.735838    0.039184    1.272004
     25          1           0        3.564655   -0.459903    1.042841
     26          1           0        3.204766   -1.535247   -0.312986
     27          1           0        5.132848   -0.010049   -0.754863
     28          1           0        4.060476    1.388598   -0.596216
     29          1           0        2.843607    0.545725   -2.474332
     30          1           0        4.417002    0.582342   -2.911347
 ---------------------------------------------------------------------

 SCF Done:  E(RB3LYP) =  -796.081349299     A.U. after    1 cycles

 Alpha  occ. eigenvalues --  -19.23801 -19.17863 -19.12214 -14.38120 -14.36810
 Alpha  occ. eigenvalues --  -14.30189 -14.29866 -10.35751 -10.29418 -10.26223
 Alpha  occ. eigenvalues --  -10.23106 -10.21404 -10.21319 -10.20669 -10.19606
 Alpha  occ. eigenvalues --  -10.18705  -1.14549  -1.05513  -1.04015  -1.00361
 Alpha  occ. eigenvalues --   -0.93588  -0.87007  -0.86105  -0.80789  -0.75921
 Alpha  occ. eigenvalues --   -0.73674  -0.68433  -0.65125  -0.61009  -0.60435
 Alpha  occ. eigenvalues --   -0.59433  -0.57981  -0.54119  -0.52335  -0.51970
 Alpha  occ. eigenvalues --   -0.49713  -0.49346  -0.47990  -0.47362  -0.45773
 Alpha  occ. eigenvalues --   -0.45392  -0.43828  -0.42573  -0.41750  -0.40935
 Alpha  occ. eigenvalues --   -0.39932  -0.39699  -0.39055  -0.38785  -0.36925
 Alpha  occ. eigenvalues --   -0.35881  -0.35708  -0.35145  -0.31402  -0.27192
 Alpha  occ. eigenvalues --   -0.26750  -0.25858  -0.25642  -0.22574  -0.21606
 Alpha virt. eigenvalues --   -0.02689   0.01810   0.03186   0.03842   0.07608
 Alpha virt. eigenvalues --    0.08496   0.10039   0.10900   0.12189   0.12385
 Alpha virt. eigenvalues --    0.13565   0.13959   0.15236   0.16117   0.16657

 Mulliken charges:
               1
     1  O   -0.529025
     2  C    0.621614
     3  N   -0.626034
     4  C   -0.010351
     5  C    0.582714
     6  O   -0.582381
     7  O   -0.459668
     8  C   -0.368490
     9  C    0.318631
    10  C   -0.072444
    11  N   -0.425125
    12  C    0.204063
    13  N   -0.609019
    14  C   -0.364174
    15  C   -0.125481
    16  N   -0.731118
    17  H    0.349310
    18  H    0.205662
    19  H    0.422870
    20  H    0.202930
    21  H    0.155599
    22  H    0.137878
    23  H    0.149371
    24  H    0.342983
    25  H    0.151441
    26  H    0.180235
    27  H    0.134788
    28  H    0.128519
    29  H    0.321793
    30  H    0.292910
 Sum of Mulliken charges =   0.00000

 Dipole moment (field-independent basis, Debye):
    X=              0.3395    Y=             -2.0015    Z=              5.2940  Tot=              5.6699
 Quadrupole moment (field-independent basis, Debye-Ang):
   XX=            -88.0559   YY=            -98.4108   ZZ=            -91.1365
   XY=              9.9648   XZ=            -17.7306   YZ=              1.9714

  Exact polarizability: 153.109 -17.768  91.629  -8.273 -21.767 125.543
 Approx polarizability: 193.647 -30.567 151.826  -4.883 -40.649 192.667

                      1                      2                      3
                      A                      A                      A
 Frequencies --     16.5161                31.5444                33.1188
 Red. masses --      3.5645                 6.3858                 5.0627
 Frc consts  --      0.0006                 0.0037                 0.0033
 IR Inten    --      1.3619                 0.5341                 2.3559

                      4                      5                      6
                      A                      A                      A
 Frequencies --     54.2913                67.9682                72.5589
 Red. masses --      4.4571                 7.7157                 5.0810
 Frc consts  --      0.0077                 0.0210                 0.0158
 IR Inten    --      1.1917                 2.5402                 2.0247

                      7                      8                      9
                      A                      A                      A
 Frequencies --    125.9227               131.7396               164.4310
 Red. masses --      4.8304                 5.6564                 3.6685
 Frc consts  --      0.0451                 0.0578                 0.0584
 IR Inten    --      5.7960                 3.2167                 4.2610

                     10                     11                     12
                      A                      A                      A
 Frequencies --    192.1137               248.8566               272.1893
 Red. masses --      4.5988                 2.7157                 6.0220
 Frc consts  --      0.1000                 0.0991                 0.2629
 IR Inten    --      0.9454                32.4115                 0.3221

                     13                     14                     15
                      A                      A                      A
 Frequencies --    305.7273               328.9175               331.1933
 Red. masses --      2.4671                 4.9446                 2.0617
 Frc consts  --      0.1359                 0.3152                 0.1332
 IR Inten    --      7.8341                 0.5511                21.5106

                     16                     17                     18
                      A                      A                      A
 Frequencies --    350.2280               380.9986               428.2955
 Red. masses --      1.8494                 4.0140                 2.4602
 Frc consts  --      0.1337                 0.3433                 0.2659
 IR Inten    --     44.2089                 6.2425                39.4755

                     19                     20                     21
                      A                      A                      A
 Frequencies --    489.3954               554.7642               562.3452
 Red. masses --      1.4272                 1.6268                 2.8908
 Frc consts  --      0.2014                 0.2950                 0.5386
 IR Inten    --     79.2105                56.7163                14.7365

                     22                     23                     24
                      A                      A                      A
 Frequencies --    598.7120               614.3192               636.4995
 Red. masses --      1.8237                 2.3980                 2.7994
 Frc consts  --      0.3851                 0.5332                 0.6682
 IR Inten    --     36.8292                 5.9630                28.9714

                     25                     26                     27
                      A                      A                      A
 Frequencies --    669.2873               686.9592               688.9848
 Red. masses --      2.1995                 2.3170                 3.4873
 Frc consts  --      0.5805                 0.6442                 0.9753
 IR Inten    --     98.5416                 4.0097                 8.7845

                     28                     29                     30
                      A                      A                      A
 Frequencies --    739.0395               770.1598               796.0191
 Red. masses --      2.9850                 3.9469                 1.3857
 Frc consts  --      0.9606                 1.3793                 0.5173
 IR Inten    --     38.0986                 4.9160                15.7472

                     31                     32                     33
                      A                      A                      A
 Frequencies --    812.9072               851.1434               886.0640
 Red. masses --      2.7231                 1.3880                 2.4090
 Frc consts  --      1.0602                 0.5925                 1.1143
 IR Inten    --     12.7686                17.8125                38.5393

                     34                     35                     36
                      A                      A                      A
 Frequencies --    895.7207               930.9410               934.2980
 Red. masses --      1.9336                 1.5667                 5.2365
 Frc consts  --      0.9140                 0.8000                 2.6931
 IR Inten    --      9.6306                81.6176                13.1625

                     37                     38                     39
                      A                      A                      A
 Frequencies --    965.8637              1012.6091              1020.4187
 Red. masses --      2.1645                 3.9794                 3.5409
 Frc consts  --      1.1897                 2.4041                 2.1723
 IR Inten    --     17.7548                13.8261                 5.8144

                     40                     41                     42
                      A                      A                      A
 Frequencies --   1032.9178              1075.0090              1114.5911
 Red. masses --      3.5315                 2.5780                 3.4639
 Frc consts  --      2.2199                 1.7554                 2.5354
 IR Inten    --      9.1875                22.6263                30.1592

                     43                     44                     45
                      A                      A                      A
 Frequencies --   1129.0381              1138.8751              1156.6964
 Red. masses --      1.5960                 1.6489                 1.9934
 Frc consts  --      1.1987                 1.2601                 1.5714
 IR Inten    --     39.7837                17.1105                11.7295

                     46                     47                     48
                      A                      A                      A
 Frequencies --   1179.9475              1200.1356              1202.5422
 Red. masses --      1.5654                 1.5562                 1.9415
 Frc consts  --      1.2841                 1.3206                 1.6542
 IR Inten    --    121.4554                 6.4378               117.9063

                     49                     50                     51
                      A                      A                      A
 Frequencies --   1240.2936              1256.1810              1276.8222
 Red. masses --      1.2669                 1.5469                 2.2742
 Frc consts  --      1.1482                 1.4382                 2.1844
 IR Inten    --      9.4942                21.0973                20.9217

                     52                     53                     54
                      A                      A                      A
 Frequencies --   1287.0288              1318.6295              1333.9545
 Red. masses --      1.4726                 1.4144                 1.2358
 Frc consts  --      1.4372                 1.4490                 1.2956
 IR Inten    --      8.4084                12.8498                 2.4711

                     55                     56                     57
                      A                      A                      A
 Frequencies --   1369.6818              1374.3887              1389.5468
 Red. masses --      1.1886                 1.6966                 1.5829
 Frc consts  --      1.3138                 1.8882                 1.8007
 IR Inten    --      4.2408                51.3542                14.9286

                     58                     59                     60
                      A                      A                      A
 Frequencies --   1400.0604              1427.4694              1447.0626
 Red. masses --      2.7308                 2.2969                 2.7575
 Frc consts  --      3.1538                 2.7576                 3.4021
 IR Inten    --     26.8593                70.9423                33.3093

                     61                     62                     63
                      A                      A                      A
 Frequencies --   1450.2239              1479.3838              1497.7123
 Red. masses --      1.3998                 1.1180                 1.1743
 Frc consts  --      1.7346                 1.4416                 1.5520
 IR Inten    --     16.7830                22.2695                21.2983

                     64                     65                     66
                      A                      A                      A
 Frequencies --   1520.5959              1533.9919              1544.8345
 Red. masses --      3.1796                 1.0941                 2.1008
 Frc consts  --      4.3316                 1.5169                 2.9539
 IR Inten    --     20.6903                 1.9753               325.8495

                     67                     68                     69
                      A                      A                      A
 Frequencies --   1621.3768              1689.6351              1763.2445
 Red. masses --      4.2670                 1.1566                 6.1714
 Frc consts  --      6.6091                 1.9454                11.3046
 IR Inten    --      6.1263                97.2587               133.0500

                     70                     71                     72
                      A                      A                      A
 Frequencies --   1838.4139              2979.6957              3035.0871
 Red. masses --      9.4058                 1.0723                 1.0719
 Frc consts  --     18.7298                 5.6095                 5.8176
 IR Inten    --    261.9670                68.9177                26.9329

                     73                     74                     75
                      A                      A                      A
 Frequencies --   3039.9728              3067.2332              3074.9736
 Red. masses --      1.0619                 1.0831                 1.0897
 Frc consts  --      5.7819                 6.0036                 6.0709
 IR Inten    --     15.1038                11.2262                47.7665

                     76                     77                     78
                      A                      A                      A
 Frequencies --   3084.8464              3138.1626              3258.7570
 Red. masses --      1.1008                 1.0920                 1.0949
 Frc consts  --      6.1721                 6.3361                 6.8506
 IR Inten    --     15.2065                 1.9066                10.2356

                     79                     80                     81
                      A                      A                      A
 Frequencies --   3262.9476              3469.4831              3555.4799
 Red. masses --      1.0979                 1.0499                 1.0920
 Frc consts  --      6.8871                 7.4462                 8.1335
 IR Inten    --      1.4495                11.2160                 3.2662

                     82                     83                     84
                      A                      A                      A
 Frequencies --   3598.5868              3652.0028              3674.5335
 Red. masses --      1.0776                 1.0806                 1.0640
 Frc consts  --      8.2215                 8.4913                 8.4645
 IR Inten    --     65.7669               103.8265                66.9032

 - Thermochemistry -
 -------------------
 Temperature   298.150 Kelvin.  Pressure   1.00000 Atm.
 Atom     1 has atomic number  8 and mass  15.99491

 Molecular mass:   226.10659 amu.
 Principal axes and moments of inertia in atomic units:
                           1         2         3
     Eigenvalues --  2427.886126186.837618324.91017
           X            0.98950   0.08610   0.11608
           Y           -0.07439  -0.38523   0.91982
           Z           -0.12392   0.91879   0.37478
 This molecule is an asymmetric top.
 Rotational symmetry number  1.
 Warning -- assumption of classical behavior for rotation
           may cause significant error
 Rotational temperatures (Kelvin)      0.03567     0.01400     0.01040
 Rotational constants (GHZ):           0.74334     0.29171     0.21679
 Zero-point vibrational energy     644997.2 (Joules/Mol)
                                  154.15803 (Kcal/Mol)
 Warning -- explicit consideration of  23 degrees of freedom as
           vibrations may cause significant error
 Vibrational temperatures:     23.76    45.39    47.65    78.11    97.79
          (Kelvin)            104.40   181.17   189.54   236.58   276.41
                              358.05   391.62   439.87   473.24   476.51
                              503.90   548.17   616.22   704.13   798.18
                              809.09   861.41   883.87   915.78   962.95
                              988.38   991.29  1063.31  1108.09  1145.29
                             1169.59  1224.60  1274.85  1288.74  1339.41
                             1344.24  1389.66  1456.92  1468.15  1486.14
                             1546.70  1603.65  1624.43  1638.59  1664.23
                             1697.68  1726.73  1730.19  1784.50  1807.36
                             1837.06  1851.75  1897.21  1919.26  1970.66
                             1977.44  1999.25  2014.37  2053.81  2082.00
                             2086.55  2128.50  2154.87  2187.80  2207.07
                             2222.67  2332.80  2431.00  2536.91  2645.06
                             4287.11  4366.81  4373.84  4413.06  4424.20
                             4438.40  4515.11  4688.62  4694.65  4991.81
                             5115.54  5177.56  5254.41  5286.83

 Zero-point correction=                           0.245666 (Hartree/Particle)
 Thermal correction to Energy=                    0.261704
 Thermal correction to Enthalpy=                  0.262649
 Thermal correction to Gibbs Free Energy=         0.198818
 Sum of electronic and zero-point Energies=           -795.835683
 Sum of electronic and thermal Energies=              -795.819645
 Sum of electronic and thermal Enthalpies=            -795.818701
 Sum of electronic and thermal Free Energies=         -795.882531

                     E (Thermal)             CV                S
                      KCal/Mol        Cal/Mol-Kelvin    Cal/Mol-Kelvin
 Total                  164.222             58.213            134.342
 Electronic               0.000              0.000              0.000
 Translational            0.889              2.981             42.150
 Rotational               0.889              2.981             33.191
 Vibrational            162.445             52.252             59.001
 Vibration     1          0.593              1.986              7.014
 Vibration     2          0.594              1.983              5.730
 Vibration     3          0.594              1.983              5.633
 Vibration     4          0.596              1.976              4.655
 Vibration     5          0.598              1.969              4.211
 Vibration     6          0.599              1.967              4.083
 Vibration     7          0.611              1.927              3.007
 Vibration     8          0.612              1.922              2.920
 Vibration     9          0.623              1.886              2.498
 Vibration    10          0.634              1.851              2.207
 Vibration    11          0.662              1.765              1.739
 Vibration    12          0.675              1.725              1.582
 Vibration    13          0.696              1.663              1.385
 Vibration    14          0.712              1.618              1.265
 Vibration    15          0.714              1.613              1.254
 Vibration    16          0.727              1.575              1.165
 Vibration    17          0.751              1.511              1.035
 Vibration    18          0.790              1.409              0.864
 Vibration    19          0.845              1.274              0.685
 Vibration    20          0.910              1.129              0.534
 Vibration    21          0.918              1.113              0.519
 Vibration    22          0.957              1.035              0.452
 Vibration    23          0.974              1.002              0.426

 Optimization completed.
    -- Stationary point found.
 Normal termination of Gaussian 09 at Wed Jul 28 22:43:06 2021.
