 Gaussian 09, Revision D.01,
 Gaussian 09:  ES64L-G09RevD.01 24-Apr-2013

 ----------------------------------------------------------------------
 # B3LYP/6-31G(d) opt=calcfc freq=noraman nosymm integral(ultrafinegrid
 )
 ----------------------------------------------------------------------

 ------------------------------------------------------------
 Candidate Structure: Conf:118 OPT and FREQ calc in gas phase
 ------------------------------------------------------------
 Symbolic Z-matrix:
 Charge =  0 Multiplicity = 1

 SCF Done:  E(RB3LYP) =  -796.088346724     A.U. after   14 cycles
 SCF Done:  E(RB3LYP) =  -796.091164748     A.U. after   14 cycles
 SCF Done:  E(RB3LYP) =  -796.091786746     A.U. after   14 cycles
 SCF Done:  E(RB3LYP) =  -796.092078445     A.U. after   12 cycles
 SCF Done:  E(RB3LYP) =  -796.092146430     A.U. after   11 cycles
 SCF Done:  E(RB3LYP) =  -796.092130489     A.U. after   12 cycles
 SCF Done:  E(RB3LYP) =  -796.092165490     A.U. after   11 cycles
 SCF Done:  E(RB3LYP) =  -796.092166122     A.U. after    9 cycles
 SCF Done:  E(RB3LYP) =  -796.092166130     A.U. after    6 cycles
 Optimization completed.
    -- Stationary point found.
 Normal termination of Gaussian 09 at Wed Jul 28 22:25:30 2021.

 --------------------------------------------------------------------
 #N Geom=AllCheck Guess=TCheck SCRF=Check GenChk RB3LYP/6-31G(d) Freq
 --------------------------------------------------------------------

 Structure from the checkpoint file:  "conf-118.chk"
 ------------------------------------------------------------
 Candidate Structure: Conf:118 OPT and FREQ calc in gas phase
 ------------------------------------------------------------
 Charge =  0 Multiplicity = 1

                          Input orientation:
 ---------------------------------------------------------------------
 Center     Atomic      Atomic             Coordinates (Angstroms)
 Number     Number       Type             X           Y           Z
 ---------------------------------------------------------------------
      1          8           0       -1.024129   -1.879443    1.778570
      2          6           0       -1.046575   -1.242329    0.711663
      3          7           0        0.069913   -0.661244    0.213157
      4          6           0        1.400957   -0.853582    0.792427
      5          6           0        1.584046   -0.041131    2.100192
      6          8           0        0.752639   -0.365703    3.085469
      7          8           0        2.440785    0.810835    2.241188
      8          6           0        2.480474   -0.536050   -0.264190
      9          6           0        2.312143    0.781223   -0.956240
     10          6           0        1.932341    1.108586   -2.242218
     11          7           0        1.906512    2.473389   -2.419990
     12          6           0        2.263022    2.971942   -1.253116
     13          7           0        2.521849    1.997462   -0.336482
     14          6           0       -2.329717   -1.072623   -0.076775
     15          6           0       -3.467655   -0.485647    0.796169
     16          7           0       -4.767229   -0.375014    0.144806
     17          1           0        0.021492   -0.075616   -0.614214
     18          1           0        1.479704   -1.911639    1.075709
     19          1           0        0.102228   -1.056620    2.775303
     20          1           0        2.450711   -1.325662   -1.022472
     21          1           0        3.456196   -0.597943    0.229469
     22          1           0        1.707289    0.430899   -3.056884
     23          1           0        2.350310    4.024548   -1.018332
     24          1           0        2.747701    2.082378    0.649847
     25          1           0       -2.628010   -2.070327   -0.425108
     26          1           0       -2.170536   -0.450611   -0.966755
     27          1           0       -3.574090   -1.110370    1.687999
     28          1           0       -3.176941    0.512956    1.144340
     29          1           0       -4.704339    0.207748   -0.688421
     30          1           0       -5.090995   -1.290405   -0.163623
 ---------------------------------------------------------------------

 SCF Done:  E(RB3LYP) =  -796.092166130     A.U. after    1 cycles

 Alpha  occ. eigenvalues --  -19.18963 -19.15084 -19.14919 -14.39654 -14.38693
 Alpha  occ. eigenvalues --  -14.32726 -14.31369 -10.33219 -10.32104 -10.26730
 Alpha  occ. eigenvalues --  -10.24133 -10.22670 -10.22616 -10.22517 -10.21661
 Alpha  occ. eigenvalues --  -10.20382  -1.10741  -1.06586  -1.02463  -1.01368
 Alpha  occ. eigenvalues --   -0.95764  -0.89568  -0.87080  -0.81817  -0.77521
 Alpha  occ. eigenvalues --   -0.74244  -0.68137  -0.65175  -0.62022  -0.61792
 Alpha  occ. eigenvalues --   -0.60555  -0.59283  -0.55946  -0.54905  -0.52267
 Alpha  occ. eigenvalues --   -0.51084  -0.50370  -0.47264  -0.46134  -0.45873
 Alpha  occ. eigenvalues --   -0.44958  -0.44309  -0.43541  -0.43118  -0.42131
 Alpha  occ. eigenvalues --   -0.41035  -0.41016  -0.40593  -0.39514  -0.38704
 Alpha  occ. eigenvalues --   -0.37518  -0.36152  -0.32176  -0.31164  -0.29088
 Alpha  occ. eigenvalues --   -0.28218  -0.27329  -0.26779  -0.24635  -0.23182
 Alpha virt. eigenvalues --   -0.01673  -0.00342   0.02042   0.05271   0.06451
 Alpha virt. eigenvalues --    0.07803   0.08917   0.11456   0.11751   0.12263
 Alpha virt. eigenvalues --    0.12910   0.14092   0.14638   0.15132   0.16059

 Mulliken charges:
               1
     1  O   -0.561360
     2  C    0.625357
     3  N   -0.599135
     4  C   -0.084155
     5  C    0.630727
     6  O   -0.580807
     7  O   -0.483033
     8  C   -0.370064
     9  C    0.282158
    10  C   -0.092543
    11  N   -0.424008
    12  C    0.206898
    13  N   -0.595185
    14  C   -0.366458
    15  C   -0.144744
    16  N   -0.699676
    17  H    0.348673
    18  H    0.190602
    19  H    0.453592
    20  H    0.167379
    21  H    0.186288
    22  H    0.130006
    23  H    0.159502
    24  H    0.373071
    25  H    0.173712
    26  H    0.141857
    27  H    0.179824
    28  H    0.156133
    29  H    0.297295
    30  H    0.298096
 Sum of Mulliken charges =   0.00000

 Dipole moment (field-independent basis, Debye):
    X=             -0.7435    Y=             -2.4608    Z=             -2.3415  Tot=              3.4772
 Quadrupole moment (field-independent basis, Debye-Ang):
   XX=            -96.6997   YY=            -92.3604   ZZ=           -112.8099
   XY=             -1.3536   XZ=              8.0368   YZ=              9.0993

  Exact polarizability: 126.745  17.894 122.375   3.841 -13.163 120.657
 Approx polarizability: 165.538  23.784 190.198  11.102 -18.871 191.736

                      1                      2                      3
                      A                      A                      A
 Frequencies --     24.6312                46.6866                61.5136
 Red. masses --      4.3786                 7.3929                 2.7163
 Frc consts  --      0.0016                 0.0095                 0.0061
 IR Inten    --      0.2647                 1.6020                 4.5180

                      4                      5                      6
                      A                      A                      A
 Frequencies --     77.5707                88.0666                96.1616
 Red. masses --      3.8689                 3.4091                 4.4773
 Frc consts  --      0.0137                 0.0156                 0.0244
 IR Inten    --      6.6643                 0.2736                 4.5021

                      7                      8                      9
                      A                      A                      A
 Frequencies --    135.8203               158.6150               190.3561
 Red. masses --      8.8121                 5.4900                 4.2644
 Frc consts  --      0.0958                 0.0814                 0.0910
 IR Inten    --      8.9805                 8.0746                 8.7097

                     10                     11                     12
                      A                      A                      A
 Frequencies --    215.3310               236.8991               272.7912
 Red. masses --      4.9468                 6.9955                 6.8134
 Frc consts  --      0.1351                 0.2313                 0.2987
 IR Inten    --      6.1050                11.9161                 0.7302

                     13                     14                     15
                      A                      A                      A
 Frequencies --    302.4372               318.1609               345.9103
 Red. masses --      5.6472                 1.1102                 4.6985
 Frc consts  --      0.3043                 0.0662                 0.3312
 IR Inten    --      2.8031                49.9348                 5.0471

                     16                     17                     18
                      A                      A                      A
 Frequencies --    361.3547               382.2676               440.8374
 Red. masses --      2.5221                 3.9307                 3.5010
 Frc consts  --      0.1940                 0.3384                 0.4009
 IR Inten    --      5.9636                 5.0545                23.3333

                     19                     20                     21
                      A                      A                      A
 Frequencies --    557.7311               575.9534               607.4405
 Red. masses --      1.4297                 4.3811                 3.7701
 Frc consts  --      0.2620                 0.8563                 0.8196
 IR Inten    --     49.2923                14.3143                12.1047

                     22                     23                     24
                      A                      A                      A
 Frequencies --    628.3572               658.8755               670.4236
 Red. masses --      3.4957                 2.5301                 3.7052
 Frc consts  --      0.8132                 0.6471                 0.9812
 IR Inten    --     12.1784                 6.8000                37.0006

                     25                     26                     27
                      A                      A                      A
 Frequencies --    726.8329               740.2885               761.1068
 Red. masses --      2.6757                 1.4295                 4.5976
 Frc consts  --      0.8328                 0.4616                 1.5692
 IR Inten    --      7.5692                65.1983                 6.9988

                     28                     29                     30
                      A                      A                      A
 Frequencies --    771.8122               784.0598               819.1049
 Red. masses --      1.7167                 2.6346                 1.3844
 Frc consts  --      0.6025                 0.9542                 0.5473
 IR Inten    --     10.4844                 2.2088                18.7900

                     31                     32                     33
                      A                      A                      A
 Frequencies --    842.4147               856.8042               860.4910
 Red. masses --      1.4180                 2.0685                 1.7753
 Frc consts  --      0.5929                 0.8947                 0.7745
 IR Inten    --     53.3579               103.8796               177.8166

                     34                     35                     36
                      A                      A                      A
 Frequencies --    910.3837               936.8927               948.0564
 Red. masses --      1.1679                 5.6396                 2.5530
 Frc consts  --      0.5703                 2.9166                 1.3520
 IR Inten    --     63.1401                12.8490                 5.1446

                     37                     38                     39
                      A                      A                      A
 Frequencies --    985.7423               990.6643              1013.0281
 Red. masses --      1.4077                 4.4812                 3.8128
 Frc consts  --      0.8059                 2.5912                 2.3053
 IR Inten    --      2.7293                 3.8174                 5.8729

                     40                     41                     42
                      A                      A                      A
 Frequencies --   1022.1039              1063.3489              1100.4899
 Red. masses --      4.5149                 2.4155                 2.4036
 Frc consts  --      2.7790                 1.6092                 1.7150
 IR Inten    --     86.0939                10.1575                 4.7070

                     43                     44                     45
                      A                      A                      A
 Frequencies --   1120.9629              1129.4083              1152.1742
 Red. masses --      3.2995                 1.5992                 1.3522
 Frc consts  --      2.4427                 1.2019                 1.0576
 IR Inten    --      9.2333                57.4190                 3.0770

                     46                     47                     48
                      A                      A                      A
 Frequencies --   1156.5564              1233.7759              1253.3339
 Red. masses --      1.9912                 1.5524                 2.0629
 Frc consts  --      1.5692                 1.3923                 1.9093
 IR Inten    --      5.5620                 8.6226                23.7176

                     49                     50                     51
                      A                      A                      A
 Frequencies --   1264.4815              1277.5924              1297.7833
 Red. masses --      1.7123                 2.2109                 1.3132
 Frc consts  --      1.6131                 2.1262                 1.3032
 IR Inten    --     33.4405                 3.1633                 6.5315

                     52                     53                     54
                      A                      A                      A
 Frequencies --   1308.0575              1321.7827              1366.8803
 Red. masses --      1.3250                 1.5139                 1.6341
 Frc consts  --      1.3358                 1.5584                 1.7989
 IR Inten    --      2.5170                24.4915                 3.9591

                     55                     56                     57
                      A                      A                      A
 Frequencies --   1383.2247              1397.3145              1403.1139
 Red. masses --      1.6342                 1.4591                 1.3345
 Frc consts  --      1.8422                 1.6785                 1.5480
 IR Inten    --     10.3650                 2.9078                 9.5101

                     58                     59                     60
                      A                      A                      A
 Frequencies --   1405.6238              1410.5554              1444.0390
 Red. masses --      2.3199                 1.2680                 2.9186
 Frc consts  --      2.7006                 1.4865                 3.5858
 IR Inten    --     42.3212                21.2484                69.7768

                     61                     62                     63
                      A                      A                      A
 Frequencies --   1476.1084              1499.1496              1500.2555
 Red. masses --      1.4544                 1.1333                 1.1118
 Frc consts  --      1.8671                 1.5006                 1.4743
 IR Inten    --    248.0884                23.8169                 2.4414

                     64                     65                     66
                      A                      A                      A
 Frequencies --   1520.6108              1525.7660              1552.2574
 Red. masses --      3.4166                 1.0907                 2.3812
 Frc consts  --      4.6546                 1.4960                 3.3804
 IR Inten    --     18.2563                 5.0579               447.3996

                     67                     68                     69
                      A                      A                      A
 Frequencies --   1615.0374              1700.1885              1706.8995
 Red. masses --      4.3167                 1.3023                 3.6073
 Frc consts  --      6.6339                 2.2179                 6.1923
 IR Inten    --     14.2487                96.6440               122.3631

                     70                     71                     72
                      A                      A                      A
 Frequencies --   1832.9695              3043.2325              3050.1308
 Red. masses --      8.1526                 1.0590                 1.0826
 Frc consts  --     16.1382                 5.7785                 5.9341
 IR Inten    --    313.8118                 7.4196                 4.9474

                     73                     74                     75
                      A                      A                      A
 Frequencies --   3063.4846              3073.7280              3085.4981
 Red. masses --      1.0672                 1.0614                 1.1008
 Frc consts  --      5.9008                 5.9085                 6.1748
 IR Inten    --     27.9777                19.9585                10.1457

                     76                     77                     78
                      A                      A                      A
 Frequencies --   3114.9501              3124.4561              3229.8307
 Red. masses --      1.1045                 1.1031                 1.0730
 Frc consts  --      6.3142                 6.3450                 6.5952
 IR Inten    --      5.8779                19.5623               630.7972

                     79                     80                     81
                      A                      A                      A
 Frequencies --   3245.1459              3268.5668              3467.2250
 Red. masses --      1.0957                 1.0969                 1.0489
 Frc consts  --      6.7987                 6.9045                 7.4296
 IR Inten    --     10.4050                 2.5310                 0.5346

                     82                     83                     84
                      A                      A                      A
 Frequencies --   3553.4680              3558.1856              3574.4020
 Red. masses --      1.0932                 1.0787                 1.0825
 Frc consts  --      8.1332                 8.0467                 8.1485
 IR Inten    --      0.0993               106.4030               193.6905

 - Thermochemistry -
 -------------------
 Temperature   298.150 Kelvin.  Pressure   1.00000 Atm.
 Atom     1 has atomic number  8 and mass  15.99491

 Molecular mass:   226.10659 amu.
 Principal axes and moments of inertia in atomic units:
                           1         2         3
     Eigenvalues --  2624.543315599.116317119.23784
           X            0.87287   0.41587  -0.25524
           Y            0.41498  -0.35751   0.83665
           Z           -0.25668   0.83620   0.48464
 This molecule is an asymmetric top.
 Rotational symmetry number  1.
 Warning -- assumption of classical behavior for rotation
           may cause significant error
 Rotational temperatures (Kelvin)      0.03300     0.01547     0.01217
 Rotational constants (GHZ):           0.68764     0.32233     0.25350
 Zero-point vibrational energy     647754.1 (Joules/Mol)
                                  154.81694 (Kcal/Mol)
 Warning -- explicit consideration of  21 degrees of freedom as
           vibrations may cause significant error
 Vibrational temperatures:     35.44    67.17    88.50   111.61   126.71
          (Kelvin)            138.35   195.41   228.21   273.88   309.81
                              340.84   392.49   435.14   457.76   497.69
                              519.91   550.00   634.27   802.45   828.67
                              873.97   904.06   947.97   964.59  1045.75
                             1065.11  1095.06  1110.46  1128.09  1178.51
                             1212.05  1232.75  1238.05  1309.84  1347.98
                             1364.04  1418.26  1425.34  1457.52  1470.58
                             1529.92  1583.36  1612.81  1624.96  1657.72
                             1664.02  1775.13  1803.27  1819.30  1838.17
                             1867.22  1882.00  1901.75  1966.63  1990.15
                             2010.42  2018.77  2022.38  2029.47  2077.65
                             2123.79  2156.94  2158.53  2187.82  2195.23
                             2233.35  2323.68  2446.19  2455.84  2637.23
                             4378.53  4388.45  4407.67  4422.40  4439.34
                             4481.71  4495.39  4647.00  4669.04  4702.73
                             4988.56  5112.64  5119.43  5142.76

 Zero-point correction=                           0.246716 (Hartree/Particle)
 Thermal correction to Energy=                    0.262112
 Thermal correction to Enthalpy=                  0.263057
 Thermal correction to Gibbs Free Energy=         0.202304
 Sum of electronic and zero-point Energies=           -795.845450
 Sum of electronic and thermal Energies=              -795.830054
 Sum of electronic and thermal Enthalpies=            -795.829109
 Sum of electronic and thermal Free Energies=         -795.889862

                     E (Thermal)             CV                S
                      KCal/Mol        Cal/Mol-Kelvin    Cal/Mol-Kelvin
 Total                  164.478             56.917            127.865
 Electronic               0.000              0.000              0.000
 Translational            0.889              2.981             42.150
 Rotational               0.889              2.981             33.014
 Vibrational            162.701             50.956             52.701
 Vibration     1          0.593              1.985              6.221
 Vibration     2          0.595              1.979              4.953
 Vibration     3          0.597              1.973              4.408
 Vibration     4          0.599              1.964              3.951
 Vibration     5          0.601              1.958              3.703
 Vibration     6          0.603              1.952              3.531
 Vibration     7          0.614              1.918              2.862
 Vibration     8          0.621              1.893              2.566
 Vibration     9          0.634              1.853              2.224
 Vibration    10          0.645              1.818              1.998
 Vibration    11          0.656              1.784              1.826
 Vibration    12          0.676              1.723              1.578
 Vibration    13          0.694              1.669              1.403
 Vibration    14          0.705              1.639              1.320
 Vibration    15          0.724              1.584              1.185
 Vibration    16          0.736              1.552              1.116
 Vibration    17          0.752              1.508              1.030
 Vibration    18          0.801              1.381              0.824
 Vibration    19          0.913              1.123              0.528
 Vibration    20          0.932              1.083              0.493
 Vibration    21          0.966              1.016              0.437

 Optimization completed.
    -- Stationary point found.
 Normal termination of Gaussian 09 at Wed Jul 28 22:41:19 2021.
