 Gaussian 09, Revision D.01,
 Gaussian 09:  ES64L-G09RevD.01 24-Apr-2013

 ----------------------------------------------------------------------
 # B3LYP/6-31G(d) opt=calcfc freq=noraman nosymm integral(ultrafinegrid
 )
 ----------------------------------------------------------------------

 ------------------------------------------------------------
 Candidate Structure: Conf:422 OPT and FREQ calc in gas phase
 ------------------------------------------------------------
 Symbolic Z-matrix:
 Charge =  0 Multiplicity = 1

 SCF Done:  E(RB3LYP) =  -796.074077498     A.U. after   14 cycles
 SCF Done:  E(RB3LYP) =  -796.076083024     A.U. after   12 cycles
 SCF Done:  E(RB3LYP) =  -796.076229800     A.U. after   12 cycles
 SCF Done:  E(RB3LYP) =  -796.076233089     A.U. after   10 cycles
 SCF Done:  E(RB3LYP) =  -796.076233536     A.U. after    9 cycles
 SCF Done:  E(RB3LYP) =  -796.076233579     A.U. after    8 cycles
 Optimization completed.
    -- Stationary point found.
 Normal termination of Gaussian 09 at Wed Jul 28 22:20:28 2021.

 --------------------------------------------------------------------
 #N Geom=AllCheck Guess=TCheck SCRF=Check GenChk RB3LYP/6-31G(d) Freq
 --------------------------------------------------------------------

 Structure from the checkpoint file:  "conf-422.chk"
 ------------------------------------------------------------
 Candidate Structure: Conf:422 OPT and FREQ calc in gas phase
 ------------------------------------------------------------
 Charge =  0 Multiplicity = 1

                          Input orientation:
 ---------------------------------------------------------------------
 Center     Atomic      Atomic             Coordinates (Angstroms)
 Number     Number       Type             X           Y           Z
 ---------------------------------------------------------------------
      1          8           0        0.787679    0.688524    1.517032
      2          6           0        1.135478    0.096931    0.500509
      3          7           0        0.310242   -0.782526   -0.158853
      4          6           0       -0.952380   -1.212033    0.403084
      5          6           0       -0.905702   -2.721573    0.627815
      6          8           0       -1.899416   -3.141503    1.439895
      7          8           0       -0.103655   -3.472948    0.117391
      8          6           0       -2.174077   -0.876842   -0.490303
      9          6           0       -2.411394    0.592042   -0.670895
     10          6           0       -1.982707    1.723599   -0.015223
     11          7           0       -2.548735    2.857934   -0.561790
     12          6           0       -3.315192    2.427546   -1.536552
     13          7           0       -3.270502    1.064845   -1.651086
     14          6           0        2.488067    0.327156   -0.161516
     15          6           0        3.547771    0.800032    0.835300
     16          7           0        4.785667    1.137077    0.123738
     17          1           0        0.722591   -1.405121   -0.842105
     18          1           0       -1.060710   -0.712197    1.369822
     19          1           0       -1.814499   -4.111925    1.505752
     20          1           0       -3.054941   -1.356710   -0.041768
     21          1           0       -2.024131   -1.358120   -1.468651
     22          1           0       -1.279956    1.784621    0.804369
     23          1           0       -3.919077    3.042290   -2.191258
     24          1           0       -3.774607    0.502732   -2.321914
     25          1           0        2.820588   -0.583937   -0.678867
     26          1           0        2.367341    1.096413   -0.935476
     27          1           0        3.669856    0.038192    1.625040
     28          1           0        3.174577    1.700983    1.329861
     29          1           0        5.239227    0.284615   -0.204021
     30          1           0        5.442620    1.569813    0.770667
 ---------------------------------------------------------------------

 SCF Done:  E(RB3LYP) =  -796.076233579     A.U. after    1 cycles

 Alpha  occ. eigenvalues --  -19.21766 -19.16137 -19.11683 -14.38596 -14.36416
 Alpha  occ. eigenvalues --  -14.31117 -14.30099 -10.33981 -10.29042 -10.25296
 Alpha  occ. eigenvalues --  -10.23119 -10.21876 -10.21558 -10.20533 -10.19215
 Alpha  occ. eigenvalues --  -10.18293  -1.12670  -1.03894  -1.03363  -1.00445
 Alpha  occ. eigenvalues --   -0.93179  -0.87761  -0.86164  -0.80799  -0.75689
 Alpha  occ. eigenvalues --   -0.73408  -0.67874  -0.64365  -0.60838  -0.60477
 Alpha  occ. eigenvalues --   -0.58836  -0.57467  -0.54075  -0.51761  -0.50728
 Alpha  occ. eigenvalues --   -0.49624  -0.47992  -0.47904  -0.46947  -0.45124
 Alpha  occ. eigenvalues --   -0.44362  -0.43537  -0.42660  -0.41665  -0.41026
 Alpha  occ. eigenvalues --   -0.40237  -0.39502  -0.39218  -0.38111  -0.37555
 Alpha  occ. eigenvalues --   -0.35209  -0.34223  -0.33880  -0.29824  -0.27065
 Alpha  occ. eigenvalues --   -0.26402  -0.25577  -0.25269  -0.23332  -0.21529
 Alpha virt. eigenvalues --   -0.01054   0.02030   0.03412   0.05738   0.07208
 Alpha virt. eigenvalues --    0.07820   0.08113   0.08646   0.11425   0.13295
 Alpha virt. eigenvalues --    0.14127   0.14395   0.14829   0.15984   0.16760

 Mulliken charges:
               1
     1  O   -0.520364
     2  C    0.627006
     3  N   -0.589476
     4  C   -0.056908
     5  C    0.578598
     6  O   -0.559508
     7  O   -0.465213
     8  C   -0.358786
     9  C    0.333872
    10  C   -0.096764
    11  N   -0.429555
    12  C    0.207202
    13  N   -0.613954
    14  C   -0.357279
    15  C   -0.137745
    16  N   -0.719418
    17  H    0.334801
    18  H    0.215921
    19  H    0.416221
    20  H    0.178324
    21  H    0.146065
    22  H    0.172980
    23  H    0.151403
    24  H    0.325821
    25  H    0.134541
    26  H    0.194111
    27  H    0.123206
    28  H    0.173889
    29  H    0.290656
    30  H    0.300354
 Sum of Mulliken charges =   0.00000

 Dipole moment (field-independent basis, Debye):
    X=             -1.1063    Y=             -5.3005    Z=             -2.3711  Tot=              5.9111
 Quadrupole moment (field-independent basis, Debye-Ang):
   XX=            -73.2626   YY=           -101.1125   ZZ=            -88.2557
   XY=              7.6619   XZ=             12.4908   YZ=             -4.1845

  Exact polarizability: 131.087   0.793 134.898  12.101  -1.585 100.238
 Approx polarizability: 167.437  -0.423 199.684  11.634  19.295 168.710

                      1                      2                      3
                      A                      A                      A
 Frequencies --     20.6458                34.0158                48.1520
 Red. masses --      3.8695                 2.6432                 9.4003
 Frc consts  --      0.0010                 0.0018                 0.0128
 IR Inten    --      1.2150                 2.6915                 2.1475

                      4                      5                      6
                      A                      A                      A
 Frequencies --     50.7411                63.8469                75.1499
 Red. masses --      4.0215                 3.4798                 7.5916
 Frc consts  --      0.0061                 0.0084                 0.0253
 IR Inten    --      2.6055                 5.7276                 6.4850

                      7                      8                      9
                      A                      A                      A
 Frequencies --     92.7507               101.8279               137.3585
 Red. masses --      5.3750                 3.6258                 3.9698
 Frc consts  --      0.0272                 0.0222                 0.0441
 IR Inten    --      0.7105                 4.0842                 3.6483

                     10                     11                     12
                      A                      A                      A
 Frequencies --    180.0823               222.5761               244.7590
 Red. masses --      6.4924                 3.9361                 3.5623
 Frc consts  --      0.1240                 0.1149                 0.1257
 IR Inten    --      2.2404                10.6316                 2.4557

                     13                     14                     15
                      A                      A                      A
 Frequencies --    266.1000               281.3596               310.3068
 Red. masses --      1.3335                 2.9298                 4.4628
 Frc consts  --      0.0556                 0.1367                 0.2532
 IR Inten    --     54.2175                 3.6817                 6.8098

                     16                     17                     18
                      A                      A                      A
 Frequencies --    350.0534               397.8187               446.0802
 Red. masses --      4.6240                 3.9458                 3.4718
 Frc consts  --      0.3338                 0.3679                 0.4070
 IR Inten    --      3.3211                15.1053                16.2023

                     19                     20                     21
                      A                      A                      A
 Frequencies --    481.9320               506.3384               531.3324
 Red. masses --      1.4458                 1.5425                 3.1817
 Frc consts  --      0.1978                 0.2330                 0.5292
 IR Inten    --     78.2201                81.7304                12.9067

                     22                     23                     24
                      A                      A                      A
 Frequencies --    608.5421               617.9442               647.4174
 Red. masses --      1.5307                 2.3049                 3.3893
 Frc consts  --      0.3340                 0.5186                 0.8370
 IR Inten    --     79.2306                 8.7016                54.2825

                     25                     26                     27
                      A                      A                      A
 Frequencies --    651.3312               680.7134               699.0204
 Red. masses --      3.1276                 3.4681                 2.7571
 Frc consts  --      0.7818                 0.9468                 0.7937
 IR Inten    --     21.6875                 5.1084                37.3735

                     28                     29                     30
                      A                      A                      A
 Frequencies --    732.7231               783.3080               789.5758
 Red. masses --      4.4995                 4.1106                 1.3599
 Frc consts  --      1.4233                 1.4860                 0.4995
 IR Inten    --     10.2188                22.9282                13.3177

                     31                     32                     33
                      A                      A                      A
 Frequencies --    806.7755               880.0271               883.5175
 Red. masses --      1.3239                 1.3995                 1.3643
 Frc consts  --      0.5077                 0.6386                 0.6275
 IR Inten    --     12.1694                11.7813               136.1086

                     34                     35                     36
                      A                      A                      A
 Frequencies --    906.4831               921.8569               934.2822
 Red. masses --      1.8731                 3.8681                 5.7166
 Frc consts  --      0.9069                 1.9368                 2.9400
 IR Inten    --     10.1572                14.5665                 9.4540

                     37                     38                     39
                      A                      A                      A
 Frequencies --    983.7807              1003.7743              1028.3172
 Red. masses --      2.8345                 2.5024                 3.7847
 Frc consts  --      1.6163                 1.4855                 2.3580
 IR Inten    --      7.1547                10.2868                10.0183

                     40                     41                     42
                      A                      A                      A
 Frequencies --   1067.7369              1072.4879              1109.4971
 Red. masses --      3.0807                 2.8746                 1.9218
 Frc consts  --      2.0693                 1.9481                 1.3938
 IR Inten    --     15.3013                18.4215                25.8085

                     43                     44                     45
                      A                      A                      A
 Frequencies --   1120.8980              1130.1709              1152.7104
 Red. masses --      1.6470                 2.5078                 2.3201
 Frc consts  --      1.2192                 1.8872                 1.8163
 IR Inten    --     15.3908                56.6815                20.9265

                     46                     47                     48
                      A                      A                      A
 Frequencies --   1171.2656              1189.6185              1215.0639
 Red. masses --      1.5761                 2.0865                 1.9706
 Frc consts  --      1.2739                 1.7398                 1.7141
 IR Inten    --     90.8598               101.9199                45.5215

                     49                     50                     51
                      A                      A                      A
 Frequencies --   1238.0044              1265.4192              1280.4894
 Red. masses --      1.6723                 1.3893                 1.4303
 Frc consts  --      1.5101                 1.3107                 1.3818
 IR Inten    --     38.5945                30.3662                13.4710

                     52                     53                     54
                      A                      A                      A
 Frequencies --   1294.3498              1304.3240              1350.8814
 Red. masses --      1.3261                 1.4681                 1.1198
 Frc consts  --      1.3089                 1.4715                 1.2040
 IR Inten    --     22.9322                 4.2560                 3.7212

                     55                     56                     57
                      A                      A                      A
 Frequencies --   1355.0496              1367.7973              1386.6775
 Red. masses --      1.5249                 1.7172                 1.6270
 Frc consts  --      1.6497                 1.8928                 1.8433
 IR Inten    --      1.2313                 3.0506                10.4999

                     58                     59                     60
                      A                      A                      A
 Frequencies --   1410.3727              1423.1326              1444.2585
 Red. masses --      2.3999                 2.1267                 2.8552
 Frc consts  --      2.8126                 2.5377                 3.5090
 IR Inten    --    107.3029                36.8121                18.2300

                     61                     62                     63
                      A                      A                      A
 Frequencies --   1448.9529              1496.2893              1510.1770
 Red. masses --      1.5334                 1.0899                 1.6119
 Frc consts  --      1.8967                 1.4377                 2.1659
 IR Inten    --     38.8447                 7.4202                26.7493

                     64                     65                     66
                      A                      A                      A
 Frequencies --   1525.0800              1541.9177              1552.5530
 Red. masses --      1.9881                 1.0853                 1.7990
 Frc consts  --      2.7244                 1.5203                 2.5549
 IR Inten    --      8.3217                 1.2146               238.4420

                     67                     68                     69
                      A                      A                      A
 Frequencies --   1624.3082              1700.0603              1772.1849
 Red. masses --      4.1464                 1.0893                 8.9972
 Frc consts  --      6.4455                 1.8549                16.6485
 IR Inten    --     15.9702                22.1196               176.7677

                     70                     71                     72
                      A                      A                      A
 Frequencies --   1841.3569              2971.7393              3014.9376
 Red. masses --      9.8936                 1.0746                 1.0631
 Frc consts  --     19.7642                 5.5913                 5.6934
 IR Inten    --    237.3416                72.4407                34.2731

                     73                     74                     75
                      A                      A                      A
 Frequencies --   3034.8043              3052.9584              3079.8755
 Red. masses --      1.0638                 1.0978                 1.0963
 Frc consts  --      5.7726                 6.0287                 6.1268
 IR Inten    --     20.2629                16.2141                 9.2323

                     76                     77                     78
                      A                      A                      A
 Frequencies --   3116.3110              3119.9030              3262.5172
 Red. masses --      1.0840                 1.0902                 1.0958
 Frc consts  --      6.2021                 6.2521                 6.8719
 IR Inten    --      9.7144                17.3608                 4.9026

                     79                     80                     81
                      A                      A                      A
 Frequencies --   3274.6074              3460.9850              3546.4652
 Red. masses --      1.0981                 1.0504                 1.0916
 Frc consts  --      6.9378                 7.4134                 8.0895
 IR Inten    --      1.5609                 2.8236                 0.4806

                     82                     83                     84
                      A                      A                      A
 Frequencies --   3604.0069              3640.8355              3678.1166
 Red. masses --      1.0766                 1.0807                 1.0641
 Frc consts  --      8.2388                 8.4401                 8.4816
 IR Inten    --     31.7656                34.6984                57.9004

 - Thermochemistry -
 -------------------
 Temperature   298.150 Kelvin.  Pressure   1.00000 Atm.
 Atom     1 has atomic number  8 and mass  15.99491

 Molecular mass:   226.10659 amu.
 Principal axes and moments of inertia in atomic units:
                           1         2         3
     Eigenvalues --  3349.673075241.423817835.76272
           X            0.97769   0.11275  -0.17723
           Y           -0.06763   0.96776   0.24263
           Z            0.19888  -0.22523   0.95379
 This molecule is an asymmetric top.
 Rotational symmetry number  1.
 Warning -- assumption of classical behavior for rotation
           may cause significant error
 Rotational temperatures (Kelvin)      0.02586     0.01652     0.01105
 Rotational constants (GHZ):           0.53878     0.34432     0.23032
 Zero-point vibrational energy     643733.1 (Joules/Mol)
                                  153.85590 (Kcal/Mol)
 Warning -- explicit consideration of  23 degrees of freedom as
           vibrations may cause significant error
 Vibrational temperatures:     29.70    48.94    69.28    73.00    91.86
          (Kelvin)            108.12   133.45   146.51   197.63   259.10
                              320.24   352.15   382.86   404.81   446.46
                              503.65   572.37   641.81   693.39   728.51
                              764.47   875.56   889.08   931.49   937.12
                              979.39  1005.73  1054.22  1127.00  1136.02
                             1160.77  1266.16  1271.18  1304.23  1326.34
                             1344.22  1415.44  1444.21  1479.52  1536.23
                             1543.07  1596.32  1612.72  1626.06  1658.49
                             1685.19  1711.59  1748.20  1781.21  1820.65
                             1842.34  1862.28  1876.63  1943.61  1949.61
                             1967.95  1995.12  2029.21  2047.57  2077.96
                             2084.72  2152.82  2172.81  2194.25  2218.47
                             2233.77  2337.01  2446.00  2549.78  2649.30
                             4275.66  4337.82  4366.40  4392.52  4431.25
                             4483.67  4488.84  4694.03  4711.42  4979.58
                             5102.57  5185.36  5238.34  5291.98

 Zero-point correction=                           0.245185 (Hartree/Particle)
 Thermal correction to Energy=                    0.261593
 Thermal correction to Enthalpy=                  0.262537
 Thermal correction to Gibbs Free Energy=         0.197985
 Sum of electronic and zero-point Energies=           -795.831049
 Sum of electronic and thermal Energies=              -795.814641
 Sum of electronic and thermal Enthalpies=            -795.813697
 Sum of electronic and thermal Free Energies=         -795.878249

                     E (Thermal)             CV                S
                      KCal/Mol        Cal/Mol-Kelvin    Cal/Mol-Kelvin
 Total                  164.152             58.622            135.861
 Electronic               0.000              0.000              0.000
 Translational            0.889              2.981             42.150
 Rotational               0.889              2.981             33.286
 Vibrational            162.374             52.660             60.425
 Vibration     1          0.593              1.986              6.571
 Vibration     2          0.594              1.983              5.580
 Vibration     3          0.595              1.978              4.892
 Vibration     4          0.595              1.977              4.788
 Vibration     5          0.597              1.972              4.335
 Vibration     6          0.599              1.966              4.014
 Vibration     7          0.602              1.954              3.601
 Vibration     8          0.604              1.948              3.419
 Vibration     9          0.614              1.916              2.840
 Vibration    10          0.629              1.867              2.328
 Vibration    11          0.648              1.807              1.938
 Vibration    12          0.660              1.771              1.768
 Vibration    13          0.672              1.735              1.621
 Vibration    14          0.681              1.708              1.525
 Vibration    15          0.699              1.654              1.361
 Vibration    16          0.727              1.575              1.166
 Vibration    17          0.764              1.475              0.971
 Vibration    18          0.805              1.370              0.808
 Vibration    19          0.838              1.290              0.705
 Vibration    20          0.862              1.236              0.642
 Vibration    21          0.886              1.181              0.584
 Vibration    22          0.967              1.014              0.435
 Vibration    23          0.978              0.994              0.420

 Optimization completed.
    -- Stationary point found.
 Normal termination of Gaussian 09 at Wed Jul 28 22:35:30 2021.
