 Gaussian 09, Revision D.01,
 Gaussian 09:  ES64L-G09RevD.01 24-Apr-2013

 ----------------------------------------------------------------------
 # B3LYP/6-31G(d) opt=calcfc freq=noraman nosymm integral(ultrafinegrid
 )
 ----------------------------------------------------------------------

 ------------------------------------------------------------
 Candidate Structure: Conf:338 OPT and FREQ calc in gas phase
 ------------------------------------------------------------
 Symbolic Z-matrix:
 Charge =  0 Multiplicity = 1

 SCF Done:  E(RB3LYP) =  -796.082860223     A.U. after   14 cycles
 SCF Done:  E(RB3LYP) =  -796.085238140     A.U. after   13 cycles
 SCF Done:  E(RB3LYP) =  -796.085496238     A.U. after   13 cycles
 SCF Done:  E(RB3LYP) =  -796.085641318     A.U. after   12 cycles
 SCF Done:  E(RB3LYP) =  -796.085794158     A.U. after   12 cycles
 SCF Done:  E(RB3LYP) =  -796.085559977     A.U. after   13 cycles
 SCF Done:  E(RB3LYP) =  -796.085831790     A.U. after   10 cycles
 SCF Done:  E(RB3LYP) =  -796.087622497     A.U. after   15 cycles
 SCF Done:  E(RB3LYP) =  -796.087577440     A.U. after   13 cycles
 SCF Done:  E(RB3LYP) =  -796.088917969     A.U. after   10 cycles
 SCF Done:  E(RB3LYP) =  -796.090503780     A.U. after   12 cycles
 SCF Done:  E(RB3LYP) =  -796.091184544     A.U. after   11 cycles
 SCF Done:  E(RB3LYP) =  -796.091372700     A.U. after   12 cycles
 SCF Done:  E(RB3LYP) =  -796.091417250     A.U. after   12 cycles
 SCF Done:  E(RB3LYP) =  -796.091468067     A.U. after   11 cycles
 SCF Done:  E(RB3LYP) =  -796.091478563     A.U. after   10 cycles
 SCF Done:  E(RB3LYP) =  -796.091481653     A.U. after   10 cycles
 SCF Done:  E(RB3LYP) =  -796.091481986     A.U. after    8 cycles
 SCF Done:  E(RB3LYP) =  -796.091482039     A.U. after    7 cycles
 Optimization completed.
    -- Stationary point found.
 Normal termination of Gaussian 09 at Wed Jul 28 22:42:08 2021.

 --------------------------------------------------------------------
 #N Geom=AllCheck Guess=TCheck SCRF=Check GenChk RB3LYP/6-31G(d) Freq
 --------------------------------------------------------------------

 Structure from the checkpoint file:  "conf-338.chk"
 ------------------------------------------------------------
 Candidate Structure: Conf:338 OPT and FREQ calc in gas phase
 ------------------------------------------------------------
 Charge =  0 Multiplicity = 1

                          Input orientation:
 ---------------------------------------------------------------------
 Center     Atomic      Atomic             Coordinates (Angstroms)
 Number     Number       Type             X           Y           Z
 ---------------------------------------------------------------------
      1          8           0        0.569599    0.477172    1.792552
      2          6           0        1.278875    0.039894    0.877576
      3          7           0        0.788341   -0.570714   -0.224676
      4          6           0       -0.629665   -0.810340   -0.413369
      5          6           0       -0.779828   -1.945180   -1.413149
      6          8           0       -2.053250   -2.390147   -1.458395
      7          8           0        0.105466   -2.394142   -2.108418
      8          6           0       -1.433241    0.461111   -0.898820
      9          6           0       -2.455728    0.951360    0.073588
     10          6           0       -3.799654    1.227518   -0.046068
     11          7           0       -4.317577    1.690987    1.141977
     12          6           0       -3.296013    1.690938    1.976261
     13          7           0       -2.147095    1.259943    1.384156
     14          6           0        2.802925    0.140079    0.972336
     15          6           0        3.559032    0.389203   -0.340895
     16          7           0        3.421314   -0.753410   -1.256949
     17          1           0        1.458655   -0.921059   -0.919841
     18          1           0       -1.062468   -1.140910    0.536234
     19          1           0       -2.078899   -3.089554   -2.138419
     20          1           0       -1.943250    0.248177   -1.843428
     21          1           0       -0.684782    1.234127   -1.114794
     22          1           0       -4.420390    1.118093   -0.926567
     23          1           0       -3.332681    1.990198    3.015608
     24          1           0       -1.222417    1.111978    1.792419
     25          1           0        3.011427    0.946398    1.680917
     26          1           0        3.172547   -0.785642    1.437877
     27          1           0        3.137054    1.267461   -0.843400
     28          1           0        4.606205    0.633581   -0.100130
     29          1           0        3.955295   -1.551000   -0.914631
     30          1           0        3.790138   -0.526076   -2.177769
 ---------------------------------------------------------------------

 SCF Done:  E(RB3LYP) =  -796.091482039     A.U. after    1 cycles

 Alpha  occ. eigenvalues --  -19.21174 -19.15681 -19.12316 -14.35882 -14.35741
 Alpha  occ. eigenvalues --  -14.34665 -14.28731 -10.33654 -10.29583 -10.25016
 Alpha  occ. eigenvalues --  -10.23709 -10.21450 -10.20685 -10.20628 -10.19814
 Alpha  occ. eigenvalues --  -10.17481  -1.12214  -1.03926  -1.03163  -0.98610
 Alpha  occ. eigenvalues --   -0.93160  -0.90768  -0.84399  -0.79873  -0.76636
 Alpha  occ. eigenvalues --   -0.72990  -0.66911  -0.65327  -0.61950  -0.58682
 Alpha  occ. eigenvalues --   -0.58181  -0.56378  -0.53489  -0.52449  -0.51701
 Alpha  occ. eigenvalues --   -0.49882  -0.48482  -0.47099  -0.46776  -0.46469
 Alpha  occ. eigenvalues --   -0.45054  -0.43258  -0.41829  -0.41616  -0.40831
 Alpha  occ. eigenvalues --   -0.40182  -0.38918  -0.38432  -0.38202  -0.37839
 Alpha  occ. eigenvalues --   -0.37519  -0.35421  -0.33383  -0.29429  -0.27158
 Alpha  occ. eigenvalues --   -0.26549  -0.25983  -0.25336  -0.24186  -0.20184
 Alpha virt. eigenvalues --   -0.00730   0.01678   0.04817   0.05841   0.06321
 Alpha virt. eigenvalues --    0.08852   0.10727   0.11095   0.11592   0.12567
 Alpha virt. eigenvalues --    0.13055   0.14622   0.15119   0.16106   0.16571

 Mulliken charges:
               1
     1  O   -0.550867
     2  C    0.596220
     3  N   -0.623958
     4  C   -0.008687
     5  C    0.551911
     6  O   -0.557388
     7  O   -0.462290
     8  C   -0.358893
     9  C    0.307494
    10  C   -0.082987
    11  N   -0.434162
    12  C    0.199539
    13  N   -0.616512
    14  C   -0.354832
    15  C   -0.154029
    16  N   -0.736175
    17  H    0.405472
    18  H    0.201970
    19  H    0.416046
    20  H    0.172018
    21  H    0.169345
    22  H    0.119393
    23  H    0.145768
    24  H    0.382765
    25  H    0.176591
    26  H    0.166136
    27  H    0.159797
    28  H    0.139587
    29  H    0.312082
    30  H    0.318647
 Sum of Mulliken charges =   0.00000

 Dipole moment (field-independent basis, Debye):
    X=              6.9087    Y=             -2.3419    Z=             -2.6783  Tot=              7.7710
 Quadrupole moment (field-independent basis, Debye-Ang):
   XX=            -97.2847   YY=            -92.5843   ZZ=            -90.1910
   XY=             11.0088   XZ=              5.7468   YZ=             -0.7345

  Exact polarizability: 154.208 -11.689  96.900  -6.074  25.013 121.747
 Approx polarizability: 210.159 -16.923 138.949  -9.436  34.337 193.260

                      1                      2                      3
                      A                      A                      A
 Frequencies --     20.5134                47.5535                54.9656
 Red. masses --      5.1490                 6.6060                 6.9103
 Frc consts  --      0.0013                 0.0088                 0.0123
 IR Inten    --      0.4981                 2.1410                 2.3584

                      4                      5                      6
                      A                      A                      A
 Frequencies --     73.2338                79.7534               100.5776
 Red. masses --      3.4417                 4.7962                 4.4470
 Frc consts  --      0.0109                 0.0180                 0.0265
 IR Inten    --      0.3935                 0.7087                 6.4250

                      7                      8                      9
                      A                      A                      A
 Frequencies --    115.4345               131.3758               184.5179
 Red. masses --      6.1196                 6.1940                 2.6593
 Frc consts  --      0.0480                 0.0630                 0.0533
 IR Inten    --      4.7065                 4.6320                 4.7719

                     10                     11                     12
                      A                      A                      A
 Frequencies --    196.0710               239.3290               282.2041
 Red. masses --      4.9213                 3.8336                 3.3333
 Frc consts  --      0.1115                 0.1294                 0.1564
 IR Inten    --      3.0831                 5.2816                 3.3403

                     13                     14                     15
                      A                      A                      A
 Frequencies --    302.4543               313.0186               329.6389
 Red. masses --      4.5912                 1.2988                 4.3733
 Frc consts  --      0.2475                 0.0750                 0.2800
 IR Inten    --      0.8026                17.5582                 0.8829

                     16                     17                     18
                      A                      A                      A
 Frequencies --    356.2372               418.6617               466.4199
 Red. masses --      3.8756                 3.4744                 2.5977
 Frc consts  --      0.2898                 0.3588                 0.3330
 IR Inten    --      5.9542                 8.0409                26.5598

                     19                     20                     21
                      A                      A                      A
 Frequencies --    516.8765               597.3787               610.8886
 Red. masses --      3.1958                 1.9105                 3.0979
 Frc consts  --      0.5030                 0.4017                 0.6811
 IR Inten    --     39.1158                70.1506                 6.0766

                     22                     23                     24
                      A                      A                      A
 Frequencies --    637.0380               645.6628               676.7409
 Red. masses --      3.1628                 3.5019                 3.9275
 Frc consts  --      0.7562                 0.8601                 1.0598
 IR Inten    --     36.5862                 6.4402                42.0963

                     25                     26                     27
                      A                      A                      A
 Frequencies --    696.8530               718.5551               770.7888
 Red. masses --      3.5121                 3.0573                 3.9699
 Frc consts  --      1.0048                 0.9301                 1.3896
 IR Inten    --     22.5981                25.0710                 5.2122

                     28                     29                     30
                      A                      A                      A
 Frequencies --    785.0669               805.2669               824.4974
 Red. masses --      1.0882                 1.4247                 1.2720
 Frc consts  --      0.3952                 0.5443                 0.5095
 IR Inten    --     30.1014                27.2976                38.9640

                     31                     32                     33
                      A                      A                      A
 Frequencies --    839.8827               859.6886               869.0944
 Red. masses --      1.3164                 2.5626                 1.3726
 Frc consts  --      0.5471                 1.1159                 0.6109
 IR Inten    --     35.8225                 6.3416                93.3967

                     34                     35                     36
                      A                      A                      A
 Frequencies --    905.9634               927.7840               939.0740
 Red. masses --      2.4798                 1.8556                 6.0083
 Frc consts  --      1.1992                 0.9411                 3.1218
 IR Inten    --     12.7690                25.1433                22.0682

                     37                     38                     39
                      A                      A                      A
 Frequencies --    970.4043               992.1773              1019.2239
 Red. masses --      2.8721                 2.8955                 2.0908
 Frc consts  --      1.5935                 1.6794                 1.2797
 IR Inten    --     17.1867                 6.0035                 1.6760

                     40                     41                     42
                      A                      A                      A
 Frequencies --   1026.3988              1036.4223              1095.8272
 Red. masses --      3.7519                 2.1850                 2.5496
 Frc consts  --      2.3288                 1.3828                 1.8039
 IR Inten    --      0.7450                46.3059                 4.7109

                     43                     44                     45
                      A                      A                      A
 Frequencies --   1138.3207              1147.2519              1163.6004
 Red. masses --      3.0207                 2.0328                 1.7129
 Frc consts  --      2.3062                 1.5764                 1.3664
 IR Inten    --     33.8609                49.9023                14.6083

                     46                     47                     48
                      A                      A                      A
 Frequencies --   1167.3781              1187.6618              1224.7978
 Red. masses --      1.3753                 2.4781                 1.2696
 Frc consts  --      1.1042                 2.0594                 1.1222
 IR Inten    --     15.5637               176.4289                10.9629

                     49                     50                     51
                      A                      A                      A
 Frequencies --   1274.4997              1279.2857              1288.7187
 Red. masses --      1.4290                 2.1762                 1.3985
 Frc consts  --      1.3676                 2.0984                 1.3684
 IR Inten    --     20.4487                 7.6220                10.6392

                     52                     53                     54
                      A                      A                      A
 Frequencies --   1298.6362              1320.3362              1330.1397
 Red. masses --      1.3382                 1.4867                 1.3510
 Frc consts  --      1.3296                 1.5271                 1.4083
 IR Inten    --     19.1421                 3.1458                 2.5658

                     55                     56                     57
                      A                      A                      A
 Frequencies --   1341.9361              1373.6941              1386.9435
 Red. masses --      1.4696                 1.4887                 1.4390
 Frc consts  --      1.5593                 1.6552                 1.6310
 IR Inten    --      4.6487                29.8122                 5.3039

                     58                     59                     60
                      A                      A                      A
 Frequencies --   1399.5437              1423.4517              1440.9780
 Red. masses --      3.4609                 2.3126                 1.4654
 Frc consts  --      3.9940                 2.7608                 1.7928
 IR Inten    --     16.5116                70.1763                25.5081

                     61                     62                     63
                      A                      A                      A
 Frequencies --   1465.6263              1494.0024              1503.6297
 Red. masses --      2.3887                 1.0831                 1.1525
 Frc consts  --      3.0231                 1.4244                 1.5352
 IR Inten    --     80.3272                10.8601                14.1697

                     64                     65                     66
                      A                      A                      A
 Frequencies --   1521.7155              1538.0924              1591.5717
 Red. masses --      3.3298                 1.0934                 1.9927
 Frc consts  --      4.5429                 1.5241                 2.9741
 IR Inten    --     22.0071                 9.9971               349.0832

                     67                     68                     69
                      A                      A                      A
 Frequencies --   1626.1460              1693.5175              1740.1471
 Red. masses --      3.9911                 1.0894                 8.3377
 Frc consts  --      6.2182                 1.8408                14.8754
 IR Inten    --     24.2498                34.4442               300.0692

                     70                     71                     72
                      A                      A                      A
 Frequencies --   1841.8610              2995.8474              3036.3860
 Red. masses --      9.7480                 1.0725                 1.0712
 Frc consts  --     19.4840                 5.6713                 5.8186
 IR Inten    --    247.2511                88.9987                 9.8246

                     73                     74                     75
                      A                      A                      A
 Frequencies --   3047.2342              3084.4403              3090.0685
 Red. masses --      1.0669                 1.0914                 1.0843
 Frc consts  --      5.8369                 6.1179                 6.1002
 IR Inten    --     23.5144                28.1651                11.0372

                     76                     77                     78
                      A                      A                      A
 Frequencies --   3107.2050              3125.2733              3248.7344
 Red. masses --      1.0967                 1.0925                 1.0957
 Frc consts  --      6.2386                 6.2868                 6.8134
 IR Inten    --     11.3305                 9.3712                13.1151

                     79                     80                     81
                      A                      A                      A
 Frequencies --   3262.9091              3353.4429              3463.4703
 Red. masses --      1.0965                 1.0823                 1.0855
 Frc consts  --      6.8782                 7.1707                 7.6720
 IR Inten    --      4.8284               403.0552               451.1318

                     82                     83                     84
                      A                      A                      A
 Frequencies --   3479.3568              3566.0092              3686.9037
 Red. masses --      1.0505                 1.0929                 1.0641
 Frc consts  --      7.4925                 8.1884                 8.5224
 IR Inten    --      0.3595                 1.5214                63.5803

 - Thermochemistry -
 -------------------
 Temperature   298.150 Kelvin.  Pressure   1.00000 Atm.
 Atom     1 has atomic number  8 and mass  15.99491

 Molecular mass:   226.10659 amu.
 Principal axes and moments of inertia in atomic units:
                           1         2         3
     Eigenvalues --  2403.764745374.737087215.85213
           X            0.94030   0.33636  -0.05201
           Y           -0.27541   0.66215  -0.69693
           Z           -0.19998   0.66964   0.71525
 This molecule is an asymmetric top.
 Rotational symmetry number  1.
 Warning -- assumption of classical behavior for rotation
           may cause significant error
 Rotational temperatures (Kelvin)      0.03603     0.01611     0.01200
 Rotational constants (GHZ):           0.75080     0.33578     0.25011
 Zero-point vibrational energy     647360.8 (Joules/Mol)
                                  154.72295 (Kcal/Mol)
 Warning -- explicit consideration of  21 degrees of freedom as
           vibrations may cause significant error
 Vibrational temperatures:     29.51    68.42    79.08   105.37   114.75
          (Kelvin)            144.71   166.08   189.02   265.48   282.10
                              344.34   406.03   435.16   450.36   474.28
                              512.55   602.36   671.07   743.67   859.49
                              878.93   916.55   928.96   973.68  1002.61
                             1033.84  1108.99  1129.53  1158.60  1186.27
                             1208.40  1236.90  1250.43  1303.48  1334.87
                             1351.12  1396.19  1427.52  1466.43  1476.76
                             1491.18  1576.65  1637.79  1650.64  1674.16
                             1679.59  1708.78  1762.21  1833.72  1840.60
                             1854.18  1868.45  1899.67  1913.77  1930.74
                             1976.44  1995.50  2013.63  2048.03  2073.24
                             2108.71  2149.53  2163.39  2189.41  2212.97
                             2289.91  2339.66  2436.59  2503.68  2650.02
                             4310.35  4368.68  4384.28  4437.82  4445.91
                             4470.57  4496.57  4674.20  4694.59  4824.85
                             4983.16  5006.01  5130.69  5304.63

 Zero-point correction=                           0.246567 (Hartree/Particle)
 Thermal correction to Energy=                    0.262108
 Thermal correction to Enthalpy=                  0.263052
 Thermal correction to Gibbs Free Energy=         0.201597
 Sum of electronic and zero-point Energies=           -795.844915
 Sum of electronic and thermal Energies=              -795.829374
 Sum of electronic and thermal Enthalpies=            -795.828430
 Sum of electronic and thermal Free Energies=         -795.889885

                     E (Thermal)             CV                S
                      KCal/Mol        Cal/Mol-Kelvin    Cal/Mol-Kelvin
 Total                  164.475             57.041            129.343
 Electronic               0.000              0.000              0.000
 Translational            0.889              2.981             42.150
 Rotational               0.889              2.981             32.900
 Vibrational            162.698             51.080             54.293
 Vibration     1          0.593              1.986              6.584
 Vibration     2          0.595              1.979              4.917
 Vibration     3          0.596              1.976              4.630
 Vibration     4          0.599              1.967              4.065
 Vibration     5          0.600              1.963              3.897
 Vibration     6          0.604              1.949              3.443
 Vibration     7          0.608              1.937              3.175
 Vibration     8          0.612              1.922              2.926
 Vibration     9          0.631              1.861              2.282
 Vibration    10          0.636              1.845              2.170
 Vibration    11          0.657              1.780              1.808
 Vibration    12          0.681              1.707              1.520
 Vibration    13          0.694              1.669              1.403
 Vibration    14          0.701              1.649              1.346
 Vibration    15          0.712              1.616              1.262
 Vibration    16          0.732              1.562              1.138
 Vibration    17          0.782              1.430              0.897
 Vibration    18          0.824              1.325              0.748
 Vibration    19          0.872              1.213              0.617
 Vibration    20          0.955              1.037              0.454
 Vibration    21          0.970              1.009              0.431

 Normal termination of Gaussian 09 at Wed Jul 28 22:58:04 2021.
