 Gaussian 09, Revision D.01,
 Gaussian 09:  ES64L-G09RevD.01 24-Apr-2013

 ----------------------------------------------------------------------
 # B3LYP/6-31G(d) opt=calcfc freq=noraman nosymm integral(ultrafinegrid
 )
 ----------------------------------------------------------------------

 ------------------------------------------------------------
 Candidate Structure: Conf:640 OPT and FREQ calc in gas phase
 ------------------------------------------------------------
 Symbolic Z-matrix:
 Charge =  0 Multiplicity = 1

 SCF Done:  E(RB3LYP) =  -796.082190481     A.U. after   14 cycles
 SCF Done:  E(RB3LYP) =  -796.084645887     A.U. after   12 cycles
 SCF Done:  E(RB3LYP) =  -796.084947240     A.U. after   13 cycles
 SCF Done:  E(RB3LYP) =  -796.084960192     A.U. after   11 cycles
 SCF Done:  E(RB3LYP) =  -796.084961029     A.U. after   10 cycles
 SCF Done:  E(RB3LYP) =  -796.084963260     A.U. after   10 cycles
 Optimization completed.
    -- Stationary point found.
 Normal termination of Gaussian 09 at Wed Jul 28 22:21:54 2021.

 --------------------------------------------------------------------
 #N Geom=AllCheck Guess=TCheck SCRF=Check GenChk RB3LYP/6-31G(d) Freq
 --------------------------------------------------------------------

 Structure from the checkpoint file:  "conf-640.chk"
 ------------------------------------------------------------
 Candidate Structure: Conf:640 OPT and FREQ calc in gas phase
 ------------------------------------------------------------
 Charge =  0 Multiplicity = 1

                          Input orientation:
 ---------------------------------------------------------------------
 Center     Atomic      Atomic             Coordinates (Angstroms)
 Number     Number       Type             X           Y           Z
 ---------------------------------------------------------------------
      1          8           0        0.921076   -1.285918   -0.924029
      2          6           0        1.174095   -0.132117   -0.561189
      3          7           0        0.258780    0.874599   -0.645240
      4          6           0       -0.985681    0.729333   -1.378846
      5          6           0       -1.121858    1.927960   -2.311199
      6          8           0       -2.081357    1.736978   -3.237471
      7          8           0       -0.476697    2.950025   -2.217040
      8          6           0       -2.260918    0.633556   -0.493228
      9          6           0       -2.243931   -0.431087    0.563160
     10          6           0       -2.945887   -0.524636    1.744415
     11          7           0       -2.702045   -1.722912    2.375632
     12          6           0       -1.853226   -2.349652    1.587904
     13          7           0       -1.556777   -1.627830    0.467136
     14          6           0        2.521406    0.230244    0.039845
     15          6           0        2.903211   -0.719642    1.201146
     16          7           0        4.226196   -0.508948    1.779655
     17          1           0        0.558970    1.827846   -0.480323
     18          1           0       -0.903714   -0.179501   -1.983006
     19          1           0       -2.133391    2.558010   -3.763531
     20          1           0       -3.103798    0.487082   -1.182134
     21          1           0       -2.427016    1.601261   -0.003534
     22          1           0       -3.624433    0.205440    2.167816
     23          1           0       -1.416347   -3.321582    1.775838
     24          1           0       -0.797354   -1.816898   -0.187502
     25          1           0        2.539293    1.273516    0.380273
     26          1           0        3.269429    0.133797   -0.758610
     27          1           0        2.162493   -0.624382    2.004136
     28          1           0        2.840153   -1.749290    0.836830
     29          1           0        4.313245    0.441484    2.136380
     30          1           0        4.946164   -0.616866    1.066667
 ---------------------------------------------------------------------

 SCF Done:  E(RB3LYP) =  -796.084963259     A.U. after    1 cycles

 Alpha  occ. eigenvalues --  -19.22700 -19.17112 -19.13667 -14.38337 -14.36944
 Alpha  occ. eigenvalues --  -14.32164 -14.29615 -10.35052 -10.30976 -10.26487
 Alpha  occ. eigenvalues --  -10.22224 -10.21875 -10.21835 -10.21023 -10.20810
 Alpha  occ. eigenvalues --  -10.18255  -1.13671  -1.05518  -1.04635  -0.99539
 Alpha  occ. eigenvalues --   -0.94803  -0.88942  -0.85360  -0.81310  -0.76644
 Alpha  occ. eigenvalues --   -0.73947  -0.67756  -0.65515  -0.62048  -0.60919
 Alpha  occ. eigenvalues --   -0.59226  -0.57403  -0.54445  -0.51939  -0.51706
 Alpha  occ. eigenvalues --   -0.51107  -0.49604  -0.48817  -0.47735  -0.46153
 Alpha  occ. eigenvalues --   -0.44561  -0.43961  -0.42839  -0.42070  -0.41747
 Alpha  occ. eigenvalues --   -0.40834  -0.40083  -0.39339  -0.38843  -0.38432
 Alpha  occ. eigenvalues --   -0.37042  -0.35248  -0.34794  -0.30978  -0.28385
 Alpha  occ. eigenvalues --   -0.27776  -0.26395  -0.25103  -0.24046  -0.20970
 Alpha virt. eigenvalues --   -0.01952   0.00044   0.03938   0.05229   0.06798
 Alpha virt. eigenvalues --    0.07768   0.07954   0.10146   0.12057   0.12238
 Alpha virt. eigenvalues --    0.13676   0.14550   0.15005   0.15210   0.16833

 Mulliken charges:
               1
     1  O   -0.547120
     2  C    0.622942
     3  N   -0.581380
     4  C   -0.068839
     5  C    0.584390
     6  O   -0.557767
     7  O   -0.464681
     8  C   -0.348479
     9  C    0.326362
    10  C   -0.086474
    11  N   -0.427628
    12  C    0.196130
    13  N   -0.628071
    14  C   -0.365423
    15  C   -0.145732
    16  N   -0.700408
    17  H    0.347596
    18  H    0.201573
    19  H    0.420422
    20  H    0.183233
    21  H    0.161402
    22  H    0.122450
    23  H    0.150838
    24  H    0.373785
    25  H    0.135536
    26  H    0.168899
    27  H    0.160002
    28  H    0.175550
    29  H    0.294977
    30  H    0.295912
 Sum of Mulliken charges =   0.00000

 Dipole moment (field-independent basis, Debye):
    X=              1.7995    Y=              4.0435    Z=             -4.2085  Tot=              6.1073
 Quadrupole moment (field-independent basis, Debye-Ang):
   XX=            -92.5727   YY=            -94.7507   ZZ=            -98.8811
   XY=             -4.7635   XZ=              9.9087   YZ=              3.4663

  Exact polarizability: 128.912  -7.457 123.908   1.466 -20.615 116.416
 Approx polarizability: 170.238 -10.942 201.694  -7.062 -10.327 171.349

                      1                      2                      3
                      A                      A                      A
 Frequencies --     22.1092                35.3784                59.7637
 Red. masses --      5.3985                 3.1050                 6.4937
 Frc consts  --      0.0016                 0.0023                 0.0137
 IR Inten    --      0.6411                 2.1701                 3.3541

                      4                      5                      6
                      A                      A                      A
 Frequencies --     66.0620                74.4177                85.8514
 Red. masses --      5.1306                 4.6627                 2.0611
 Frc consts  --      0.0132                 0.0152                 0.0090
 IR Inten    --      2.0956                 2.9165                 1.7166

                      7                      8                      9
                      A                      A                      A
 Frequencies --    102.6160               140.9459               169.2710
 Red. masses --      6.2503                 5.4464                 6.1728
 Frc consts  --      0.0388                 0.0637                 0.1042
 IR Inten    --      0.5802                 9.0387                11.4302

                     10                     11                     12
                      A                      A                      A
 Frequencies --    185.1023               208.6942               258.4724
 Red. masses --      4.3667                 5.2869                 4.9644
 Frc consts  --      0.0882                 0.1357                 0.1954
 IR Inten    --      8.1192                 8.7911                 1.0009

                     13                     14                     15
                      A                      A                      A
 Frequencies --    290.4975               317.2337               324.2998
 Red. masses --      3.4940                 1.1206                 6.4327
 Frc consts  --      0.1737                 0.0664                 0.3986
 IR Inten    --      1.0967                47.9779                 4.5375

                     16                     17                     18
                      A                      A                      A
 Frequencies --    340.8303               393.2405               451.2851
 Red. masses --      3.5892                 3.7068                 3.7839
 Frc consts  --      0.2457                 0.3377                 0.4540
 IR Inten    --      6.8332                 4.0635                 8.9124

                     19                     20                     21
                      A                      A                      A
 Frequencies --    524.5057               558.6290               610.9734
 Red. masses --      3.2408                 1.3349                 1.4850
 Frc consts  --      0.5253                 0.2454                 0.3266
 IR Inten    --     33.2177                77.0693                82.4991

                     22                     23                     24
                      A                      A                      A
 Frequencies --    626.3199               629.0994               651.9972
 Red. masses --      3.2831                 3.7890                 3.8190
 Frc consts  --      0.7588                 0.8835                 0.9565
 IR Inten    --      9.8180                26.3103                47.0542

                     25                     26                     27
                      A                      A                      A
 Frequencies --    675.9799               702.1884               751.1399
 Red. masses --      3.9463                 2.7516                 3.2236
 Frc consts  --      1.0624                 0.7994                 1.0716
 IR Inten    --     27.8806                41.4580                17.7209

                     28                     29                     30
                      A                      A                      A
 Frequencies --    758.6929               777.4978               784.3848
 Red. masses --      1.2859                 1.3071                 3.6647
 Frc consts  --      0.4361                 0.4655                 1.3285
 IR Inten    --     91.4461                 1.5760                25.1463

                     31                     32                     33
                      A                      A                      A
 Frequencies --    800.7211               836.8146               864.5568
 Red. masses --      1.3718                 1.3025                 1.5442
 Frc consts  --      0.5182                 0.5374                 0.6801
 IR Inten    --     14.6545                30.4624               233.3601

                     34                     35                     36
                      A                      A                      A
 Frequencies --    898.2545               931.6270               938.3821
 Red. masses --      2.0795                 4.6472                 5.7898
 Frc consts  --      0.9886                 2.3764                 3.0038
 IR Inten    --      1.6437                 1.4959                19.7434

                     37                     38                     39
                      A                      A                      A
 Frequencies --    986.2033               998.6941              1022.7933
 Red. masses --      1.4151                 3.3341                 3.5933
 Frc consts  --      0.8109                 1.9593                 2.2147
 IR Inten    --      4.8798                 5.7931                19.3767

                     40                     41                     42
                      A                      A                      A
 Frequencies --   1025.9953              1056.4206              1113.1121
 Red. masses --      4.3793                 3.1391                 2.6441
 Frc consts  --      2.7161                 2.0641                 1.9302
 IR Inten    --     98.0421                 4.4174                 7.8583

                     43                     44                     45
                      A                      A                      A
 Frequencies --   1126.6059              1151.2367              1161.2613
 Red. masses --      2.4271                 2.0255                 1.7466
 Frc consts  --      1.8150                 1.5817                 1.3878
 IR Inten    --     36.0378                21.6634                74.5267

                     46                     47                     48
                      A                      A                      A
 Frequencies --   1166.9572              1194.6182              1241.0139
 Red. masses --      1.7293                 2.1461                 1.4370
 Frc consts  --      1.3875                 1.8045                 1.3039
 IR Inten    --     13.0434               123.3402                26.8838

                     49                     50                     51
                      A                      A                      A
 Frequencies --   1258.7198              1277.9882              1289.2595
 Red. masses --      1.5770                 1.8646                 1.4976
 Frc consts  --      1.4721                 1.7943                 1.4667
 IR Inten    --     18.7426                 5.9167                11.3960

                     52                     53                     54
                      A                      A                      A
 Frequencies --   1294.2281              1311.1382              1351.4882
 Red. masses --      1.4869                 1.2987                 1.3847
 Frc consts  --      1.4674                 1.3154                 1.4901
 IR Inten    --     28.8302                 3.7570                 9.0143

                     55                     56                     57
                      A                      A                      A
 Frequencies --   1367.2020              1385.8562              1401.9133
 Red. masses --      1.8875                 1.4328                 1.2624
 Frc consts  --      2.0788                 1.6213                 1.4618
 IR Inten    --      0.7141                12.5929                 6.9208

                     58                     59                     60
                      A                      A                      A
 Frequencies --   1407.9729              1410.3959              1418.9194
 Red. masses --      2.1947                 1.3375                 2.4830
 Frc consts  --      2.5634                 1.5675                 2.9454
 IR Inten    --      2.7554                 4.1341               196.6858

                     61                     62                     63
                      A                      A                      A
 Frequencies --   1475.3073              1498.5938              1509.8960
 Red. masses --      2.2708                 1.1126                 1.5412
 Frc consts  --      2.9120                 1.4722                 2.0702
 IR Inten    --     38.5617                 3.1802                25.5576

                     64                     65                     66
                      A                      A                      A
 Frequencies --   1518.1159              1526.3769              1557.3575
 Red. masses --      1.9814                 1.0907                 2.0302
 Frc consts  --      2.6905                 1.4973                 2.9011
 IR Inten    --     11.2852                 4.2706               250.8170

                     67                     68                     69
                      A                      A                      A
 Frequencies --   1623.0187              1701.0948              1736.2821
 Red. masses --      3.5377                 1.0949                 7.9368
 Frc consts  --      5.4905                 1.8667                14.0973
 IR Inten    --     11.3508                29.9617               183.3170

                     70                     71                     72
                      A                      A                      A
 Frequencies --   1838.9485              3039.1402              3039.9036
 Red. masses --      9.8410                 1.0612                 1.0588
 Frc consts  --     19.6078                 5.7750                 5.7649
 IR Inten    --    243.7865                21.3786                12.5347

                     73                     74                     75
                      A                      A                      A
 Frequencies --   3065.5400              3074.5264              3082.1684
 Red. masses --      1.0677                 1.1000                 1.0997
 Frc consts  --      5.9119                 6.1260                 6.1550
 IR Inten    --     25.9701                 9.5299                13.2414

                     76                     77                     78
                      A                      A                      A
 Frequencies --   3103.3753              3124.5120              3247.9345
 Red. masses --      1.0853                 1.1036                 1.0957
 Frc consts  --      6.1583                 6.3477                 6.8102
 IR Inten    --      7.2721                20.8952                11.8372

                     79                     80                     81
                      A                      A                      A
 Frequencies --   3265.5730              3464.0240              3475.4470
 Red. masses --      1.0966                 1.0490                 1.0850
 Frc consts  --      6.8898                 7.4161                 7.7211
 IR Inten    --      3.1675                 0.5840               331.4403

                     82                     83                     84
                      A                      A                      A
 Frequencies --   3549.9253              3597.3824              3678.2676
 Red. masses --      1.0930                 1.0771                 1.0641
 Frc consts  --      8.1156                 8.2127                 8.4825
 IR Inten    --      0.2684                53.2596                67.8892

 - Thermochemistry -
 -------------------
 Temperature   298.150 Kelvin.  Pressure   1.00000 Atm.
 Atom     1 has atomic number  8 and mass  15.99491

 Molecular mass:   226.10659 amu.
 Principal axes and moments of inertia in atomic units:
                           1         2         3
     Eigenvalues --  3627.542424376.789707194.84322
           X            0.83989  -0.53964  -0.05812
           Y           -0.31709  -0.57475   0.75440
           Z            0.44051   0.61518   0.65384
 This molecule is an asymmetric top.
 Rotational symmetry number  1.
 Warning -- assumption of classical behavior for rotation
           may cause significant error
 Rotational temperatures (Kelvin)      0.02388     0.01979     0.01204
 Rotational constants (GHZ):           0.49751     0.41234     0.25084
 Zero-point vibrational energy     646345.6 (Joules/Mol)
                                  154.48030 (Kcal/Mol)
 Warning -- explicit consideration of  21 degrees of freedom as
           vibrations may cause significant error
 Vibrational temperatures:     31.81    50.90    85.99    95.05   107.07
          (Kelvin)            123.52   147.64   202.79   243.54   266.32
                              300.26   371.88   417.96   456.43   466.59
                              490.38   565.78   649.30   754.65   803.74
                              879.05   901.13   905.13   938.08   972.58
                             1010.29  1080.72  1091.59  1118.64  1128.55
                             1152.06  1203.99  1243.90  1292.39  1340.40
                             1350.12  1418.92  1436.90  1471.57  1476.18
                             1519.95  1601.52  1620.93  1656.37  1670.79
                             1678.99  1718.79  1785.54  1811.01  1838.74
                             1854.95  1862.10  1886.43  1944.49  1967.10
                             1993.94  2017.04  2025.76  2029.24  2041.51
                             2122.64  2156.14  2172.40  2184.23  2196.11
                             2240.69  2335.16  2447.49  2498.12  2645.83
                             4372.64  4373.74  4410.62  4423.55  4434.55
                             4465.06  4495.47  4673.05  4698.43  4983.95
                             5000.39  5107.54  5175.82  5292.20

 Zero-point correction=                           0.246180 (Hartree/Particle)
 Thermal correction to Energy=                    0.262086
 Thermal correction to Enthalpy=                  0.263030
 Thermal correction to Gibbs Free Energy=         0.200406
 Sum of electronic and zero-point Energies=           -795.838783
 Sum of electronic and thermal Energies=              -795.822877
 Sum of electronic and thermal Enthalpies=            -795.821933
 Sum of electronic and thermal Free Energies=         -795.884557

                     E (Thermal)             CV                S
                      KCal/Mol        Cal/Mol-Kelvin    Cal/Mol-Kelvin
 Total                  164.462             57.805            131.803
 Electronic               0.000              0.000              0.000
 Translational            0.889              2.981             42.150
 Rotational               0.889              2.981             33.102
 Vibrational            162.684             51.843             56.552
 Vibration     1          0.593              1.985              6.435
 Vibration     2          0.594              1.982              5.502
 Vibration     3          0.597              1.973              4.465
 Vibration     4          0.597              1.970              4.267
 Vibration     5          0.599              1.966              4.033
 Vibration     6          0.601              1.959              3.752
 Vibration     7          0.605              1.947              3.404
 Vibration     8          0.615              1.912              2.791
 Vibration     9          0.625              1.880              2.444
 Vibration    10          0.631              1.860              2.276
 Vibration    11          0.642              1.827              2.055
 Vibration    12          0.667              1.748              1.672
 Vibration    13          0.686              1.691              1.471
 Vibration    14          0.704              1.641              1.324
 Vibration    15          0.709              1.627              1.288
 Vibration    16          0.720              1.594              1.208
 Vibration    17          0.760              1.485              0.988
 Vibration    18          0.810              1.358              0.792
 Vibration    19          0.879              1.196              0.600
 Vibration    20          0.914              1.121              0.527
 Vibration    21          0.970              1.009              0.431

 Optimization completed.
    -- Stationary point found.
 Normal termination of Gaussian 09 at Wed Jul 28 22:37:47 2021.
