 Gaussian 09, Revision D.01,
 Gaussian 09:  ES64L-G09RevD.01 24-Apr-2013

 ----------------------------------------------------------------------
 # B3LYP/6-31G(d) opt=calcfc freq=noraman nosymm integral(ultrafinegrid
 )
 ----------------------------------------------------------------------

 ------------------------------------------------------------
 Candidate Structure: Conf:683 OPT and FREQ calc in gas phase
 ------------------------------------------------------------
 Symbolic Z-matrix:
 Charge =  0 Multiplicity = 1

 SCF Done:  E(RB3LYP) =  -796.088266435     A.U. after   14 cycles
 SCF Done:  E(RB3LYP) =  -796.091043055     A.U. after   12 cycles
 SCF Done:  E(RB3LYP) =  -796.091521095     A.U. after   12 cycles
 SCF Done:  E(RB3LYP) =  -796.091452237     A.U. after   12 cycles
 SCF Done:  E(RB3LYP) =  -796.091626700     A.U. after   12 cycles
 SCF Done:  E(RB3LYP) =  -796.091653549     A.U. after   11 cycles
 SCF Done:  E(RB3LYP) =  -796.091655067     A.U. after    9 cycles
 SCF Done:  E(RB3LYP) =  -796.091655138     A.U. after    7 cycles
 Optimization completed.
    -- Stationary point found.
 Normal termination of Gaussian 09 at Wed Jul 28 22:25:34 2021.

 --------------------------------------------------------------------
 #N Geom=AllCheck Guess=TCheck SCRF=Check GenChk RB3LYP/6-31G(d) Freq
 --------------------------------------------------------------------

 Structure from the checkpoint file:  "conf-683.chk"
 ------------------------------------------------------------
 Candidate Structure: Conf:683 OPT and FREQ calc in gas phase
 ------------------------------------------------------------
 Charge =  0 Multiplicity = 1

                          Input orientation:
 ---------------------------------------------------------------------
 Center     Atomic      Atomic             Coordinates (Angstroms)
 Number     Number       Type             X           Y           Z
 ---------------------------------------------------------------------
      1          8           0       -0.569853    0.022098   -2.150767
      2          6           0        0.379296    0.325265   -1.415712
      3          7           0        0.237397    0.624231   -0.101240
      4          6           0       -1.061922    0.796189    0.512554
      5          6           0       -1.081053    2.124122    1.263838
      6          8           0       -2.336022    2.459948    1.639400
      7          8           0       -0.110202    2.798143    1.526234
      8          6           0       -1.478850   -0.347305    1.480230
      9          6           0       -1.469375   -1.726201    0.887464
     10          6           0       -1.389470   -2.960423    1.493827
     11          7           0       -1.505896   -3.977308    0.573316
     12          6           0       -1.648891   -3.364966   -0.584005
     13          7           0       -1.654926   -2.005905   -0.454358
     14          6           0        1.809438    0.340723   -1.954799
     15          6           0        2.743832    1.414473   -1.377144
     16          7           0        3.002982    1.180100    0.053391
     17          1           0        1.085677    0.907593    0.403740
     18          1           0       -1.798040    0.855544   -0.295635
     19          1           0       -2.261346    3.297414    2.135278
     20          1           0       -0.811461   -0.337791    2.351258
     21          1           0       -2.479272   -0.092729    1.854315
     22          1           0       -1.264838   -3.169847    2.549014
     23          1           0       -1.748619   -3.849069   -1.546644
     24          1           0       -1.573500   -1.326600   -1.213703
     25          1           0        2.242433   -0.656294   -1.786271
     26          1           0        1.724519    0.460763   -3.038504
     27          1           0        2.267734    2.397547   -1.466281
     28          1           0        3.661206    1.446619   -1.986096
     29          1           0        3.622078    0.379994    0.176197
     30          1           0        3.467040    1.983662    0.470887
 ---------------------------------------------------------------------

 SCF Done:  E(RB3LYP) =  -796.091655138     A.U. after    1 cycles

 Alpha  occ. eigenvalues --  -19.21384 -19.15734 -19.12213 -14.36215 -14.35902
 Alpha  occ. eigenvalues --  -14.34621 -14.29021 -10.33686 -10.29563 -10.25178
 Alpha  occ. eigenvalues --  -10.23534 -10.21583 -10.20852 -10.20570 -10.20315
 Alpha  occ. eigenvalues --  -10.17584  -1.12289  -1.03954  -1.03222  -0.98850
 Alpha  occ. eigenvalues --   -0.93242  -0.90665  -0.84656  -0.80228  -0.76637
 Alpha  occ. eigenvalues --   -0.73232  -0.66844  -0.65300  -0.61927  -0.59113
 Alpha  occ. eigenvalues --   -0.58163  -0.56636  -0.53981  -0.52130  -0.51097
 Alpha  occ. eigenvalues --   -0.50232  -0.48669  -0.47616  -0.46724  -0.46149
 Alpha  occ. eigenvalues --   -0.44899  -0.43914  -0.42336  -0.41467  -0.40368
 Alpha  occ. eigenvalues --   -0.40146  -0.39532  -0.38752  -0.38477  -0.37963
 Alpha  occ. eigenvalues --   -0.37334  -0.35239  -0.33515  -0.29474  -0.27165
 Alpha  occ. eigenvalues --   -0.26576  -0.25965  -0.25693  -0.24448  -0.20284
 Alpha virt. eigenvalues --   -0.00678   0.01360   0.04714   0.05984   0.06305
 Alpha virt. eigenvalues --    0.08406   0.10938   0.11073   0.11502   0.13135
 Alpha virt. eigenvalues --    0.14351   0.14628   0.15039   0.16245   0.16620

 Mulliken charges:
               1
     1  O   -0.553096
     2  C    0.596131
     3  N   -0.584679
     4  C   -0.068914
     5  C    0.581785
     6  O   -0.562544
     7  O   -0.462374
     8  C   -0.348291
     9  C    0.327654
    10  C   -0.090238
    11  N   -0.430790
    12  C    0.193690
    13  N   -0.628203
    14  C   -0.352453
    15  C   -0.159629
    16  N   -0.739042
    17  H    0.395020
    18  H    0.197110
    19  H    0.415380
    20  H    0.159492
    21  H    0.181588
    22  H    0.119259
    23  H    0.146739
    24  H    0.375507
    25  H    0.171537
    26  H    0.177727
    27  H    0.166309
    28  H    0.140807
    29  H    0.312383
    30  H    0.322136
 Sum of Mulliken charges =   0.00000

 Dipole moment (field-independent basis, Debye):
    X=              3.6754    Y=              5.1707    Z=              0.3235  Tot=              6.3521
 Quadrupole moment (field-independent basis, Debye-Ang):
   XX=            -79.8498   YY=           -108.3316   ZZ=            -90.4187
   XY=             -7.3732   XZ=             -5.4610   YZ=              6.6882

  Exact polarizability: 109.442   9.771 134.577  -7.024  10.624 123.128
 Approx polarizability: 157.194   8.916 189.208   8.778  13.129 195.076

                      1                      2                      3
                      A                      A                      A
 Frequencies --     25.5659                45.5858                55.8247
 Red. masses --      5.0648                10.3391                 3.8168
 Frc consts  --      0.0020                 0.0127                 0.0070
 IR Inten    --      4.2487                 2.0551                 1.8730

                      4                      5                      6
                      A                      A                      A
 Frequencies --     68.3897                86.8045               106.0916
 Red. masses --      4.0290                 4.1496                 5.1447
 Frc consts  --      0.0111                 0.0184                 0.0341
 IR Inten    --      0.8292                 1.8328                 1.3227

                      7                      8                      9
                      A                      A                      A
 Frequencies --    121.4166               149.4090               184.4325
 Red. masses --      3.9260                 6.1231                 6.5459
 Frc consts  --      0.0341                 0.0805                 0.1312
 IR Inten    --      6.9707                10.8729                 1.2353

                     10                     11                     12
                      A                      A                      A
 Frequencies --    204.1025               227.1873               264.6166
 Red. masses --      2.2363                 5.1175                 3.8849
 Frc consts  --      0.0549                 0.1556                 0.1603
 IR Inten    --      2.3406                10.6587                 0.7053

                     13                     14                     15
                      A                      A                      A
 Frequencies --    306.6997               311.4664               346.2711
 Red. masses --      3.4089                 1.6892                 4.3869
 Frc consts  --      0.1889                 0.0965                 0.3099
 IR Inten    --      1.9223                14.6508                 0.1535

                     16                     17                     18
                      A                      A                      A
 Frequencies --    354.9404               431.7564               485.9064
 Red. masses --      3.0472                 3.3814                 2.8900
 Frc consts  --      0.2262                 0.3714                 0.4020
 IR Inten    --      8.3264                16.1085                13.6710

                     19                     20                     21
                      A                      A                      A
 Frequencies --    514.8835               588.6172               608.9707
 Red. masses --      3.0146                 3.5312                 1.5118
 Frc consts  --      0.4709                 0.7208                 0.3303
 IR Inten    --     39.6458                 5.3627                70.7538

                     22                     23                     24
                      A                      A                      A
 Frequencies --    632.2058               644.3367               675.8752
 Red. masses --      3.7678                 4.6360                 3.9131
 Frc consts  --      0.8873                 1.1340                 1.0532
 IR Inten    --     12.0177                41.8822                27.1737

                     25                     26                     27
                      A                      A                      A
 Frequencies --    690.4726               700.9493               774.0614
 Red. masses --      3.3286                 2.8368                 1.9854
 Frc consts  --      0.9350                 0.8212                 0.7009
 IR Inten    --     39.2248                30.3186                37.4758

                     28                     29                     30
                      A                      A                      A
 Frequencies --    785.0247               797.7017               823.1506
 Red. masses --      1.6522                 1.3738                 1.2351
 Frc consts  --      0.5999                 0.5151                 0.4931
 IR Inten    --     72.6256                15.9357                66.9854

                     31                     32                     33
                      A                      A                      A
 Frequencies --    834.8539               853.9552               884.0719
 Red. masses --      1.2942                 1.5141                 2.7028
 Frc consts  --      0.5315                 0.6506                 1.2446
 IR Inten    --     31.8770                53.4082                 6.4594

                     34                     35                     36
                      A                      A                      A
 Frequencies --    905.6071               925.5795               939.1204
 Red. masses --      2.2770                 1.9419                 5.7123
 Frc consts  --      1.1003                 0.9802                 2.9682
 IR Inten    --     20.4396                43.9662                22.6697

                     37                     38                     39
                      A                      A                      A
 Frequencies --    967.7499               999.0410              1020.1046
 Red. masses --      2.3450                 2.4312                 2.9142
 Frc consts  --      1.2940                 1.4297                 1.7867
 IR Inten    --      5.3568                 4.2847                 5.9022

                     40                     41                     42
                      A                      A                      A
 Frequencies --   1035.3294              1058.8771              1093.4810
 Red. masses --      2.0073                 3.0266                 2.5545
 Frc consts  --      1.2677                 1.9994                 1.7996
 IR Inten    --     40.9867                 9.6977                 4.9431

                     43                     44                     45
                      A                      A                      A
 Frequencies --   1142.4178              1152.3733              1169.4141
 Red. masses --      3.0586                 2.1513                 1.4142
 Frc consts  --      2.3519                 1.6832                 1.1395
 IR Inten    --     95.4526                16.5857                51.3564

                     46                     47                     48
                      A                      A                      A
 Frequencies --   1170.0753              1191.8661              1244.9478
 Red. masses --      1.6988                 2.1610                 1.4533
 Frc consts  --      1.3703                 1.8086                 1.3271
 IR Inten    --     13.2045               103.9851                12.0103

                     49                     50                     51
                      A                      A                      A
 Frequencies --   1277.0710              1277.8418              1288.2661
 Red. masses --      1.6246                 1.5629                 1.5955
 Frc consts  --      1.5611                 1.5036                 1.5601
 IR Inten    --     17.9274                12.7374                11.6732

                     52                     53                     54
                      A                      A                      A
 Frequencies --   1300.5654              1325.5578              1332.8090
 Red. masses --      1.3958                 1.6822                 1.3702
 Frc consts  --      1.3911                 1.7415                 1.4341
 IR Inten    --      7.8809                 9.1547                 3.0075

                     55                     56                     57
                      A                      A                      A
 Frequencies --   1359.4701              1381.5706              1389.1188
 Red. masses --      1.8325                 1.4054                 1.4817
 Frc consts  --      1.9954                 1.5805                 1.6846
 IR Inten    --      3.4153                13.1154                 8.2176

                     58                     59                     60
                      A                      A                      A
 Frequencies --   1407.5458              1414.2876              1440.9248
 Red. masses --      2.4314                 2.3562                 1.4218
 Frc consts  --      2.8381                 2.7768                 1.7392
 IR Inten    --      4.1005               100.7906                18.4058

                     61                     62                     63
                      A                      A                      A
 Frequencies --   1478.8719              1492.0241              1510.7994
 Red. masses --      2.2217                 1.0816                 1.6607
 Frc consts  --      2.8628                 1.4186                 2.2333
 IR Inten    --     42.8438                 9.9200                23.2205

                     64                     65                     66
                      A                      A                      A
 Frequencies --   1518.8989              1536.4501              1605.5715
 Red. masses --      1.7880                 1.0867                 1.8459
 Frc consts  --      2.4304                 1.5115                 2.8036
 IR Inten    --      7.6936                 4.9451               298.3938

                     67                     68                     69
                      A                      A                      A
 Frequencies --   1624.3495              1691.1536              1732.4724
 Red. masses --      3.4139                 1.0908                 7.4078
 Frc consts  --      5.3072                 1.8380                13.1001
 IR Inten    --     17.1207                34.9850               282.2799

                     70                     71                     72
                      A                      A                      A
 Frequencies --   1845.8684              3000.5685              3039.3828
 Red. masses --      9.9436                 1.0723                 1.0709
 Frc consts  --     19.9616                 5.6881                 5.8288
 IR Inten    --    238.3788                86.8741                 7.1286

                     73                     74                     75
                      A                      A                      A
 Frequencies --   3041.6358              3073.6807              3090.5262
 Red. masses --      1.0599                 1.1005                 1.0919
 Frc consts  --      5.7776                 6.1257                 6.1448
 IR Inten    --     22.0995                 7.7261                22.5045

                     76                     77                     78
                      A                      A                      A
 Frequencies --   3098.1976              3124.6815              3246.6250
 Red. masses --      1.0857                 1.0927                 1.0956
 Frc consts  --      6.1403                 6.2859                 6.8040
 IR Inten    --     11.8188                 8.9261                12.9666

                     79                     80                     81
                      A                      A                      A
 Frequencies --   3263.8914              3349.6930              3443.6176
 Red. masses --      1.0964                 1.0826                 1.0861
 Frc consts  --      6.8817                 7.1569                 7.5885
 IR Inten    --      4.0554               404.4030               366.1860

                     82                     83                     84
                      A                      A                      A
 Frequencies --   3479.4664              3568.5803              3681.5937
 Red. masses --      1.0505                 1.0930                 1.0641
 Frc consts  --      7.4930                 8.2008                 8.4977
 IR Inten    --      0.3677                 2.0653                59.0266

 - Thermochemistry -
 -------------------
 Temperature   298.150 Kelvin.  Pressure   1.00000 Atm.
 Atom     1 has atomic number  8 and mass  15.99491

 Molecular mass:   226.10659 amu.
 Principal axes and moments of inertia in atomic units:
                           1         2         3
     Eigenvalues --  2964.076064572.160296267.17157
           X            0.51613  -0.61673   0.59434
           Y            0.85081   0.44907  -0.27287
           Z           -0.09861   0.64651   0.75650
 This molecule is an asymmetric top.
 Rotational symmetry number  1.
 Warning -- assumption of classical behavior for rotation
           may cause significant error
 Rotational temperatures (Kelvin)      0.02922     0.01894     0.01382
 Rotational constants (GHZ):           0.60887     0.39472     0.28797
 Zero-point vibrational energy     647988.5 (Joules/Mol)
                                  154.87296 (Kcal/Mol)
 Warning -- explicit consideration of  21 degrees of freedom as
           vibrations may cause significant error
 Vibrational temperatures:     36.78    65.59    80.32    98.40   124.89
          (Kelvin)            152.64   174.69   214.97   265.36   293.66
                              326.87   380.72   441.27   448.13   498.21
                              510.68   621.20   699.11   740.80   846.89
                              876.17   909.60   927.06   972.43   993.43
                             1008.51  1113.70  1129.47  1147.71  1184.33
                             1201.17  1228.65  1271.98  1302.97  1331.70
                             1351.18  1392.37  1437.40  1467.70  1489.61
                             1523.49  1573.27  1643.68  1658.01  1682.52
                             1683.48  1714.83  1791.20  1837.42  1838.53
                             1853.53  1871.22  1907.18  1917.61  1955.97
                             1987.77  1998.63  2025.14  2034.84  2073.17
                             2127.76  2146.69  2173.70  2185.35  2210.61
                             2310.06  2337.07  2433.19  2492.64  2655.79
                             4317.14  4372.99  4376.23  4422.34  4446.57
                             4457.61  4495.71  4671.16  4696.01  4819.46
                             4954.59  5006.17  5134.38  5296.99

 Zero-point correction=                           0.246806 (Hartree/Particle)
 Thermal correction to Energy=                    0.262274
 Thermal correction to Enthalpy=                  0.263218
 Thermal correction to Gibbs Free Energy=         0.202223
 Sum of electronic and zero-point Energies=           -795.844849
 Sum of electronic and thermal Energies=              -795.829381
 Sum of electronic and thermal Enthalpies=            -795.828437
 Sum of electronic and thermal Free Energies=         -795.889432

                     E (Thermal)             CV                S
                      KCal/Mol        Cal/Mol-Kelvin    Cal/Mol-Kelvin
 Total                  164.579             56.953            128.375
 Electronic               0.000              0.000              0.000
 Translational            0.889              2.981             42.150
 Rotational               0.889              2.981             32.807
 Vibrational            162.802             50.991             53.418
 Vibration     1          0.593              1.985              6.147
 Vibration     2          0.595              1.979              5.000
 Vibration     3          0.596              1.975              4.600
 Vibration     4          0.598              1.969              4.199
 Vibration     5          0.601              1.958              3.731
 Vibration     6          0.605              1.944              3.339
 Vibration     7          0.609              1.931              3.078
 Vibration     8          0.618              1.903              2.680
 Vibration     9          0.631              1.861              2.283
 Vibration    10          0.640              1.834              2.096
 Vibration    11          0.651              1.800              1.901
 Vibration    12          0.671              1.738              1.631
 Vibration    13          0.697              1.661              1.380
 Vibration    14          0.700              1.652              1.355
 Vibration    15          0.724              1.583              1.183
 Vibration    16          0.731              1.565              1.144
 Vibration    17          0.793              1.401              0.853
 Vibration    18          0.842              1.281              0.694
 Vibration    19          0.870              1.217              0.622
 Vibration    20          0.946              1.056              0.470
 Vibration    21          0.968              1.013              0.434

 Optimization completed.
    -- Stationary point found.
 Normal termination of Gaussian 09 at Wed Jul 28 22:42:01 2021.
