 Gaussian 09, Revision D.01,
 Gaussian 09:  ES64L-G09RevD.01 24-Apr-2013

 ----------------------------------------------------------------------
 # B3LYP/6-31+G(d,p) opt=calcfc freq=noraman nosymm integral(ultrafineg
 rid)
 ----------------------------------------------------------------------

 ------------------------------------------------------------
 Candidate Structure: Conf:628 OPT and FREQ calc in gas phase
 ------------------------------------------------------------
 Symbolic Z-matrix:
 Charge =  1 Multiplicity = 1

 SCF Done:  E(RB3LYP) =  -796.522658174     A.U. after   14 cycles
 SCF Done:  E(RB3LYP) =  -796.530456757     A.U. after   13 cycles
 SCF Done:  E(RB3LYP) =  -796.531541580     A.U. after   13 cycles
 SCF Done:  E(RB3LYP) =  -796.532236806     A.U. after   12 cycles
 SCF Done:  E(RB3LYP) =  -796.532436469     A.U. after   12 cycles
 SCF Done:  E(RB3LYP) =  -796.532459334     A.U. after   10 cycles
 SCF Done:  E(RB3LYP) =  -796.532463200     A.U. after   10 cycles
 SCF Done:  E(RB3LYP) =  -796.532464484     A.U. after   10 cycles
 SCF Done:  E(RB3LYP) =  -796.532464850     A.U. after    9 cycles
 SCF Done:  E(RB3LYP) =  -796.532464906     A.U. after    8 cycles
 Optimization completed.
    -- Stationary point found.
 Normal termination of Gaussian 09 at Wed Jul 28 23:08:21 2021.

 ----------------------------------------------------------------------
 #N Geom=AllCheck Guess=TCheck SCRF=Check GenChk RB3LYP/6-31+G(d,p) Fre
 q
 ----------------------------------------------------------------------

 Structure from the checkpoint file:  "conf-628.chk"
 ------------------------------------------------------------
 Candidate Structure: Conf:628 OPT and FREQ calc in gas phase
 ------------------------------------------------------------
 Charge =  1 Multiplicity = 1

                          Input orientation:
 ---------------------------------------------------------------------
 Center     Atomic      Atomic             Coordinates (Angstroms)
 Number     Number       Type             X           Y           Z
 ---------------------------------------------------------------------
      1          8           0       -1.443906   -0.099490   -0.874705
      2          6           0       -1.549666   -0.193473    0.372852
      3          7           0       -0.491696   -0.325766    1.170406
      4          6           0        0.886858   -0.411383    0.678197
      5          6           0        1.680931   -1.031860    1.824053
      6          8           0        2.966844   -1.250897    1.505314
      7          8           0        1.207094   -1.278876    2.913492
      8          6           0        1.455073    0.982437    0.231547
      9          6           0        2.395656    0.942525   -0.928744
     10          6           0        2.223343    1.366674   -2.229273
     11          7           0        3.361410    1.162581   -2.971365
     12          6           0        4.225149    0.618637   -2.140037
     13          7           0        3.695688    0.466357   -0.888371
     14          6           0       -2.932403   -0.116976    1.023461
     15          6           0       -4.014413   -0.740394    0.130865
     16          7           0       -3.956246   -0.114916   -1.245956
     17          1           0       -0.606655   -0.487254    2.168414
     18          1           0        0.910774   -1.085296   -0.184487
     19          1           0        3.408069   -1.643747    2.280612
     20          1           0        0.598304    1.584869   -0.078942
     21          1           0        1.895652    1.488064    1.100036
     22          1           0        1.340689    1.817502   -2.662563
     23          1           0        5.235258    0.319042   -2.382271
     24          1           0        4.144506    0.035084   -0.093573
     25          1           0       -2.949853   -0.623712    1.992648
     26          1           0       -3.158626    0.939771    1.218759
     27          1           0       -3.836320   -1.808793   -0.010218
     28          1           0       -5.012618   -0.603817    0.549455
     29          1           0       -4.364946    0.822692   -1.265019
     30          1           0       -2.885444   -0.047761   -1.429478
     31          1           0       -4.428488   -0.681545   -1.953714
 ---------------------------------------------------------------------

 SCF Done:  E(RB3LYP) =  -796.532464906     A.U. after    1 cycles

 Alpha  occ. eigenvalues --  -19.34664 -19.30346 -19.29232 -14.61003 -14.53189
 Alpha  occ. eigenvalues --  -14.48047 -14.40017 -10.46983 -10.46910 -10.42825
 Alpha  occ. eigenvalues --  -10.38797 -10.38411 -10.32979 -10.32533 -10.31546
 Alpha  occ. eigenvalues --  -10.28766  -1.25608  -1.21852  -1.16830  -1.15663
 Alpha  occ. eigenvalues --   -1.10220  -1.09472  -0.96719  -0.95863  -0.92621
 Alpha  occ. eigenvalues --   -0.86313  -0.83554  -0.79180  -0.77789  -0.75466
 Alpha  occ. eigenvalues --   -0.74467  -0.73148  -0.70219  -0.68605  -0.67875
 Alpha  occ. eigenvalues --   -0.66384  -0.64861  -0.63401  -0.62798  -0.61818
 Alpha  occ. eigenvalues --   -0.60924  -0.59656  -0.58607  -0.56916  -0.56548
 Alpha  occ. eigenvalues --   -0.55717  -0.54956  -0.53293  -0.52318  -0.51058
 Alpha  occ. eigenvalues --   -0.50180  -0.50048  -0.49155  -0.46722  -0.44328
 Alpha  occ. eigenvalues --   -0.43015  -0.42642  -0.36864  -0.35235  -0.31681
 Alpha virt. eigenvalues --   -0.16987  -0.15510  -0.14042  -0.12481  -0.11942
 Alpha virt. eigenvalues --   -0.11153  -0.10154  -0.09145  -0.08360  -0.07512
 Alpha virt. eigenvalues --   -0.06851  -0.06504  -0.06214  -0.05790  -0.05314

 Mulliken charges:
               1
     1  O   -0.523724
     2  C    0.248403
     3  N   -0.189745
     4  C   -0.622971
     5  C    0.730658
     6  O   -0.470199
     7  O   -0.432991
     8  C   -0.347649
     9  C    0.191791
    10  C   -0.127175
    11  N   -0.279665
    12  C    0.253664
    13  N   -0.273624
    14  C   -0.258612
    15  C   -0.191604
    16  N   -0.661094
    17  H    0.344700
    18  H    0.210342
    19  H    0.410510
    20  H    0.170901
    21  H    0.176272
    22  H    0.126597
    23  H    0.150545
    24  H    0.311146
    25  H    0.197420
    26  H    0.212043
    27  H    0.211469
    28  H    0.208313
    29  H    0.386128
    30  H    0.451492
    31  H    0.386660
 Sum of Mulliken charges =   1.00000

 Dipole moment (field-independent basis, Debye):
    X=            -12.2628    Y=             -2.4082    Z=              2.7862  Tot=             12.8039
 Quadrupole moment (field-independent basis, Debye-Ang):
   XX=             -4.9193   YY=            -89.6730   ZZ=            -97.3164
   XY=             -6.0328   XZ=             25.1902   YZ=              3.3812

  Exact polarizability: 172.128  -3.596 100.957  -7.375 -16.048 148.788
 Approx polarizability: 216.821 -13.485 151.239  -5.652 -19.866 232.424

                      1                      2                      3
                      A                      A                      A
 Frequencies --     27.7834                32.8026                52.1787
 Red. masses --      5.0511                 3.9013                 4.9316
 Frc consts  --      0.0023                 0.0025                 0.0079
 IR Inten    --      3.5270                 8.8294                 2.4271

                      4                      5                      6
                      A                      A                      A
 Frequencies --     61.1822                73.1542                97.0432
 Red. masses --      5.0605                 5.7943                 4.8704
 Frc consts  --      0.0112                 0.0183                 0.0270
 IR Inten    --      6.3679                 4.2124                 7.4514

                      7                      8                      9
                      A                      A                      A
 Frequencies --    113.4112               132.7792               187.2578
 Red. masses --      5.0957                 5.4933                 4.9813
 Frc consts  --      0.0386                 0.0571                 0.1029
 IR Inten    --      2.0921                 0.6308                 8.3830

                     10                     11                     12
                      A                      A                      A
 Frequencies --    205.8911               260.7271               287.5761
 Red. masses --      2.1921                 5.1913                 4.0082
 Frc consts  --      0.0548                 0.2079                 0.1953
 IR Inten    --     30.1613                61.4548                 3.4806

                     13                     14                     15
                      A                      A                      A
 Frequencies --    319.6775               344.9799               383.1898
 Red. masses --      2.1179                 6.2325                 4.2858
 Frc consts  --      0.1275                 0.4370                 0.3708
 IR Inten    --     12.9917                 1.9769                97.6248

                     16                     17                     18
                      A                      A                      A
 Frequencies --    388.7962               407.8372               452.7623
 Red. masses --      3.2741                 1.5029                 2.0600
 Frc consts  --      0.2916                 0.1473                 0.2488
 IR Inten    --     68.2007                 5.3937                 4.4204

                     19                     20                     21
                      A                      A                      A
 Frequencies --    540.2594               545.0618               588.1667
 Red. masses --      2.5604                 1.6731                 2.4274
 Frc consts  --      0.4403                 0.2929                 0.4948
 IR Inten    --     61.1334                57.3976                 7.1581

                     22                     23                     24
                      A                      A                      A
 Frequencies --    605.2137               639.7872               660.9847
 Red. masses --      2.2160                 3.0600                 2.0697
 Frc consts  --      0.4782                 0.7380                 0.5328
 IR Inten    --     28.7525                65.3447               117.2418

                     25                     26                     27
                      A                      A                      A
 Frequencies --    669.7830               674.4223               729.3892
 Red. masses --      1.2263                 2.6576                 3.1274
 Frc consts  --      0.3241                 0.7122                 0.9803
 IR Inten    --     34.8810                 1.7342                12.9704

                     28                     29                     30
                      A                      A                      A
 Frequencies --    734.6519               767.6687               818.2091
 Red. masses --      3.1701                 4.1303                 2.6012
 Frc consts  --      1.0081                 1.4341                 1.0260
 IR Inten    --     35.8806                 8.2102                 5.7134

                     31                     32                     33
                      A                      A                      A
 Frequencies --    828.7838               849.7932               854.9414
 Red. masses --      1.3763                 2.4634                 1.4532
 Frc consts  --      0.5570                 1.0481                 0.6258
 IR Inten    --     24.8288                35.8857                15.0382

                     34                     35                     36
                      A                      A                      A
 Frequencies --    885.2004               927.6268               947.4702
 Red. masses --      2.0652                 5.9394                 2.3771
 Frc consts  --      0.9534                 3.0112                 1.2573
 IR Inten    --     89.6771                 9.0028                 4.0731

                     37                     38                     39
                      A                      A                      A
 Frequencies --    954.4745               995.7076              1002.6453
 Red. masses --      1.3774                 4.0635                 3.3014
 Frc consts  --      0.7393                 2.3736                 1.9554
 IR Inten    --      5.1101                 1.6445                 3.9761

                     40                     41                     42
                      A                      A                      A
 Frequencies --   1021.3590              1028.7946              1094.9775
 Red. masses --      3.7627                 3.3235                 3.2437
 Frc consts  --      2.3127                 2.0726                 2.2914
 IR Inten    --     27.3115                13.5124                13.4714

                     43                     44                     45
                      A                      A                      A
 Frequencies --   1116.9294              1129.7206              1138.0170
 Red. masses --      1.6291                 1.3928                 1.5265
 Frc consts  --      1.1975                 1.0474                 1.1648
 IR Inten    --     35.2728               140.5377                40.4964

                     46                     47                     48
                      A                      A                      A
 Frequencies --   1156.9564              1187.8624              1194.1128
 Red. masses --      1.9094                 1.3156                 2.2511
 Frc consts  --      1.5059                 1.0938                 1.8912
 IR Inten    --     21.1259                 3.8111               183.5869

                     49                     50                     51
                      A                      A                      A
 Frequencies --   1254.6639              1271.8802              1277.6065
 Red. masses --      1.4606                 1.9302                 1.5169
 Frc consts  --      1.3547                 1.8397                 1.4588
 IR Inten    --     10.4905                 6.4647                 1.6416

                     52                     53                     54
                      A                      A                      A
 Frequencies --   1292.1574              1307.0469              1322.3787
 Red. masses --      1.3304                 1.3051                 1.2505
 Frc consts  --      1.3088                 1.3136                 1.2884
 IR Inten    --     16.0327                 3.7189                90.4046

                     55                     56                     57
                      A                      A                      A
 Frequencies --   1324.2743              1360.6395              1381.4926
 Red. masses --      1.3343                 1.5126                 1.6205
 Frc consts  --      1.3787                 1.6499                 1.8222
 IR Inten    --     10.1743                44.9315                 7.5866

                     58                     59                     60
                      A                      A                      A
 Frequencies --   1395.1083              1398.2996              1429.6458
 Red. masses --      2.9971                 1.3300                 2.3174
 Frc consts  --      3.4368                 1.5321                 2.7907
 IR Inten    --     58.7267               115.4973                71.0478

                     61                     62                     63
                      A                      A                      A
 Frequencies --   1438.4237              1462.8197              1470.5339
 Red. masses --      2.8632                 1.3044                 1.0871
 Frc consts  --      3.4904                 1.6445                 1.3851
 IR Inten    --     36.6010               531.2336                22.2753

                     64                     65                     66
                      A                      A                      A
 Frequencies --   1479.5559              1504.9932              1513.9094
 Red. masses --      1.1361                 3.5809                 1.0762
 Frc consts  --      1.4653                 4.7787                 1.4533
 IR Inten    --     10.7639                28.1664                37.7536

                     67                     68                     69
                      A                      A                      A
 Frequencies --   1574.3855              1608.8064              1634.0110
 Red. masses --      2.6922                 4.3029                 1.1524
 Frc consts  --      3.9316                 6.5618                 1.8129
 IR Inten    --    229.0617                 3.8462                26.9332

                     70                     71                     72
                      A                      A                      A
 Frequencies --   1684.6499              1704.0667              1811.7181
 Red. masses --      1.1717                 2.6199                 9.7954
 Frc consts  --      1.9591                 4.4824                18.9432
 IR Inten    --    110.3132               125.7557               330.4066

                     73                     74                     75
                      A                      A                      A
 Frequencies --   2487.4734              3044.4528              3051.9656
 Red. masses --      1.0952                 1.0692                 1.0681
 Frc consts  --      3.9927                 5.8387                 5.8617
 IR Inten    --   1263.4061                19.3437                 0.8094

                     76                     77                     78
                      A                      A                      A
 Frequencies --   3088.6125              3103.3709              3119.8384
 Red. masses --      1.0843                 1.0627                 1.0953
 Frc consts  --      6.0942                 6.0300                 6.2814
 IR Inten    --      3.2733                 2.1060                 0.5395

                     79                     80                     81
                      A                      A                      A
 Frequencies --   3121.7807              3163.5770              3252.2140
 Red. masses --      1.0956                 1.1113                 1.0963
 Frc consts  --      6.2910                 6.5527                 6.8318
 IR Inten    --      4.6048                 0.4448                 5.5761

                     82                     83                     84
                      A                      A                      A
 Frequencies --   3268.9021              3464.0410              3536.7061
 Red. masses --      1.0979                 1.0528                 1.0949
 Frc consts  --      6.9122                 7.4432                 8.0692
 IR Inten    --      0.8909                88.2941                80.0327

                     85                     86                     87
                      A                      A                      A
 Frequencies --   3540.7328              3663.0501              3727.8575
 Red. masses --      1.0789                 1.0814                 1.0647
 Frc consts  --      7.9689                 8.5493                 8.7175
 IR Inten    --    137.7926                81.4468               135.3346

 - Thermochemistry -
 -------------------
 Temperature   298.150 Kelvin.  Pressure   1.00000 Atm.
 Atom     1 has atomic number  8 and mass  15.99491

 Molecular mass:   227.11442 amu.
 Principal axes and moments of inertia in atomic units:
                           1         2         3
     Eigenvalues --  2483.028736104.259988240.24647
           X            0.97501   0.21768  -0.04441
           Y            0.12791  -0.38661   0.91333
           Z           -0.18164   0.89619   0.40479
 This molecule is an asymmetric top.
 Rotational symmetry number  1.
 Warning -- assumption of classical behavior for rotation
           may cause significant error
 Rotational temperatures (Kelvin)      0.03488     0.01419     0.01051
 Rotational constants (GHZ):           0.72683     0.29565     0.21902
 Zero-point vibrational energy     679811.7 (Joules/Mol)
                                  162.47890 (Kcal/Mol)
 Warning -- explicit consideration of  22 degrees of freedom as
           vibrations may cause significant error
 Vibrational temperatures:     39.97    47.20    75.07    88.03   105.25
          (Kelvin)            139.62   163.17   191.04   269.42   296.23
                              375.13   413.76   459.94   496.35   551.32
                              559.39   586.79   651.42   777.31   784.22
                              846.24   870.77   920.51   951.01   963.67
                              970.34  1049.43  1057.00  1104.50  1177.22
                             1192.43  1222.66  1230.07  1273.60  1334.65
                             1363.20  1373.27  1432.60  1442.58  1469.51
                             1480.20  1575.43  1607.01  1625.41  1637.35
                             1664.60  1709.07  1718.06  1805.18  1829.95
                             1838.19  1859.12  1880.55  1902.61  1905.33
                             1957.65  1987.66  2007.25  2011.84  2056.94
                             2069.57  2104.67  2115.77  2128.75  2165.35
                             2178.18  2265.19  2314.71  2350.97  2423.83
                             2451.77  2606.66  3578.91  4380.28  4391.09
                             4443.82  4465.05  4488.75  4491.54  4551.68
                             4679.20  4703.22  4983.98  5088.52  5094.32
                             5270.31  5363.55

 Zero-point correction=                           0.258927 (Hartree/Particle)
 Thermal correction to Energy=                    0.274520
 Thermal correction to Enthalpy=                  0.275464
 Thermal correction to Gibbs Free Energy=         0.213630
 Sum of electronic and zero-point Energies=           -796.273538
 Sum of electronic and thermal Energies=              -796.257945
 Sum of electronic and thermal Enthalpies=            -796.257001
 Sum of electronic and thermal Free Energies=         -796.318835

                     E (Thermal)             CV                S
                      KCal/Mol        Cal/Mol-Kelvin    Cal/Mol-Kelvin
 Total                  172.264             57.804            130.141
 Electronic               0.000              0.000              0.000
 Translational            0.889              2.981             42.163
 Rotational               0.889              2.981             33.190
 Vibrational            170.487             51.842             54.788
 Vibration     1          0.593              1.984              5.982
 Vibration     2          0.594              1.983              5.652
 Vibration     3          0.596              1.977              4.733
 Vibration     4          0.597              1.973              4.419
 Vibration     5          0.599              1.967              4.067
 Vibration     6          0.603              1.951              3.513
 Vibration     7          0.607              1.938              3.210
 Vibration     8          0.613              1.921              2.905
 Vibration     9          0.632              1.857              2.255
 Vibration    10          0.640              1.831              2.080
 Vibration    11          0.669              1.745              1.657
 Vibration    12          0.685              1.697              1.488
 Vibration    13          0.706              1.636              1.312
 Vibration    14          0.723              1.585              1.189
 Vibration    15          0.752              1.506              1.027
 Vibration    16          0.757              1.494              1.005
 Vibration    17          0.772              1.453              0.934
 Vibration    18          0.811              1.355              0.787
 Vibration    19          0.895              1.161              0.565
 Vibration    20          0.900              1.151              0.555
 Vibration    21          0.945              1.057              0.470
 Vibration    22          0.964              1.021              0.441

 Optimization completed.
    -- Stationary point found.
 Normal termination of Gaussian 09 at Wed Jul 28 23:45:53 2021.
