 Gaussian 09, Revision D.01,
 Gaussian 09:  ES64L-G09RevD.01 24-Apr-2013

 ----------------------------------------------------------------------
 # B3LYP/6-31+G(d,p) opt=calcfc freq=noraman nosymm integral(ultrafineg
 rid)
 ----------------------------------------------------------------------

 ------------------------------------------------------------
 Candidate Structure: Conf:862 OPT and FREQ calc in gas phase
 ------------------------------------------------------------
 Symbolic Z-matrix:
 Charge =  1 Multiplicity = 1

 SCF Done:  E(RB3LYP) =  -796.530787871     A.U. after   15 cycles
 SCF Done:  E(RB3LYP) =  -796.499310848     A.U. after   16 cycles
 SCF Done:  E(RB3LYP) =  -796.536564415     A.U. after   13 cycles
 SCF Done:  E(RB3LYP) =  -796.539407454     A.U. after   13 cycles
 SCF Done:  E(RB3LYP) =  -796.531354601     A.U. after   16 cycles
 SCF Done:  E(RB3LYP) =  -796.540139738     A.U. after   12 cycles
 SCF Done:  E(RB3LYP) =  -796.540349386     A.U. after   12 cycles
 SCF Done:  E(RB3LYP) =  -796.536196779     A.U. after   14 cycles
 SCF Done:  E(RB3LYP) =  -796.540765163     A.U. after   10 cycles
 SCF Done:  E(RB3LYP) =  -796.541690071     A.U. after   13 cycles
 SCF Done:  E(RB3LYP) =  -796.541824651     A.U. after   12 cycles
 SCF Done:  E(RB3LYP) =  -796.541892848     A.U. after   12 cycles
 SCF Done:  E(RB3LYP) =  -796.541904294     A.U. after   11 cycles
 SCF Done:  E(RB3LYP) =  -796.541911634     A.U. after   10 cycles
 SCF Done:  E(RB3LYP) =  -796.541914924     A.U. after   10 cycles
 SCF Done:  E(RB3LYP) =  -796.541916119     A.U. after   10 cycles
 SCF Done:  E(RB3LYP) =  -796.541916343     A.U. after    9 cycles
 Optimization completed.
    -- Stationary point found.
 Normal termination of Gaussian 09 at Thu Jul 29 00:06:27 2021.

 ----------------------------------------------------------------------
 #N Geom=AllCheck Guess=TCheck SCRF=Check GenChk RB3LYP/6-31+G(d,p) Fre
 q
 ----------------------------------------------------------------------

 Structure from the checkpoint file:  "conf-862.chk"
 ------------------------------------------------------------
 Candidate Structure: Conf:862 OPT and FREQ calc in gas phase
 ------------------------------------------------------------
 Charge =  1 Multiplicity = 1

                          Input orientation:
 ---------------------------------------------------------------------
 Center     Atomic      Atomic             Coordinates (Angstroms)
 Number     Number       Type             X           Y           Z
 ---------------------------------------------------------------------
      1          8           0       -0.707688    1.817085   -0.139574
      2          6           0        0.356595    1.270766    0.187459
      3          7           0        0.506076    0.570459    1.332733
      4          6           0       -0.619563    0.159098    2.157389
      5          6           0       -0.190633    0.213753    3.618069
      6          8           0       -1.247934    0.224464    4.441503
      7          8           0        0.967370    0.189867    3.976341
      8          6           0       -1.109218   -1.311066    1.815840
      9          6           0       -0.895552   -1.644182    0.371762
     10          6           0       -1.410333   -1.094903   -0.777525
     11          7           0       -0.682289   -1.490893   -1.884744
     12          6           0        0.237045   -2.326096   -1.422465
     13          7           0        0.152450   -2.439923   -0.069425
     14          6           0        1.563251    1.275560   -0.757885
     15          6           0        1.222275    1.806006   -2.156318
     16          7           0       -0.086514    1.244190   -2.663535
     17          1           0        1.425111    0.260028    1.627998
     18          1           0       -1.437502    0.858610    1.978857
     19          1           0       -0.930605    0.212045    5.362672
     20          1           0       -2.163701   -1.388530    2.093473
     21          1           0       -0.566594   -2.029759    2.439751
     22          1           0       -2.238053   -0.405501   -0.859440
     23          1           0        0.958521   -2.869169   -2.016571
     24          1           0        0.714232   -3.053662    0.506213
     25          1           0        1.966638    0.259575   -0.824402
     26          1           0        2.361162    1.904476   -0.345503
     27          1           0        2.006662    1.544993   -2.868493
     28          1           0        1.099528    2.890456   -2.148428
     29          1           0       -0.151779    0.194276   -2.644484
     30          1           0       -0.300555    1.575701   -3.606359
     31          1           0       -0.798301    1.582489   -1.986712
 ---------------------------------------------------------------------

 SCF Done:  E(RB3LYP) =  -796.541916343     A.U. after    1 cycles

 Alpha  occ. eigenvalues --  -19.33217 -19.27951 -19.27843 -14.59157 -14.53760
 Alpha  occ. eigenvalues --  -14.51425 -14.47121 -10.45691 -10.45117 -10.40934
 Alpha  occ. eigenvalues --  -10.38736 -10.38402 -10.36546 -10.36438 -10.34693
 Alpha  occ. eigenvalues --  -10.33920  -1.24138  -1.19680  -1.16049  -1.15411
 Alpha  occ. eigenvalues --   -1.13951  -1.07980  -1.01772  -0.95213  -0.93039
 Alpha  occ. eigenvalues --   -0.88704  -0.82957  -0.81069  -0.76179  -0.75599
 Alpha  occ. eigenvalues --   -0.74020  -0.73237  -0.72409  -0.71731  -0.68304
 Alpha  occ. eigenvalues --   -0.66523  -0.64278  -0.63142  -0.62356  -0.61380
 Alpha  occ. eigenvalues --   -0.60266  -0.59238  -0.58911  -0.57818  -0.56355
 Alpha  occ. eigenvalues --   -0.55682  -0.55115  -0.54518  -0.54409  -0.53706
 Alpha  occ. eigenvalues --   -0.52862  -0.50949  -0.50479  -0.45318  -0.43777
 Alpha  occ. eigenvalues --   -0.42546  -0.42230  -0.41205  -0.40977  -0.36722
 Alpha virt. eigenvalues --   -0.14819  -0.14195  -0.13957  -0.12469  -0.11829
 Alpha virt. eigenvalues --   -0.10610  -0.09927  -0.09746  -0.09063  -0.08720
 Alpha virt. eigenvalues --   -0.08018  -0.07096  -0.06203  -0.05974  -0.05729

 Mulliken charges:
               1
     1  O   -0.473409
     2  C    0.031837
     3  N   -0.224063
     4  C   -0.393423
     5  C    0.610692
     6  O   -0.390725
     7  O   -0.403796
     8  C   -0.521905
     9  C    0.569964
    10  C   -0.342703
    11  N   -0.310823
    12  C    0.114381
    13  N   -0.312395
    14  C   -0.063867
    15  C   -0.274501
    16  N   -0.635225
    17  H    0.340756
    18  H    0.217052
    19  H    0.393177
    20  H    0.209260
    21  H    0.162815
    22  H    0.159299
    23  H    0.169847
    24  H    0.323210
    25  H    0.191789
    26  H    0.213530
    27  H    0.195379
    28  H    0.205970
    29  H    0.426221
    30  H    0.390682
    31  H    0.420976
 Sum of Mulliken charges =   1.00000

 Dipole moment (field-independent basis, Debye):
    X=              2.5559    Y=              0.3096    Z=             -3.4914  Tot=              4.3381
 Quadrupole moment (field-independent basis, Debye-Ang):
   XX=            -85.8120   YY=            -74.7443   ZZ=            -52.6331
   XY=             -0.0485   XZ=            -12.2104   YZ=            -16.8422

  Exact polarizability: 121.657  -2.890 119.214  -6.890  -6.539 163.455
 Approx polarizability: 205.835 -23.909 173.902   1.213 -14.024 222.436

                      1                      2                      3
                      A                      A                      A
 Frequencies --     40.0409                53.4843                81.0064
 Red. masses --      5.0398                 8.0068                 3.9054
 Frc consts  --      0.0048                 0.0135                 0.0151
 IR Inten    --      3.1145                 1.2271                 1.2331

                      4                      5                      6
                      A                      A                      A
 Frequencies --    106.7661               109.4685               118.7756
 Red. masses --      4.7027                 5.6988                 4.0123
 Frc consts  --      0.0316                 0.0402                 0.0334
 IR Inten    --     10.7706                 6.4238                 5.2925

                      7                      8                      9
                      A                      A                      A
 Frequencies --    135.3200               151.6701               169.8117
 Red. masses --      3.7374                 4.7521                 5.0415
 Frc consts  --      0.0403                 0.0644                 0.0857
 IR Inten    --     25.7032                 6.6798                12.2341

                     10                     11                     12
                      A                      A                      A
 Frequencies --    195.1452               256.3072               305.3273
 Red. masses --      2.2999                 4.2722                 5.7620
 Frc consts  --      0.0516                 0.1654                 0.3165
 IR Inten    --     25.4887                40.7509                 1.0015

                     13                     14                     15
                      A                      A                      A
 Frequencies --    312.5563               329.2343               345.9038
 Red. masses --      2.8279                 3.3987                 3.9347
 Frc consts  --      0.1628                 0.2171                 0.2774
 IR Inten    --      6.0419                 7.4994                33.8938

                     16                     17                     18
                      A                      A                      A
 Frequencies --    406.0530               430.9584               454.1436
 Red. masses --      2.9218                 1.8162                 1.6670
 Frc consts  --      0.2838                 0.1987                 0.2026
 IR Inten    --      8.6516                12.6254                 2.3665

                     19                     20                     21
                      A                      A                      A
 Frequencies --    524.6614               547.3173               593.6721
 Red. masses --      1.8611                 3.7259                 1.8189
 Frc consts  --      0.3018                 0.6576                 0.3777
 IR Inten    --     81.0555                21.8310               104.7807

                     22                     23                     24
                      A                      A                      A
 Frequencies --    618.7490               622.9857               631.9345
 Red. masses --      1.7601                 1.3491                 3.4957
 Frc consts  --      0.3970                 0.3085                 0.8225
 IR Inten    --      3.6168                58.0734                78.8644

                     25                     26                     27
                      A                      A                      A
 Frequencies --    676.1398               685.3392               687.2530
 Red. masses --      2.7416                 2.3959                 3.0728
 Frc consts  --      0.7385                 0.6630                 0.8551
 IR Inten    --     67.5176                 2.9071                 2.1715

                     28                     29                     30
                      A                      A                      A
 Frequencies --    715.1308               766.7768               821.5895
 Red. masses --      3.1801                 4.2949                 1.4138
 Frc consts  --      0.9582                 1.4878                 0.5623
 IR Inten    --      9.5740                20.5818                12.5788

                     31                     32                     33
                      A                      A                      A
 Frequencies --    840.3145               850.1797               866.4551
 Red. masses --      2.4890                 1.9355                 1.6613
 Frc consts  --      1.0355                 0.8243                 0.7349
 IR Inten    --     12.7907                19.2552                19.0774

                     34                     35                     36
                      A                      A                      A
 Frequencies --    876.9534               926.8437               937.7990
 Red. masses --      2.1044                 2.6857                 5.5549
 Frc consts  --      0.9535                 1.3593                 2.8784
 IR Inten    --      4.9512                14.2676                 8.3309

                     37                     38                     39
                      A                      A                      A
 Frequencies --    957.8373               976.5220               997.8936
 Red. masses --      3.4664                 1.5158                 3.1292
 Frc consts  --      1.8737                 0.8516                 1.8359
 IR Inten    --      0.8681                 3.3021                15.0662

                     40                     41                     42
                      A                      A                      A
 Frequencies --   1028.1441              1041.0906              1100.3740
 Red. masses --      3.5095                 3.1127                 2.2890
 Frc consts  --      2.1858                 1.9878                 1.6330
 IR Inten    --      3.9671                10.9889                14.8535

                     43                     44                     45
                      A                      A                      A
 Frequencies --   1121.6824              1135.0660              1140.3207
 Red. masses --      1.5109                 1.8784                 1.7136
 Frc consts  --      1.1201                 1.4259                 1.3128
 IR Inten    --    101.5792                16.4853                11.4391

                     46                     47                     48
                      A                      A                      A
 Frequencies --   1142.8577              1166.7202              1204.8336
 Red. masses --      1.4803                 1.8334                 1.7842
 Frc consts  --      1.1392                 1.4704                 1.5260
 IR Inten    --     38.8539               157.6807                44.6880

                     49                     50                     51
                      A                      A                      A
 Frequencies --   1250.4806              1257.8642              1277.2578
 Red. masses --      1.5679                 1.9264                 1.4275
 Frc consts  --      1.4445                 1.7958                 1.3721
 IR Inten    --      2.4051                12.0466                 2.1809

                     52                     53                     54
                      A                      A                      A
 Frequencies --   1281.4719              1298.0543              1340.4189
 Red. masses --      1.3333                 1.5744                 1.5311
 Frc consts  --      1.2900                 1.5629                 1.6208
 IR Inten    --     16.8943                 5.1290                 8.7912

                     55                     56                     57
                      A                      A                      A
 Frequencies --   1342.1599              1352.1742              1388.2834
 Red. masses --      1.3845                 1.2353                 1.6473
 Frc consts  --      1.4695                 1.3307                 1.8706
 IR Inten    --      6.9017                 9.4191                65.4996

                     58                     59                     60
                      A                      A                      A
 Frequencies --   1397.9855              1420.8914              1424.6747
 Red. masses --      2.4058                 2.3742                 1.3321
 Frc consts  --      2.7703                 2.8241                 1.5931
 IR Inten    --      2.7947               169.0786                 6.8592

                     61                     62                     63
                      A                      A                      A
 Frequencies --   1444.6002              1469.7648              1489.7077
 Red. masses --      2.7420                 1.0955                 1.2069
 Frc consts  --      3.3715                 1.3943                 1.5780
 IR Inten    --     20.1783                21.8675                15.5369

                     64                     65                     66
                      A                      A                      A
 Frequencies --   1499.4198              1505.9921              1512.1596
 Red. masses --      1.4881                 1.5001                 1.2856
 Frc consts  --      1.9712                 2.0045                 1.7321
 IR Inten    --     72.3153                47.7756               120.8446

                     67                     68                     69
                      A                      A                      A
 Frequencies --   1562.4496              1619.0846              1646.4148
 Red. masses --      2.1904                 4.1457                 1.1191
 Frc consts  --      3.1505                 6.4030                 1.7873
 IR Inten    --    199.7239                14.5766                65.9300

                     70                     71                     72
                      A                      A                      A
 Frequencies --   1702.4409              1718.7423              1818.2791
 Red. masses --      1.2650                 2.7590                10.2915
 Frc consts  --      2.1602                 4.8019                20.0469
 IR Inten    --    251.4497                59.8876               281.7261

                     73                     74                     75
                      A                      A                      A
 Frequencies --   2995.1609              3063.4091              3064.1219
 Red. masses --      1.0782                 1.0614                 1.0653
 Frc consts  --      5.6990                 5.8687                 5.8928
 IR Inten    --    741.4320                 5.7045                 9.3707

                     76                     77                     78
                      A                      A                      A
 Frequencies --   3103.4260              3110.5583              3120.7112
 Red. masses --      1.0879                 1.0751                 1.0988
 Frc consts  --      6.1732                 6.1286                 6.3051
 IR Inten    --      2.8511                 3.0628                 1.8232

                     79                     80                     81
                      A                      A                      A
 Frequencies --   3140.2957              3165.3976              3229.0224
 Red. masses --      1.0879                 1.1105                 1.0699
 Frc consts  --      6.3208                 6.5561                 6.5724
 IR Inten    --      3.6023                 2.8957               205.1182

                     82                     83                     84
                      A                      A                      A
 Frequencies --   3270.5329              3274.7740              3512.6272
 Red. masses --      1.0962                 1.0999                 1.0799
 Frc consts  --      6.9081                 6.9499                 7.8504
 IR Inten    --      0.4953                 4.7688               121.7586

                     85                     86                     87
                      A                      A                      A
 Frequencies --   3593.7859              3636.9930              3732.6372
 Red. masses --      1.0782                 1.0822                 1.0648
 Frc consts  --      8.2042                 8.4344                 8.7404
 IR Inten    --     71.8461                85.1474               134.4127

 - Thermochemistry -
 -------------------
 Temperature   298.150 Kelvin.  Pressure   1.00000 Atm.
 Atom     1 has atomic number  8 and mass  15.99491

 Molecular mass:   227.11442 amu.
 Principal axes and moments of inertia in atomic units:
                           1         2         3
     Eigenvalues --  2254.125834562.752375739.10990
           X           -0.09765   0.30267   0.94808
           Y           -0.03285   0.95113  -0.30702
           Z            0.99468   0.06112   0.08293
 This molecule is an asymmetric top.
 Rotational symmetry number  1.
 Warning -- assumption of classical behavior for rotation
           may cause significant error
 Rotational temperatures (Kelvin)      0.03842     0.01898     0.01509
 Rotational constants (GHZ):           0.80064     0.39554     0.31446
 Zero-point vibrational energy     683304.8 (Joules/Mol)
                                  163.31376 (Kcal/Mol)
 Warning -- explicit consideration of  22 degrees of freedom as
           vibrations may cause significant error
 Vibrational temperatures:     57.61    76.95   116.55   153.61   157.50
          (Kelvin)            170.89   194.70   218.22   244.32   280.77
                              368.77   439.30   449.70   473.69   497.68
                              584.22   620.05   653.41   754.87   787.47
                              854.16   890.24   896.34   909.21   972.81
                              986.05   988.80  1028.91  1103.22  1182.08
                             1209.02  1223.22  1246.63  1261.74  1333.52
                             1349.28  1378.11  1405.00  1435.74  1479.27
                             1497.90  1583.19  1613.85  1633.10  1640.67
                             1644.32  1678.65  1733.48  1799.16  1809.78
                             1837.69  1843.75  1867.61  1928.56  1931.07
                             1945.47  1997.43  2011.39  2044.34  2049.79
                             2078.45  2114.66  2143.35  2157.33  2166.78
                             2175.66  2248.01  2329.50  2368.82  2449.43
                             2472.88  2616.09  4309.36  4407.56  4408.58
                             4465.13  4475.39  4490.00  4518.18  4554.30
                             4645.84  4705.56  4711.66  5053.88  5170.65
                             5232.82  5370.43

 Zero-point correction=                           0.260257 (Hartree/Particle)
 Thermal correction to Energy=                    0.275536
 Thermal correction to Enthalpy=                  0.276481
 Thermal correction to Gibbs Free Energy=         0.217371
 Sum of electronic and zero-point Energies=           -796.281659
 Sum of electronic and thermal Energies=              -796.266380
 Sum of electronic and thermal Enthalpies=            -796.265436
 Sum of electronic and thermal Free Energies=         -796.324545

                     E (Thermal)             CV                S
                      KCal/Mol        Cal/Mol-Kelvin    Cal/Mol-Kelvin
 Total                  172.902             57.845            124.406
 Electronic               0.000              0.000              0.000
 Translational            0.889              2.981             42.163
 Rotational               0.889              2.981             32.446
 Vibrational            171.124             51.883             49.798
 Vibration     1          0.594              1.981              5.257
 Vibration     2          0.596              1.976              4.684
 Vibration     3          0.600              1.962              3.866
 Vibration     4          0.606              1.944              3.327
 Vibration     5          0.606              1.942              3.278
 Vibration     6          0.609              1.934              3.120
 Vibration     7          0.613              1.918              2.869
 Vibration     8          0.619              1.901              2.651
 Vibration     9          0.625              1.880              2.438
 Vibration    10          0.636              1.847              2.178
 Vibration    11          0.666              1.752              1.687
 Vibration    12          0.696              1.664              1.388
 Vibration    13          0.701              1.650              1.349
 Vibration    14          0.712              1.617              1.264
 Vibration    15          0.724              1.584              1.185
 Vibration    16          0.771              1.457              0.941
 Vibration    17          0.792              1.403              0.856
 Vibration    18          0.813              1.352              0.783
 Vibration    19          0.880              1.195              0.599
 Vibration    20          0.903              1.146              0.550
 Vibration    21          0.951              1.045              0.461
 Vibration    22          0.979              0.992              0.419

 Optimization completed.
    -- Stationary point found.
 Normal termination of Gaussian 09 at Thu Jul 29 00:53:26 2021.
