 Gaussian 09, Revision D.01,
 Gaussian 09:  ES64L-G09RevD.01 24-Apr-2013

 ----------------------------------------------------------------------
 # B3LYP/6-31+G(d,p) opt=calcfc freq=noraman nosymm integral(ultrafineg
 rid)
 ----------------------------------------------------------------------

 ------------------------------------------------------------
 Candidate Structure: Conf:661 OPT and FREQ calc in gas phase
 ------------------------------------------------------------
 Symbolic Z-matrix:
 Charge =  1 Multiplicity = 1

 SCF Done:  E(RB3LYP) =  -796.504323383     A.U. after   15 cycles
 SCF Done:  E(RB3LYP) =  -796.507005756     A.U. after   15 cycles
 SCF Done:  E(RB3LYP) =  -796.513892923     A.U. after   14 cycles
 SCF Done:  E(RB3LYP) =  -796.513944433     A.U. after   15 cycles
 SCF Done:  E(RB3LYP) =  -796.517756766     A.U. after   14 cycles
 SCF Done:  E(RB3LYP) =  -792.261138184     A.U. after   23 cycles
 SCF Done:  E(RB3LYP) =  -796.518055176     A.U. after   12 cycles
 SCF Done:  E(RB3LYP) =  -796.520394598     A.U. after   12 cycles
 SCF Done:  E(RB3LYP) =  -796.521882111     A.U. after   13 cycles
 SCF Done:  E(RB3LYP) =  -796.522376910     A.U. after   13 cycles
 SCF Done:  E(RB3LYP) =  -796.522463662     A.U. after   12 cycles
 SCF Done:  E(RB3LYP) =  -796.522545526     A.U. after   13 cycles
 SCF Done:  E(RB3LYP) =  -796.522597890     A.U. after   12 cycles
 SCF Done:  E(RB3LYP) =  -796.522638630     A.U. after   12 cycles
 SCF Done:  E(RB3LYP) =  -796.522656287     A.U. after   11 cycles
 SCF Done:  E(RB3LYP) =  -796.522664232     A.U. after   10 cycles
 SCF Done:  E(RB3LYP) =  -796.522665634     A.U. after   11 cycles
 SCF Done:  E(RB3LYP) =  -796.522665717     A.U. after    9 cycles
 Optimization completed.
    -- Stationary point found.
 Normal termination of Gaussian 09 at Thu Jul 29 00:06:19 2021.

 ----------------------------------------------------------------------
 #N Geom=AllCheck Guess=TCheck SCRF=Check GenChk RB3LYP/6-31+G(d,p) Fre
 q
 ----------------------------------------------------------------------

 Structure from the checkpoint file:  "conf-661.chk"
 ------------------------------------------------------------
 Candidate Structure: Conf:661 OPT and FREQ calc in gas phase
 ------------------------------------------------------------
 Charge =  1 Multiplicity = 1

                          Input orientation:
 ---------------------------------------------------------------------
 Center     Atomic      Atomic             Coordinates (Angstroms)
 Number     Number       Type             X           Y           Z
 ---------------------------------------------------------------------
      1          8           0        2.109832    1.149307    0.877785
      2          6           0        1.401418    0.939085   -0.101867
      3          7           0        0.164863    0.377753    0.008217
      4          6           0       -0.274750   -0.143381    1.282912
      5          6           0        0.735910   -1.210714    1.750674
      6          8           0        0.746923   -1.516743    3.044505
      7          8           0        1.460506   -1.829434    0.986066
      8          6           0       -1.689279   -0.800525    1.146895
      9          6           0       -2.663214    0.029636    0.377585
     10          6           0       -3.101309   -0.082759   -0.926769
     11          7           0       -3.958963    0.941717   -1.250778
     12          6           0       -4.051924    1.675013   -0.163407
     13          7           0       -3.280705    1.175342    0.852937
     14          6           0        1.963192    1.084975   -1.514352
     15          6           0        3.199445    0.184483   -1.605510
     16          7           0        2.846189   -1.270003   -1.328019
     17          1           0       -0.489731    0.362041   -0.766850
     18          1           0       -0.301666    0.662225    2.028268
     19          1           0        0.196358   -0.923024    3.579062
     20          1           0       -2.060009   -1.033033    2.151790
     21          1           0       -1.582374   -1.757357    0.625389
     22          1           0       -2.872531   -0.870392   -1.633596
     23          1           0       -4.656265    2.563995   -0.047573
     24          1           0       -3.234171    1.547231    1.791375
     25          1           0        2.296375    2.115412   -1.670598
     26          1           0        1.229834    0.846277   -2.292460
     27          1           0        3.923989    0.472601   -0.842599
     28          1           0        3.665648    0.222412   -2.591524
     29          1           0        3.694046   -1.839799   -1.253207
     30          1           0        2.300725   -1.404230   -0.430778
     31          1           0        2.281233   -1.668004   -2.083571
 ---------------------------------------------------------------------

 SCF Done:  E(RB3LYP) =  -796.522665717     A.U. after    1 cycles

 Alpha  occ. eigenvalues --  -19.35818 -19.30601 -19.27484 -14.61714 -14.51985
 Alpha  occ. eigenvalues --  -14.51332 -14.43031 -10.48641 -10.44560 -10.41828
 Alpha  occ. eigenvalues --  -10.40195 -10.36654 -10.35656 -10.35596 -10.34900
 Alpha  occ. eigenvalues --  -10.32058  -1.26698  -1.19817  -1.18119  -1.16044
 Alpha  occ. eigenvalues --   -1.13350  -1.08530  -0.99032  -0.95883  -0.93546
 Alpha  occ. eigenvalues --   -0.87716  -0.83161  -0.80499  -0.78318  -0.75546
 Alpha  occ. eigenvalues --   -0.74506  -0.73942  -0.73169  -0.71278  -0.68961
 Alpha  occ. eigenvalues --   -0.66644  -0.66258  -0.65260  -0.64962  -0.61297
 Alpha  occ. eigenvalues --   -0.60305  -0.59205  -0.58291  -0.57500  -0.56641
 Alpha  occ. eigenvalues --   -0.55986  -0.54633  -0.53932  -0.53266  -0.52754
 Alpha  occ. eigenvalues --   -0.52514  -0.52154  -0.50694  -0.47792  -0.44697
 Alpha  occ. eigenvalues --   -0.41807  -0.41243  -0.40024  -0.38153  -0.34981
 Alpha virt. eigenvalues --   -0.16587  -0.15972  -0.14791  -0.13037  -0.11959
 Alpha virt. eigenvalues --   -0.10813  -0.10053  -0.09703  -0.09022  -0.08676
 Alpha virt. eigenvalues --   -0.07798  -0.07129  -0.05871  -0.05840  -0.05370

 Mulliken charges:
               1
     1  O   -0.402926
     2  C    0.101620
     3  N   -0.241780
     4  C   -0.347105
     5  C    0.327295
     6  O   -0.319552
     7  O   -0.451576
     8  C   -0.655487
     9  C    0.413204
    10  C   -0.058065
    11  N   -0.247710
    12  C    0.251691
    13  N   -0.318488
    14  C   -0.117950
    15  C   -0.189143
    16  N   -0.693559
    17  H    0.333783
    18  H    0.182695
    19  H    0.371768
    20  H    0.176229
    21  H    0.187784
    22  H    0.139128
    23  H    0.161974
    24  H    0.307227
    25  H    0.220260
    26  H    0.166390
    27  H    0.235817
    28  H    0.199014
    29  H    0.396117
    30  H    0.478254
    31  H    0.393090
 Sum of Mulliken charges =   1.00000

 Dipole moment (field-independent basis, Debye):
    X=              5.5248    Y=             -1.6554    Z=             -1.5126  Tot=              5.9626
 Quadrupole moment (field-independent basis, Debye-Ang):
   XX=            -62.8793   YY=            -84.4771   ZZ=            -68.6401
   XY=            -13.6708   XZ=            -39.0810   YZ=              9.6312

  Exact polarizability: 156.507 -16.056 121.045   0.458  -3.901 140.961
 Approx polarizability: 202.492 -18.756 182.997  11.796   7.972 223.623

                      1                      2                      3
                      A                      A                      A
 Frequencies --     33.1046                39.9571                60.8481
 Red. masses --      4.0939                 4.0386                 7.1325
 Frc consts  --      0.0026                 0.0038                 0.0156
 IR Inten    --     13.9798                 0.9397                13.3404

                      4                      5                      6
                      A                      A                      A
 Frequencies --     66.4709                80.0748               111.4530
 Red. masses --      4.2573                 5.5086                 4.8749
 Frc consts  --      0.0111                 0.0208                 0.0357
 IR Inten    --      3.8239                 6.9468                 6.3649

                      7                      8                      9
                      A                      A                      A
 Frequencies --    147.8147               158.5889               176.4531
 Red. masses --      5.2698                 5.9375                 6.7611
 Frc consts  --      0.0678                 0.0880                 0.1240
 IR Inten    --     23.5429                 3.5160                11.3028

                     10                     11                     12
                      A                      A                      A
 Frequencies --    212.1562               246.9219               275.2948
 Red. masses --      3.9095                 2.6646                 5.8396
 Frc consts  --      0.1037                 0.0957                 0.2608
 IR Inten    --     72.3730                11.8105                 9.8030

                     13                     14                     15
                      A                      A                      A
 Frequencies --    318.5721               335.9663               343.8099
 Red. masses --      3.1674                 1.1482                 3.1892
 Frc consts  --      0.1894                 0.0764                 0.2221
 IR Inten    --      9.4120                 0.1781                 4.5475

                     16                     17                     18
                      A                      A                      A
 Frequencies --    377.6443               419.5854               436.5848
 Red. masses --      3.5010                 3.8243                 2.5208
 Frc consts  --      0.2942                 0.3967                 0.2831
 IR Inten    --     13.4538                34.9816                 4.8723

                     19                     20                     21
                      A                      A                      A
 Frequencies --    488.5935               512.7976               528.7702
 Red. masses --      1.1680                 1.2318                 1.8725
 Frc consts  --      0.1643                 0.1909                 0.3085
 IR Inten    --     52.9937                45.6520                51.9626

                     22                     23                     24
                      A                      A                      A
 Frequencies --    544.7101               626.2952               646.5964
 Red. masses --      2.0137                 4.4191                 3.0886
 Frc consts  --      0.3520                 1.0213                 0.7608
 IR Inten    --     66.6229                 6.8388                 9.2904

                     25                     26                     27
                      A                      A                      A
 Frequencies --    672.1480               692.6461               705.9706
 Red. masses --      3.1060                 3.7528                 4.6202
 Frc consts  --      0.8268                 1.0608                 1.3567
 IR Inten    --      5.2450                 8.4640                16.7172

                     28                     29                     30
                      A                      A                      A
 Frequencies --    733.3762               774.4939               835.4663
 Red. masses --      2.5319                 5.7415                 3.1121
 Frc consts  --      0.8023                 2.0291                 1.2799
 IR Inten    --      1.1824                 2.6301                 1.7242

                     31                     32                     33
                      A                      A                      A
 Frequencies --    841.9660               846.5944               865.3198
 Red. masses --      1.3788                 1.7970                 1.8018
 Frc consts  --      0.5759                 0.7588                 0.7949
 IR Inten    --     27.6177                11.8421                 8.5428

                     34                     35                     36
                      A                      A                      A
 Frequencies --    872.1559               924.9668               929.9187
 Red. masses --      2.0927                 5.9995                 2.5374
 Frc consts  --      0.9379                 3.0243                 1.2928
 IR Inten    --     15.1770                 6.7647                 6.0145

                     37                     38                     39
                      A                      A                      A
 Frequencies --    949.6860               955.0927              1002.3008
 Red. masses --      1.3427                 3.2362                 2.8545
 Frc consts  --      0.7135                 1.7393                 1.6896
 IR Inten    --      9.5811                 6.6135                10.6959

                     40                     41                     42
                      A                      A                      A
 Frequencies --   1010.9067              1041.2375              1093.9300
 Red. masses --      3.6215                 3.0048                 1.5799
 Frc consts  --      2.1805                 1.9194                 1.1139
 IR Inten    --     13.6020                 4.3350                 4.5475

                     43                     44                     45
                      A                      A                      A
 Frequencies --   1110.7817              1116.1822              1143.2287
 Red. masses --      1.7008                 1.3629                 2.0119
 Frc consts  --      1.2364                 1.0005                 1.5493
 IR Inten    --     22.6419                 7.4892                24.5156

                     46                     47                     48
                      A                      A                      A
 Frequencies --   1156.4920              1183.7953              1205.4529
 Red. masses --      1.9836                 1.4327                 1.6960
 Frc consts  --      1.5631                 1.1829                 1.4520
 IR Inten    --     16.9927                36.0191                16.9476

                     49                     50                     51
                      A                      A                      A
 Frequencies --   1240.7770              1265.4992              1277.3992
 Red. masses --      1.6330                 1.9620                 1.4811
 Frc consts  --      1.4813                 1.8512                 1.4239
 IR Inten    --     84.5501                 3.6062                12.6423

                     52                     53                     54
                      A                      A                      A
 Frequencies --   1282.2791              1307.0710              1329.3576
 Red. masses --      1.5535                 1.4389                 1.6677
 Frc consts  --      1.5050                 1.4484                 1.7364
 IR Inten    --     60.4814                78.0206               193.8907

                     55                     56                     57
                      A                      A                      A
 Frequencies --   1340.6001              1359.0268              1386.0679
 Red. masses --      1.4239                 1.4799                 1.4165
 Frc consts  --      1.5078                 1.6104                 1.6033
 IR Inten    --     36.6897                11.1012                 6.0902

                     58                     59                     60
                      A                      A                      A
 Frequencies --   1395.8102              1402.1259              1412.0949
 Red. masses --      3.0677                 1.8933                 1.2992
 Frc consts  --      3.5214                 2.1930                 1.5264
 IR Inten    --     11.9613               116.5449                 2.3989

                     61                     62                     63
                      A                      A                      A
 Frequencies --   1434.8210              1480.3409              1482.7309
 Red. masses --      2.8158                 1.0987                 1.1772
 Frc consts  --      3.4154                 1.4186                 1.5249
 IR Inten    --     27.9028                15.9838                18.2071

                     64                     65                     66
                      A                      A                      A
 Frequencies --   1501.2468              1506.8157              1525.0049
 Red. masses --      1.0781                 3.3193                 2.2384
 Frc consts  --      1.4316                 4.4404                 3.0672
 IR Inten    --     18.2745                38.7139               330.6948

                     67                     68                     69
                      A                      A                      A
 Frequencies --   1582.5807              1606.3391              1676.6252
 Red. masses --      1.1568                 4.2219                 1.0484
 Frc consts  --      1.7070                 6.4185                 1.7364
 IR Inten    --    111.0579                 6.3780                66.6568

                     70                     71                     72
                      A                      A                      A
 Frequencies --   1688.6592              1749.9924              1779.3877
 Red. masses --      1.0589                 7.6013                 9.1648
 Frc consts  --      1.7790                13.7155                17.0967
 IR Inten    --     23.7532               249.1987               412.4901

                     73                     74                     75
                      A                      A                      A
 Frequencies --   2894.4695              3042.9974              3054.8759
 Red. masses --      1.0839                 1.0851                 1.0623
 Frc consts  --      5.3501                 5.9200                 5.8407
 IR Inten    --   1136.8982                 9.2066                13.3525

                     76                     77                     78
                      A                      A                      A
 Frequencies --   3067.7815              3104.7106              3109.9198
 Red. masses --      1.0632                 1.1028                 1.0617
 Frc consts  --      5.8953                 6.2630                 6.0499
 IR Inten    --      6.9605                 5.8410                 2.2003

                     79                     80                     81
                      A                      A                      A
 Frequencies --   3126.0421              3175.3407              3242.5706
 Red. masses --      1.1015                 1.1117                 1.0964
 Frc consts  --      6.3421                 6.6041                 6.7918
 IR Inten    --      2.6772                 0.1852                 4.0477

                     82                     83                     84
                      A                      A                      A
 Frequencies --   3271.5423              3453.8147              3516.5201
 Red. masses --      1.0984                 1.0547                 1.0928
 Frc consts  --      6.9262                 7.4128                 7.9619
 IR Inten    --      1.8495                88.4242                73.8461

                     85                     86                     87
                      A                      A                      A
 Frequencies --   3565.2254              3647.3446              3782.5226
 Red. masses --      1.0796                 1.0818                 1.0667
 Frc consts  --      8.0852                 8.4789                 8.9922
 IR Inten    --    160.6162                60.8918                83.4781

 - Thermochemistry -
 -------------------
 Temperature   298.150 Kelvin.  Pressure   1.00000 Atm.
 Atom     1 has atomic number  8 and mass  15.99491

 Molecular mass:   227.11442 amu.
 Principal axes and moments of inertia in atomic units:
                           1         2         3
     Eigenvalues --  2325.910335489.170066657.61428
           X            0.98093  -0.08030   0.17702
           Y           -0.19379  -0.47465   0.85858
           Z           -0.01508   0.87651   0.48115
 This molecule is an asymmetric top.
 Rotational symmetry number  1.
 Warning -- assumption of classical behavior for rotation
           may cause significant error
 Rotational temperatures (Kelvin)      0.03724     0.01578     0.01301
 Rotational constants (GHZ):           0.77593     0.32878     0.27108
 Zero-point vibrational energy     681401.9 (Joules/Mol)
                                  162.85897 (Kcal/Mol)
 Warning -- explicit consideration of  22 degrees of freedom as
           vibrations may cause significant error
 Vibrational temperatures:     47.63    57.49    87.55    95.64   115.21
          (Kelvin)            160.36   212.67   228.17   253.88   305.25
                              355.27   396.09   458.35   483.38   494.67
                              543.35   603.69   628.15   702.98   737.80
                              760.78   783.72   901.10   930.31   967.07
                              996.56  1015.73  1055.16  1114.32  1202.05
                             1211.40  1218.06  1245.00  1254.84  1330.82
                             1337.94  1366.38  1374.16  1442.09  1454.47
                             1498.11  1573.92  1598.17  1605.94  1644.85
                             1663.93  1703.22  1734.38  1785.20  1820.77
                             1837.89  1844.91  1880.58  1912.65  1928.82
                             1955.33  1994.24  2008.26  2017.34  2031.69
                             2064.38  2129.88  2133.32  2159.96  2167.97
                             2194.14  2276.98  2311.16  2412.29  2429.60
                             2517.85  2560.14  4164.49  4378.19  4395.28
                             4413.85  4466.98  4474.48  4497.67  4568.60
                             4665.33  4707.01  4969.26  5059.48  5129.56
                             5247.71  5442.20

 Zero-point correction=                           0.259532 (Hartree/Particle)
 Thermal correction to Energy=                    0.275180
 Thermal correction to Enthalpy=                  0.276124
 Thermal correction to Gibbs Free Energy=         0.215199
 Sum of electronic and zero-point Energies=           -796.263133
 Sum of electronic and thermal Energies=              -796.247486
 Sum of electronic and thermal Enthalpies=            -796.246542
 Sum of electronic and thermal Free Energies=         -796.307466

                     E (Thermal)             CV                S
                      KCal/Mol        Cal/Mol-Kelvin    Cal/Mol-Kelvin
 Total                  172.678             58.428            128.227
 Electronic               0.000              0.000              0.000
 Translational            0.889              2.981             42.163
 Rotational               0.889              2.981             32.808
 Vibrational            170.901             52.466             53.256
 Vibration     1          0.594              1.983              5.634
 Vibration     2          0.594              1.981              5.261
 Vibration     3          0.597              1.973              4.430
 Vibration     4          0.598              1.970              4.255
 Vibration     5          0.600              1.963              3.889
 Vibration     6          0.607              1.940              3.243
 Vibration     7          0.617              1.905              2.700
 Vibration     8          0.621              1.893              2.567
 Vibration     9          0.628              1.871              2.366
 Vibration    10          0.643              1.822              2.025
 Vibration    11          0.661              1.768              1.752
 Vibration    12          0.677              1.719              1.563
 Vibration    13          0.705              1.638              1.317
 Vibration    14          0.717              1.604              1.231
 Vibration    15          0.723              1.588              1.194
 Vibration    16          0.748              1.518              1.049
 Vibration    17          0.782              1.428              0.893
 Vibration    18          0.797              1.390              0.837
 Vibration    19          0.844              1.275              0.687
 Vibration    20          0.868              1.222              0.627
 Vibration    21          0.884              1.186              0.590
 Vibration    22          0.900              1.151              0.555

 Optimization completed.
    -- Stationary point found.
 Normal termination of Gaussian 09 at Thu Jul 29 00:50:58 2021.
