 Gaussian 09, Revision D.01,
 Gaussian 09:  ES64L-G09RevD.01 24-Apr-2013

 ----------------------------------------------------------------------
 # B3LYP/6-31+G(d,p) opt=calcfc freq=noraman nosymm integral(ultrafineg
 rid)
 ----------------------------------------------------------------------

 ------------------------------------------------------------
 Candidate Structure: Conf:719 OPT and FREQ calc in gas phase
 ------------------------------------------------------------
 Symbolic Z-matrix:
 Charge =  1 Multiplicity = 1

 SCF Done:  E(RB3LYP) =  -796.497525428     A.U. after   17 cycles
 SCF Done:  E(RB3LYP) =  -796.506618874     A.U. after   15 cycles
 SCF Done:  E(RB3LYP) =  -796.507948955     A.U. after   15 cycles
 SCF Done:  E(RB3LYP) =  -796.508939314     A.U. after   12 cycles
 SCF Done:  E(RB3LYP) =  -796.509103582     A.U. after   11 cycles
 SCF Done:  E(RB3LYP) =  -796.509156996     A.U. after   12 cycles
 SCF Done:  E(RB3LYP) =  -796.509168408     A.U. after   11 cycles
 SCF Done:  E(RB3LYP) =  -796.509175980     A.U. after   11 cycles
 SCF Done:  E(RB3LYP) =  -796.509179365     A.U. after   11 cycles
 SCF Done:  E(RB3LYP) =  -796.509180122     A.U. after    9 cycles
 SCF Done:  E(RB3LYP) =  -796.509180366     A.U. after    9 cycles
 SCF Done:  E(RB3LYP) =  -796.509180394     A.U. after    8 cycles
 SCF Done:  E(RB3LYP) =  -796.509180402     A.U. after    8 cycles
 Optimization completed.
    -- Stationary point found.
 Normal termination of Gaussian 09 at Wed Jul 28 23:19:10 2021.

 ----------------------------------------------------------------------
 #N Geom=AllCheck Guess=TCheck SCRF=Check GenChk RB3LYP/6-31+G(d,p) Fre
 q
 ----------------------------------------------------------------------

 Structure from the checkpoint file:  "conf-719.chk"
 ------------------------------------------------------------
 Candidate Structure: Conf:719 OPT and FREQ calc in gas phase
 ------------------------------------------------------------
 Charge =  1 Multiplicity = 1

                          Input orientation:
 ---------------------------------------------------------------------
 Center     Atomic      Atomic             Coordinates (Angstroms)
 Number     Number       Type             X           Y           Z
 ---------------------------------------------------------------------
      1          8           0       -0.956627    0.135244    1.338050
      2          6           0       -1.369438    0.211997    0.183457
      3          7           0       -0.581772    0.295353   -0.906521
      4          6           0        0.876511    0.361487   -0.815012
      5          6           0        1.341564    0.932644   -2.149810
      6          8           0        2.673641    1.107633   -2.210267
      7          8           0        0.596271    1.187154   -3.074193
      8          6           0        1.519492   -1.032176   -0.488825
      9          6           0        2.765850   -0.991903    0.335162
     10          6           0        2.974951   -1.349749    1.650206
     11          7           0        4.292198   -1.182293    2.005684
     12          6           0        4.888094   -0.725812    0.924226
     13          7           0        4.013439   -0.596878   -0.118963
     14          6           0       -2.890524    0.173913   -0.091117
     15          6           0       -3.596138    0.740416    1.135082
     16          7           0       -5.084835    0.399408    1.128649
     17          1           0       -0.969592    0.462292   -1.829955
     18          1           0        1.150791    1.056975   -0.013739
     19          1           0        2.886386    1.475892   -3.086910
     20          1           0        0.777007   -1.580481    0.095151
     21          1           0        1.663830   -1.591606   -1.422025
     22          1           0        2.243239   -1.724068    2.353256
     23          1           0        5.936156   -0.475571    0.835979
     24          1           0        4.216441   -0.215947   -1.031228
     25          1           0       -3.162346   -0.880000   -0.242226
     26          1           0       -3.152330    0.721644   -1.002961
     27          1           0       -3.532435    1.828895    1.189367
     28          1           0       -3.172228    0.315141    2.046341
     29          1           0       -5.231373   -0.616307    1.127363
     30          1           0       -5.554183    0.776870    1.959506
     31          1           0       -5.561820    0.779889    0.303984
 ---------------------------------------------------------------------

 SCF Done:  E(RB3LYP) =  -796.509180402     A.U. after    1 cycles

 Alpha  occ. eigenvalues --  -19.33281 -19.27823 -19.26293 -14.66784 -14.50255
 Alpha  occ. eigenvalues --  -14.46705 -14.38720 -10.45508 -10.43929 -10.43556
 Alpha  occ. eigenvalues --  -10.37854 -10.36854 -10.31242 -10.31221 -10.30099
 Alpha  occ. eigenvalues --  -10.27315  -1.24189  -1.20687  -1.18185  -1.15298
 Alpha  occ. eigenvalues --   -1.08854  -1.06649  -0.96827  -0.94574  -0.91094
 Alpha  occ. eigenvalues --   -0.85475  -0.83343  -0.79079  -0.78606  -0.77631
 Alpha  occ. eigenvalues --   -0.74856  -0.71550  -0.69340  -0.68876  -0.66538
 Alpha  occ. eigenvalues --   -0.65459  -0.64566  -0.62906  -0.61512  -0.59961
 Alpha  occ. eigenvalues --   -0.59736  -0.58257  -0.57708  -0.55823  -0.54749
 Alpha  occ. eigenvalues --   -0.53922  -0.53380  -0.51806  -0.50480  -0.49453
 Alpha  occ. eigenvalues --   -0.48537  -0.48280  -0.47754  -0.45337  -0.41436
 Alpha  occ. eigenvalues --   -0.40118  -0.39850  -0.35520  -0.33943  -0.30278
 Alpha virt. eigenvalues --   -0.20104  -0.14213  -0.13539  -0.13143  -0.12594
 Alpha virt. eigenvalues --   -0.11445  -0.10098  -0.09493  -0.08608  -0.07343
 Alpha virt. eigenvalues --   -0.06915  -0.06815  -0.05947  -0.05205  -0.05005

 Mulliken charges:
               1
     1  O   -0.479825
     2  C    0.369193
     3  N   -0.188679
     4  C   -0.666401
     5  C    0.706967
     6  O   -0.474015
     7  O   -0.443599
     8  C   -0.376743
     9  C    0.252108
    10  C   -0.121020
    11  N   -0.285033
    12  C    0.247002
    13  N   -0.281171
    14  C   -0.354851
    15  C   -0.222332
    16  N   -0.599136
    17  H    0.332881
    18  H    0.207873
    19  H    0.406403
    20  H    0.175332
    21  H    0.168838
    22  H    0.131417
    23  H    0.146541
    24  H    0.309192
    25  H    0.191171
    26  H    0.177453
    27  H    0.213605
    28  H    0.246823
    29  H    0.401975
    30  H    0.405669
    31  H    0.402363
 Sum of Mulliken charges =   1.00000

 Dipole moment (field-independent basis, Debye):
    X=            -19.8018    Y=              3.1259    Z=             -1.6793  Tot=             20.1172
 Quadrupole moment (field-independent basis, Debye-Ang):
   XX=             29.9736   YY=            -90.0231   ZZ=            -92.0768
   XY=             -0.2346   XZ=            -44.7091   YZ=              3.4534

  Exact polarizability: 180.352  -2.533 100.348   2.960 -14.425 143.437
 Approx polarizability: 223.278   5.241 149.577  11.840 -19.809 229.636

                      1                      2                      3
                      A                      A                      A
 Frequencies --     27.6033                31.9033                40.5076
 Red. masses --      4.7348                 3.3725                 5.1909
 Frc consts  --      0.0021                 0.0020                 0.0050
 IR Inten    --      5.8230                 7.7518                 9.4899

                      4                      5                      6
                      A                      A                      A
 Frequencies --     43.1330                63.9194                73.6554
 Red. masses --      2.0732                 6.4170                 7.6364
 Frc consts  --      0.0023                 0.0154                 0.0244
 IR Inten    --      8.5451                 2.3830                11.3118

                      7                      8                      9
                      A                      A                      A
 Frequencies --     91.9105               114.9817               124.3847
 Red. masses --      3.8370                 4.7514                 4.8132
 Frc consts  --      0.0191                 0.0370                 0.0439
 IR Inten    --      2.8836                 7.8265                 4.5650

                     10                     11                     12
                      A                      A                      A
 Frequencies --    185.8679               217.8337               239.4414
 Red. masses --      4.8792                 2.2419                 1.4725
 Frc consts  --      0.0993                 0.0627                 0.0497
 IR Inten    --      2.4188                11.4250                 1.8820

                     13                     14                     15
                      A                      A                      A
 Frequencies --    268.2749               303.9814               328.9524
 Red. masses --      5.0403                 2.9731                 3.4684
 Frc consts  --      0.2137                 0.1619                 0.2211
 IR Inten    --     19.5003                 2.6129                 3.3868

                     16                     17                     18
                      A                      A                      A
 Frequencies --    345.0812               375.2294               386.1111
 Red. masses --      6.0030                 3.7985                 3.9423
 Frc consts  --      0.4212                 0.3151                 0.3463
 IR Inten    --      9.6727                 2.6064                16.3243

                     19                     20                     21
                      A                      A                      A
 Frequencies --    531.7404               539.9242               558.2941
 Red. masses --      2.5755                 1.5555                 2.0044
 Frc consts  --      0.4291                 0.2672                 0.3681
 IR Inten    --     44.6107                88.1277                13.7603

                     22                     23                     24
                      A                      A                      A
 Frequencies --    597.8689               636.8770               644.5649
 Red. masses --      1.8563                 2.7843                 1.7921
 Frc consts  --      0.3909                 0.6654                 0.4387
 IR Inten    --     35.8477                45.1844                20.3164

                     25                     26                     27
                      A                      A                      A
 Frequencies --    661.0162               674.4598               711.4325
 Red. masses --      2.0033                 2.8013                 3.9181
 Frc consts  --      0.5157                 0.7508                 1.1684
 IR Inten    --     91.6485                 2.1356                 3.0457

                     28                     29                     30
                      A                      A                      A
 Frequencies --    734.8767               767.4535               796.7690
 Red. masses --      3.1899                 3.3181                 1.4113
 Frc consts  --      1.0150                 1.1515                 0.5279
 IR Inten    --     28.8969                 7.6499                11.7185

                     31                     32                     33
                      A                      A                      A
 Frequencies --    818.6920               824.1299               857.8847
 Red. masses --      2.5704                 1.3793                 1.4008
 Frc consts  --      1.0151                 0.5520                 0.6074
 IR Inten    --     12.8322                23.0321                18.4848

                     34                     35                     36
                      A                      A                      A
 Frequencies --    884.4744               917.7190               924.7516
 Red. masses --      2.7138                 1.2794                 3.7420
 Frc consts  --      1.2508                 0.6349                 1.8854
 IR Inten    --     31.5747                 4.9894                19.8791

                     37                     38                     39
                      A                      A                      A
 Frequencies --    928.7445               979.5500              1002.7768
 Red. masses --      5.3306                 2.1670                 4.7404
 Frc consts  --      2.7090                 1.2251                 2.8085
 IR Inten    --      9.6991                16.7934                 2.3732

                     40                     41                     42
                      A                      A                      A
 Frequencies --   1008.2561              1026.0609              1081.5029
 Red. masses --      3.0490                 3.6133                 2.2150
 Frc consts  --      1.8262                 2.2413                 1.5264
 IR Inten    --     38.9413                14.2773                36.8409

                     43                     44                     45
                      A                      A                      A
 Frequencies --   1108.6520              1117.0023              1142.8178
 Red. masses --      1.9412                 1.6158                 2.2209
 Frc consts  --      1.4057                 1.1878                 1.7089
 IR Inten    --     32.9067                33.2346                 4.7471

                     46                     47                     48
                      A                      A                      A
 Frequencies --   1155.9013              1187.0457              1193.5909
 Red. masses --      1.9504                 1.3171                 2.3502
 Frc consts  --      1.5354                 1.0935                 1.9727
 IR Inten    --     21.9341                 1.5437               181.1739

                     49                     50                     51
                      A                      A                      A
 Frequencies --   1243.2713              1270.6924              1278.6530
 Red. masses --      1.5725                 2.1920                 1.4847
 Frc consts  --      1.4321                 2.0853                 1.4302
 IR Inten    --     17.0934                 7.5173                 3.6806

                     52                     53                     54
                      A                      A                      A
 Frequencies --   1287.9794              1304.7573              1316.6139
 Red. masses --      1.3040                 1.3523                 1.2157
 Frc consts  --      1.2745                 1.3564                 1.2416
 IR Inten    --      2.6269                 3.1004                 4.1240

                     55                     56                     57
                      A                      A                      A
 Frequencies --   1326.9372              1356.7296              1360.6427
 Red. masses --      1.2378                 1.4470                 1.4679
 Frc consts  --      1.2841                 1.5693                 1.6012
 IR Inten    --     10.6962                24.9344                25.3959

                     58                     59                     60
                      A                      A                      A
 Frequencies --   1394.5336              1407.7601              1419.8034
 Red. masses --      3.3804                 1.3461                 2.5418
 Frc consts  --      3.8733                 1.5717                 3.0189
 IR Inten    --     52.5691                16.5457               102.5340

                     61                     62                     63
                      A                      A                      A
 Frequencies --   1437.4741              1477.8023              1483.7098
 Red. masses --      2.8637                 1.1376                 1.1149
 Frc consts  --      3.4864                 1.4638                 1.4461
 IR Inten    --     31.7886                21.1853                 1.3982

                     64                     65                     66
                      A                      A                      A
 Frequencies --   1505.1556              1509.0795              1520.3081
 Red. masses --      3.5791                 1.0756                 1.1761
 Frc consts  --      4.7773                 1.4432                 1.6016
 IR Inten    --     30.2136                14.0378               205.6316

                     67                     68                     69
                      A                      A                      A
 Frequencies --   1546.9272              1608.7849              1668.8156
 Red. masses --      2.2747                 4.3094                 1.0425
 Frc consts  --      3.2071                 6.5715                 1.7106
 IR Inten    --    291.7559                 4.5006                50.5579

                     70                     71                     72
                      A                      A                      A
 Frequencies --   1671.5887              1753.0380              1806.7543
 Red. masses --      1.0436                 9.9151                 9.6602
 Frc consts  --      1.7181                17.9528                18.5796
 IR Inten    --     42.3503               284.7636               309.8561

                     73                     74                     75
                      A                      A                      A
 Frequencies --   3036.5116              3040.4954              3077.5544
 Red. masses --      1.0632                 1.0697                 1.0839
 Frc consts  --      5.7758                 5.8265                 6.0483
 IR Inten    --      4.2021                22.1368                 5.2466

                     76                     77                     78
                      A                      A                      A
 Frequencies --   3096.0603              3110.9002              3123.6798
 Red. masses --      1.1014                 1.0600                 1.0950
 Frc consts  --      6.2202                 6.0441                 6.2948
 IR Inten    --      5.7544                 4.5417                 3.9066

                     79                     80                     81
                      A                      A                      A
 Frequencies --   3176.0069              3254.8765              3267.2695
 Red. masses --      1.1120                 1.0963                 1.0978
 Frc consts  --      6.6090                 6.8431                 6.9048
 IR Inten    --      3.3518                 4.7240                 0.8688

                     82                     83                     84
                      A                      A                      A
 Frequencies --   3399.2407              3490.5289              3493.2093
 Red. masses --      1.0304                 1.0935                 1.0937
 Frc consts  --      7.0152                 7.8493                 7.8634
 IR Inten    --     55.1107                96.4333                91.6322

                     85                     86                     87
                      A                      A                      A
 Frequencies --   3565.3071              3666.1495              3731.5118
 Red. masses --      1.0785                 1.0813                 1.0646
 Frc consts  --      8.0773                 8.5628                 8.7341
 IR Inten    --    114.8107                79.1111               123.3771

 - Thermochemistry -
 -------------------
 Temperature   298.150 Kelvin.  Pressure   1.00000 Atm.
 Atom     1 has atomic number  8 and mass  15.99491

 Molecular mass:   227.11442 amu.
 Principal axes and moments of inertia in atomic units:
                           1         2         3
     Eigenvalues --  2217.191157176.592959086.84637
           X            0.98895  -0.01161   0.14777
           Y           -0.14074  -0.38636   0.91155
           Z           -0.04651   0.92228   0.38372
 This molecule is an asymmetric top.
 Rotational symmetry number  1.
 Warning -- assumption of classical behavior for rotation
           may cause significant error
 Rotational temperatures (Kelvin)      0.03906     0.01207     0.00953
 Rotational constants (GHZ):           0.81398     0.25148     0.19861
 Zero-point vibrational energy     680464.1 (Joules/Mol)
                                  162.63483 (Kcal/Mol)
 Warning -- explicit consideration of  22 degrees of freedom as
           vibrations may cause significant error
 Vibrational temperatures:     39.71    45.90    58.28    62.06    91.97
          (Kelvin)            105.97   132.24   165.43   178.96   267.42
                              313.41   344.50   385.99   437.36   473.29
                              496.49   539.87   555.53   765.05   776.83
                              803.26   860.20   916.32   927.38   951.05
                              970.40  1023.59  1057.32  1104.19  1146.37
                             1177.91  1185.74  1234.30  1272.56  1320.39
                             1330.51  1336.25  1409.35  1442.77  1450.65
                             1476.27  1556.04  1595.10  1607.12  1644.26
                             1663.08  1707.89  1717.31  1788.79  1828.24
                             1839.69  1853.11  1877.25  1894.31  1909.16
                             1952.03  1957.66  2006.42  2025.45  2042.78
                             2068.20  2126.23  2134.72  2165.58  2171.23
                             2187.38  2225.68  2314.68  2401.05  2405.04
                             2522.23  2599.51  4368.86  4374.59  4427.91
                             4454.53  4475.89  4494.27  4569.56  4683.04
                             4700.87  4890.74  5022.09  5025.94  5129.68
                             5274.76  5368.81

 Zero-point correction=                           0.259175 (Hartree/Particle)
 Thermal correction to Energy=                    0.275635
 Thermal correction to Enthalpy=                  0.276579
 Thermal correction to Gibbs Free Energy=         0.211882
 Sum of electronic and zero-point Energies=           -796.250005
 Sum of electronic and thermal Energies=              -796.233545
 Sum of electronic and thermal Enthalpies=            -796.232601
 Sum of electronic and thermal Free Energies=         -796.297299

                     E (Thermal)             CV                S
                      KCal/Mol        Cal/Mol-Kelvin    Cal/Mol-Kelvin
 Total                  172.964             59.136            136.168
 Electronic               0.000              0.000              0.000
 Translational            0.889              2.981             42.163
 Rotational               0.889              2.981             33.336
 Vibrational            171.186             53.174             60.669
 Vibration     1          0.593              1.984              5.995
 Vibration     2          0.594              1.983              5.707
 Vibration     3          0.594              1.981              5.234
 Vibration     4          0.595              1.980              5.110
 Vibration     5          0.597              1.972              4.332
 Vibration     6          0.599              1.966              4.053
 Vibration     7          0.602              1.955              3.619
 Vibration     8          0.608              1.937              3.183
 Vibration     9          0.610              1.929              3.031
 Vibration    10          0.632              1.859              2.269
 Vibration    11          0.646              1.814              1.977
 Vibration    12          0.657              1.780              1.807
 Vibration    13          0.673              1.731              1.607
 Vibration    14          0.695              1.666              1.395
 Vibration    15          0.712              1.618              1.265
 Vibration    16          0.723              1.585              1.189
 Vibration    17          0.746              1.523              1.058
 Vibration    18          0.755              1.500              1.015
 Vibration    19          0.887              1.180              0.583
 Vibration    20          0.895              1.162              0.565
 Vibration    21          0.914              1.122              0.527
 Vibration    22          0.956              1.036              0.453

 Optimization completed.
    -- Stationary point found.
 Normal termination of Gaussian 09 at Wed Jul 28 23:55:18 2021.
