 Gaussian 09, Revision D.01,
 Gaussian 09:  ES64L-G09RevD.01 24-Apr-2013

 ----------------------------------------------------------------------
 # B3LYP/6-31+G(d,p) opt=calcfc freq=noraman nosymm integral(ultrafineg
 rid)
 ----------------------------------------------------------------------

 ------------------------------------------------------------
 Candidate Structure: Conf:715 OPT and FREQ calc in gas phase
 ------------------------------------------------------------
 Symbolic Z-matrix:
 Charge =  1 Multiplicity = 1

 SCF Done:  E(RB3LYP) =  -796.513154981     A.U. after   15 cycles
 SCF Done:  E(RB3LYP) =  -796.522195395     A.U. after   15 cycles
 SCF Done:  E(RB3LYP) =  -796.522795134     A.U. after   16 cycles
 SCF Done:  E(RB3LYP) =  -796.517436910     A.U. after   15 cycles
 SCF Done:  E(RB3LYP) =  -796.522830886     A.U. after   11 cycles
 SCF Done:  E(RB3LYP) =  -796.524526369     A.U. after   12 cycles
 SCF Done:  E(RB3LYP) =  -796.525537500     A.U. after   13 cycles
 SCF Done:  E(RB3LYP) =  -796.526016412     A.U. after   12 cycles
 SCF Done:  E(RB3LYP) =  -796.526174009     A.U. after   12 cycles
 SCF Done:  E(RB3LYP) =  -796.526211410     A.U. after   12 cycles
 SCF Done:  E(RB3LYP) =  -796.526241492     A.U. after   11 cycles
 SCF Done:  E(RB3LYP) =  -796.526284386     A.U. after   12 cycles
 SCF Done:  E(RB3LYP) =  -796.526328302     A.U. after   12 cycles
 SCF Done:  E(RB3LYP) =  -796.526351853     A.U. after   12 cycles
 SCF Done:  E(RB3LYP) =  -796.526361203     A.U. after   11 cycles
 SCF Done:  E(RB3LYP) =  -796.526368968     A.U. after   11 cycles
 SCF Done:  E(RB3LYP) =  -796.526370883     A.U. after   11 cycles
 SCF Done:  E(RB3LYP) =  -796.526370941     A.U. after    8 cycles
 Optimization completed.
    -- Stationary point found.
 Normal termination of Gaussian 09 at Wed Jul 28 23:44:37 2021.

 ----------------------------------------------------------------------
 #N Geom=AllCheck Guess=TCheck SCRF=Check GenChk RB3LYP/6-31+G(d,p) Fre
 q
 ----------------------------------------------------------------------

 Structure from the checkpoint file:  "conf-715.chk"
 ------------------------------------------------------------
 Candidate Structure: Conf:715 OPT and FREQ calc in gas phase
 ------------------------------------------------------------
 Charge =  1 Multiplicity = 1

                          Input orientation:
 ---------------------------------------------------------------------
 Center     Atomic      Atomic             Coordinates (Angstroms)
 Number     Number       Type             X           Y           Z
 ---------------------------------------------------------------------
      1          8           0       -2.157579    1.101711   -0.389316
      2          6           0       -1.497900    0.323321    0.338447
      3          7           0       -0.194448    0.501192    0.569097
      4          6           0        0.594592    1.466769   -0.178680
      5          6           0        0.650184    1.041278   -1.662317
      6          8           0        1.055273    1.989932   -2.531519
      7          8           0        0.405161   -0.077721   -2.040694
      8          6           0        2.023379    1.563864    0.448597
      9          6           0        2.671422    0.241573    0.710596
     10          6           0        2.765648   -0.495506    1.876031
     11          7           0        3.411474   -1.688931    1.655626
     12          6           0        3.714709   -1.687914    0.374939
     13          7           0        3.289358   -0.546398   -0.246689
     14          6           0       -2.195582   -0.864100    0.996140
     15          6           0       -3.151266   -1.543640    0.003987
     16          7           0       -4.128031   -0.519652   -0.537012
     17          1           0        0.335654   -0.222283    1.050637
     18          1           0        0.107270    2.445425   -0.109893
     19          1           0        1.133391    2.866968   -2.125004
     20          1           0        2.645857    2.196989   -0.193841
     21          1           0        1.927614    2.090436    1.402724
     22          1           0        2.437528   -0.206379    2.866523
     23          1           0        4.239433   -2.472231   -0.152617
     24          1           0        3.399883   -0.335750   -1.229220
     25          1           0       -1.480440   -1.610968    1.351420
     26          1           0       -2.744708   -0.502672    1.875123
     27          1           0       -3.706980   -2.359378    0.468608
     28          1           0       -2.602603   -1.932237   -0.856780
     29          1           0       -3.516252    0.363637   -0.666108
     30          1           0       -4.551387   -0.813690   -1.419907
     31          1           0       -4.880492   -0.313632    0.124712
 ---------------------------------------------------------------------

 SCF Done:  E(RB3LYP) =  -796.526370941     A.U. after    1 cycles

 Alpha  occ. eigenvalues --  -19.33414 -19.30036 -19.27523 -14.60873 -14.52773
 Alpha  occ. eigenvalues --  -14.50333 -14.42212 -10.46514 -10.45634 -10.42371
 Alpha  occ. eigenvalues --  -10.39236 -10.37852 -10.34707 -10.34650 -10.33984
 Alpha  occ. eigenvalues --  -10.31213  -1.23827  -1.21548  -1.15774  -1.15410
 Alpha  occ. eigenvalues --   -1.12464  -1.09417  -0.98152  -0.96341  -0.93162
 Alpha  occ. eigenvalues --   -0.86892  -0.83335  -0.79459  -0.77204  -0.75368
 Alpha  occ. eigenvalues --   -0.74695  -0.73422  -0.72187  -0.70310  -0.68659
 Alpha  occ. eigenvalues --   -0.67421  -0.66106  -0.65052  -0.62279  -0.60688
 Alpha  occ. eigenvalues --   -0.59192  -0.58692  -0.57226  -0.56991  -0.56742
 Alpha  occ. eigenvalues --   -0.56216  -0.55172  -0.53743  -0.52583  -0.52145
 Alpha  occ. eigenvalues --   -0.51497  -0.51357  -0.50817  -0.45303  -0.44134
 Alpha  occ. eigenvalues --   -0.43237  -0.40832  -0.39126  -0.37366  -0.34201
 Alpha virt. eigenvalues --   -0.16673  -0.15371  -0.13646  -0.12193  -0.11781
 Alpha virt. eigenvalues --   -0.11376  -0.10328  -0.08968  -0.08318  -0.07956
 Alpha virt. eigenvalues --   -0.07786  -0.06562  -0.06151  -0.05947  -0.05403

 Mulliken charges:
               1
     1  O   -0.513876
     2  C    0.258223
     3  N   -0.196967
     4  C   -0.425264
     5  C    0.376598
     6  O   -0.335063
     7  O   -0.368513
     8  C   -0.577968
     9  C    0.357924
    10  C   -0.104798
    11  N   -0.251831
    12  C    0.224878
    13  N   -0.298613
    14  C   -0.222618
    15  C   -0.173986
    16  N   -0.653519
    17  H    0.320178
    18  H    0.188436
    19  H    0.357424
    20  H    0.174546
    21  H    0.193398
    22  H    0.144120
    23  H    0.159413
    24  H    0.312963
    25  H    0.194519
    26  H    0.209873
    27  H    0.207990
    28  H    0.221577
    29  H    0.445588
    30  H    0.389621
    31  H    0.385750
 Sum of Mulliken charges =   1.00000

 Dipole moment (field-independent basis, Debye):
    X=            -10.9134    Y=              0.7854    Z=             -0.3262  Tot=             10.9465
 Quadrupole moment (field-independent basis, Debye-Ang):
   XX=            -23.9894   YY=            -78.3503   ZZ=            -95.5394
   XY=             22.4090   XZ=             -7.0210   YZ=              3.0034

  Exact polarizability: 152.166  -5.055 135.290   4.097 -10.374 127.044
 Approx polarizability: 190.549 -11.858 213.070   2.494 -13.877 199.718

                      1                      2                      3
                      A                      A                      A
 Frequencies --     23.2986                29.2566                51.2868
 Red. masses --      4.6464                 4.9896                 5.6405
 Frc consts  --      0.0015                 0.0025                 0.0087
 IR Inten    --      1.8722                17.3075                12.1356

                      4                      5                      6
                      A                      A                      A
 Frequencies --     57.9547                65.9618                83.7551
 Red. masses --      4.8581                 4.8318                 4.4950
 Frc consts  --      0.0096                 0.0124                 0.0186
 IR Inten    --     11.1696                 6.6565                 5.8199

                      7                      8                      9
                      A                      A                      A
 Frequencies --    106.1683               130.4269               196.1704
 Red. masses --      7.6024                 4.3090                 4.8326
 Frc consts  --      0.0505                 0.0432                 0.1096
 IR Inten    --      6.5508                 3.8195                 4.5673

                     10                     11                     12
                      A                      A                      A
 Frequencies --    215.8244               239.7876               319.0027
 Red. masses --      2.3944                 4.9112                 3.9698
 Frc consts  --      0.0657                 0.1664                 0.2380
 IR Inten    --     28.9388                16.0038                 6.6885

                     13                     14                     15
                      A                      A                      A
 Frequencies --    327.5601               334.8245               368.6334
 Red. masses --      4.1195                 2.5906                 3.1338
 Frc consts  --      0.2604                 0.1711                 0.2509
 IR Inten    --     14.6629                69.3304                52.2898

                     16                     17                     18
                      A                      A                      A
 Frequencies --    393.8124               450.3187               457.4282
 Red. masses --      1.2716                 2.7087                 1.9779
 Frc consts  --      0.1162                 0.3236                 0.2438
 IR Inten    --      3.5290                83.4732                96.0339

                     19                     20                     21
                      A                      A                      A
 Frequencies --    496.0374               529.9668               550.8352
 Red. masses --      1.6237                 2.5700                 1.5580
 Frc consts  --      0.2354                 0.4253                 0.2785
 IR Inten    --     15.4721                 8.7283                54.3696

                     22                     23                     24
                      A                      A                      A
 Frequencies --    591.7274               633.2095               665.5717
 Red. masses --      3.6077                 3.6990                 1.8051
 Frc consts  --      0.7443                 0.8738                 0.4711
 IR Inten    --      5.5416                 6.0338                39.8328

                     25                     26                     27
                      A                      A                      A
 Frequencies --    675.7970               681.1231               696.8542
 Red. masses --      3.3474                 1.8765                 4.2009
 Frc consts  --      0.9007                 0.5129                 1.2019
 IR Inten    --     49.7057                 9.9506                 0.5101

                     28                     29                     30
                      A                      A                      A
 Frequencies --    734.8414               769.3720               831.8410
 Red. masses --      3.4795                 5.0998                 2.5589
 Frc consts  --      1.1070                 1.7786                 1.0433
 IR Inten    --     18.2775                 4.0900                28.4247

                     31                     32                     33
                      A                      A                      A
 Frequencies --    843.5343               851.4064               864.3837
 Red. masses --      1.3731                 2.5867                 1.5807
 Frc consts  --      0.5757                 1.1048                 0.6959
 IR Inten    --     32.7208                 0.3819                 8.8320

                     34                     35                     36
                      A                      A                      A
 Frequencies --    887.2837               925.6860               940.8841
 Red. masses --      2.0397                 5.5192                 2.6134
 Frc consts  --      0.9461                 2.7865                 1.3631
 IR Inten    --     60.5858                10.8414                 8.8150

                     37                     38                     39
                      A                      A                      A
 Frequencies --    955.4438               958.6360               994.8488
 Red. masses --      1.3702                 2.6917                 3.2428
 Frc consts  --      0.7369                 1.4574                 1.8910
 IR Inten    --      7.2880                 2.9229                 5.8238

                     40                     41                     42
                      A                      A                      A
 Frequencies --   1014.1161              1038.6959              1109.6187
 Red. masses --      3.3382                 2.9595                 2.1387
 Frc consts  --      2.0227                 1.8812                 1.5515
 IR Inten    --     13.9024                 9.0489                16.2356

                     43                     44                     45
                      A                      A                      A
 Frequencies --   1119.8801              1130.4946              1137.0433
 Red. masses --      1.7027                 1.4794                 1.5088
 Frc consts  --      1.2581                 1.1139                 1.1493
 IR Inten    --     17.3694                72.5771                30.7589

                     46                     47                     48
                      A                      A                      A
 Frequencies --   1156.5603              1157.7506              1209.0472
 Red. masses --      1.8598                 1.7822                 1.6006
 Frc consts  --      1.4658                 1.4075                 1.3785
 IR Inten    --     22.3166                 8.9345                39.5454

                     49                     50                     51
                      A                      A                      A
 Frequencies --   1236.5293              1264.0279              1272.3563
 Red. masses --      1.4154                 1.6214                 1.9093
 Frc consts  --      1.2751                 1.5264                 1.8211
 IR Inten    --     43.4022               129.0022                 9.0896

                     52                     53                     54
                      A                      A                      A
 Frequencies --   1280.9302              1292.9792              1318.2336
 Red. masses --      1.7082                 1.3561                 1.6429
 Frc consts  --      1.6514                 1.3357                 1.6821
 IR Inten    --    226.9828                22.5585                37.8012

                     55                     56                     57
                      A                      A                      A
 Frequencies --   1328.7950              1367.9423              1383.3334
 Red. masses --      1.2492                 1.4938                 1.7125
 Frc consts  --      1.2995                 1.6470                 1.9307
 IR Inten    --     53.8757                17.9072                25.8049

                     58                     59                     60
                      A                      A                      A
 Frequencies --   1395.1013              1402.3002              1411.7117
 Red. masses --      2.8438                 1.2951                 1.5882
 Frc consts  --      3.2611                 1.5005                 1.8649
 IR Inten    --     21.1558                80.2429                35.6135

                     61                     62                     63
                      A                      A                      A
 Frequencies --   1439.0911              1473.3221              1475.0414
 Red. masses --      2.6647                 1.0935                 1.2794
 Frc consts  --      3.2515                 1.3985                 1.6401
 IR Inten    --     29.0823                41.5447               681.6994

                     64                     65                     66
                      A                      A                      A
 Frequencies --   1480.3452              1505.1301              1514.1095
 Red. masses --      1.1469                 3.5465                 1.0753
 Frc consts  --      1.4808                 4.7337                 1.4525
 IR Inten    --      8.5032                25.6185                58.6768

                     67                     68                     69
                      A                      A                      A
 Frequencies --   1577.3985              1604.6874              1633.8081
 Red. masses --      2.4714                 4.0056                 1.1538
 Frc consts  --      3.6231                 6.0771                 1.8147
 IR Inten    --    249.9160                10.5628                 7.6535

                     70                     71                     72
                      A                      A                      A
 Frequencies --   1684.3518              1700.8337              1844.5055
 Red. masses --      1.0741                 3.1560                10.5806
 Frc consts  --      1.7954                 5.3792                21.2090
 IR Inten    --     47.3339               203.9940               191.7697

                     73                     74                     75
                      A                      A                      A
 Frequencies --   2561.1065              3056.8113              3060.2110
 Red. masses --      1.0924                 1.0674                 1.0648
 Frc consts  --      4.2218                 5.8762                 5.8753
 IR Inten    --   1093.2267                 0.8100                10.7325

                     76                     77                     78
                      A                      A                      A
 Frequencies --   3078.0408              3104.7364              3112.5577
 Red. masses --      1.0848                 1.0617                 1.1015
 Frc consts  --      6.0553                 6.0296                 6.2871
 IR Inten    --      9.6545                 1.2775                 2.8414

                     79                     80                     81
                      A                      A                      A
 Frequencies --   3125.1231              3166.2091              3243.2957
 Red. masses --      1.0973                 1.1118                 1.0964
 Frc consts  --      6.3143                 6.5671                 6.7951
 IR Inten    --      0.5713                 0.2713                 3.3900

                     82                     83                     84
                      A                      A                      A
 Frequencies --   3271.5393              3463.7965              3513.2681
 Red. masses --      1.0983                 1.0529                 1.0794
 Frc consts  --      6.9256                 7.4432                 7.8499
 IR Inten    --      1.4708                98.0024               245.5862

                     85                     86                     87
                      A                      A                      A
 Frequencies --   3536.3212              3644.3220              3782.8972
 Red. masses --      1.0949                 1.0821                 1.0667
 Frc consts  --      8.0674                 8.4676                 8.9936
 IR Inten    --     77.5563                67.4578                70.1327

 - Thermochemistry -
 -------------------
 Temperature   298.150 Kelvin.  Pressure   1.00000 Atm.
 Atom     1 has atomic number  8 and mass  15.99491

 Molecular mass:   227.11442 amu.
 Principal axes and moments of inertia in atomic units:
                           1         2         3
     Eigenvalues --  2305.254735518.364996632.86783
           X            0.99057  -0.11947  -0.06701
           Y           -0.03608  -0.69948   0.71374
           Z            0.13214   0.70460   0.69719
 This molecule is an asymmetric top.
 Rotational symmetry number  1.
 Warning -- assumption of classical behavior for rotation
           may cause significant error
 Rotational temperatures (Kelvin)      0.03757     0.01570     0.01306
 Rotational constants (GHZ):           0.78288     0.32704     0.27209
 Zero-point vibrational energy     679545.1 (Joules/Mol)
                                  162.41517 (Kcal/Mol)
 Warning -- explicit consideration of  22 degrees of freedom as
           vibrations may cause significant error
 Vibrational temperatures:     33.52    42.09    73.79    83.38    94.90
          (Kelvin)            120.50   152.75   187.66   282.25   310.52
                              345.00   458.97   471.29   481.74   530.38
                              566.61   647.91   658.14   713.69   762.50
                              792.53   851.36   911.05   957.61   972.32
                              979.98  1002.62  1057.27  1106.95  1196.83
                             1213.66  1224.98  1243.65  1276.60  1331.85
                             1353.72  1374.67  1379.26  1431.36  1459.09
                             1494.45  1596.49  1611.26  1626.53  1635.95
                             1664.03  1665.74  1739.55  1779.09  1818.65
                             1830.63  1842.97  1860.31  1896.64  1911.84
                             1968.16  1990.31  2007.24  2017.59  2031.14
                             2070.53  2119.78  2122.25  2129.88  2165.54
                             2178.46  2269.52  2308.78  2350.68  2423.40
                             2447.12  2653.83  3684.86  4398.06  4402.96
                             4428.61  4467.02  4478.27  4496.35  4555.46
                             4666.37  4707.01  4983.62  5054.80  5087.97
                             5243.36  5442.74

 Zero-point correction=                           0.258825 (Hartree/Particle)
 Thermal correction to Energy=                    0.274512
 Thermal correction to Enthalpy=                  0.275456
 Thermal correction to Gibbs Free Energy=         0.213180
 Sum of electronic and zero-point Energies=           -796.267546
 Sum of electronic and thermal Energies=              -796.251859
 Sum of electronic and thermal Enthalpies=            -796.250915
 Sum of electronic and thermal Free Energies=         -796.313191

                     E (Thermal)             CV                S
                      KCal/Mol        Cal/Mol-Kelvin    Cal/Mol-Kelvin
 Total                  172.259             57.992            131.071
 Electronic               0.000              0.000              0.000
 Translational            0.889              2.981             42.163
 Rotational               0.889              2.981             32.801
 Vibrational            170.481             52.030             56.107
 Vibration     1          0.593              1.985              6.331
 Vibration     2          0.593              1.984              5.879
 Vibration     3          0.596              1.977              4.767
 Vibration     4          0.596              1.974              4.526
 Vibration     5          0.597              1.971              4.270
 Vibration     6          0.601              1.960              3.801
 Vibration     7          0.605              1.944              3.338
 Vibration     8          0.612              1.923              2.940
 Vibration     9          0.636              1.845              2.169
 Vibration    10          0.645              1.817              1.994
 Vibration    11          0.657              1.780              1.804
 Vibration    12          0.705              1.637              1.315
 Vibration    13          0.711              1.620              1.272
 Vibration    14          0.716              1.606              1.237
 Vibration    15          0.741              1.537              1.085
 Vibration    16          0.761              1.483              0.986
 Vibration    17          0.809              1.360              0.795
 Vibration    18          0.816              1.344              0.774
 Vibration    19          0.852              1.259              0.668
 Vibration    20          0.885              1.184              0.587
 Vibration    21          0.906              1.138              0.542
 Vibration    22          0.949              1.049              0.464

 Optimization completed.
    -- Stationary point found.
 Normal termination of Gaussian 09 at Thu Jul 29 00:19:53 2021.
