 Gaussian 09, Revision D.01,
 Gaussian 09:  ES64L-G09RevD.01 24-Apr-2013

 ----------------------------------------------------------------------
 # B3LYP/6-31+G(d,p) opt=calcfc freq=noraman nosymm integral(ultrafineg
 rid)
 ----------------------------------------------------------------------

 ------------------------------------------------------------
 Candidate Structure: Conf:214 OPT and FREQ calc in gas phase
 ------------------------------------------------------------
 Symbolic Z-matrix:
 Charge =  1 Multiplicity = 1

 SCF Done:  E(RB3LYP) =  -796.493833446     A.U. after   17 cycles
 SCF Done:  E(RB3LYP) =  -796.499425311     A.U. after   13 cycles
 SCF Done:  E(RB3LYP) =  -796.500109466     A.U. after   14 cycles
 SCF Done:  E(RB3LYP) =  -796.500236996     A.U. after   13 cycles
 SCF Done:  E(RB3LYP) =  -796.500250112     A.U. after   11 cycles
 SCF Done:  E(RB3LYP) =  -796.500251971     A.U. after   11 cycles
 SCF Done:  E(RB3LYP) =  -796.500252271     A.U. after   11 cycles
 SCF Done:  E(RB3LYP) =  -796.500252307     A.U. after    8 cycles
 SCF Done:  E(RB3LYP) =  -796.500252311     A.U. after    8 cycles
 Optimization completed.
    -- Stationary point found.
 Normal termination of Gaussian 09 at Wed Jul 28 23:13:33 2021.

 ----------------------------------------------------------------------
 #N Geom=AllCheck Guess=TCheck SCRF=Check GenChk RB3LYP/6-31+G(d,p) Fre
 q
 ----------------------------------------------------------------------

 Structure from the checkpoint file:  "conf-214.chk"
 ------------------------------------------------------------
 Candidate Structure: Conf:214 OPT and FREQ calc in gas phase
 ------------------------------------------------------------
 Charge =  1 Multiplicity = 1

                          Input orientation:
 ---------------------------------------------------------------------
 Center     Atomic      Atomic             Coordinates (Angstroms)
 Number     Number       Type             X           Y           Z
 ---------------------------------------------------------------------
      1          8           0       -1.170370   -0.831142   -1.143195
      2          6           0       -1.072496   -0.397214    0.001644
      3          7           0       -0.023497   -0.618169    0.824322
      4          6           0        1.093351   -1.479825    0.460914
      5          6           0        1.171509   -2.603625    1.510990
      6          8           0        1.835815   -3.720986    1.165045
      7          8           0        0.701117   -2.475635    2.616735
      8          6           0        2.442076   -0.713835    0.431108
      9          6           0        2.470115    0.419714   -0.550393
     10          6           0        1.749348    0.713041   -1.688006
     11          7           0        2.182978    1.892797   -2.255659
     12          6           0        3.161679    2.313722   -1.485379
     13          7           0        3.374571    1.462568   -0.434070
     14          6           0       -2.165368    0.534052    0.565344
     15          6           0       -3.450316    0.286165   -0.215468
     16          7           0       -4.446159    1.426505   -0.016247
     17          1           0       -0.105970   -0.410016    1.813151
     18          1           0        0.869927   -1.887919   -0.529604
     19          1           0        2.109022   -3.720688    0.234805
     20          1           0        2.644309   -0.341184    1.444288
     21          1           0        3.239726   -1.437304    0.211141
     22          1           0        0.941785    0.145772   -2.128380
     23          1           0        3.746653    3.210936   -1.632032
     24          1           0        4.086179    1.564005    0.275982
     25          1           0       -1.809090    1.562386    0.412257
     26          1           0       -2.305540    0.384610    1.641709
     27          1           0       -3.962066   -0.626241    0.096194
     28          1           0       -3.240512    0.226435   -1.284508
     29          1           0       -4.053707    2.318909   -0.337217
     30          1           0       -5.308609    1.261095   -0.547027
     31          1           0       -4.706472    1.541182    0.969364
 ---------------------------------------------------------------------

 SCF Done:  E(RB3LYP) =  -796.500252311     A.U. after    1 cycles

 Alpha  occ. eigenvalues --  -19.31976 -19.26482 -19.26094 -14.66587 -14.50396
 Alpha  occ. eigenvalues --  -14.48710 -14.40611 -10.44217 -10.44127 -10.43363
 Alpha  occ. eigenvalues --  -10.37725 -10.37353 -10.33032 -10.32784 -10.32156
 Alpha  occ. eigenvalues --  -10.28962  -1.22390  -1.20500  -1.18360  -1.14321
 Alpha  occ. eigenvalues --   -1.10706  -1.06929  -0.96753  -0.96359  -0.91910
 Alpha  occ. eigenvalues --   -0.85842  -0.83407  -0.78881  -0.78736  -0.77518
 Alpha  occ. eigenvalues --   -0.74427  -0.72594  -0.70632  -0.69240  -0.68268
 Alpha  occ. eigenvalues --   -0.67878  -0.64980  -0.63111  -0.61206  -0.60725
 Alpha  occ. eigenvalues --   -0.58949  -0.57149  -0.56661  -0.55872  -0.55171
 Alpha  occ. eigenvalues --   -0.54175  -0.52961  -0.52460  -0.51882  -0.50508
 Alpha  occ. eigenvalues --   -0.49937  -0.49518  -0.48634  -0.43706  -0.40765
 Alpha  occ. eigenvalues --   -0.40341  -0.39149  -0.37386  -0.35858  -0.32013
 Alpha virt. eigenvalues --   -0.19889  -0.13979  -0.13439  -0.12831  -0.11705
 Alpha virt. eigenvalues --   -0.11390  -0.10264  -0.09888  -0.08592  -0.08077
 Alpha virt. eigenvalues --   -0.07432  -0.06736  -0.06108  -0.05885  -0.05260

 Mulliken charges:
               1
     1  O   -0.443667
     2  C    0.167668
     3  N   -0.213472
     4  C   -0.205209
     5  C    0.415838
     6  O   -0.345555
     7  O   -0.396108
     8  C   -1.132649
     9  C    0.876439
    10  C   -0.014163
    11  N   -0.262050
    12  C    0.221518
    13  N   -0.384568
    14  C   -0.322918
    15  C   -0.254378
    16  N   -0.602421
    17  H    0.335251
    18  H    0.193714
    19  H    0.362261
    20  H    0.167860
    21  H    0.182088
    22  H    0.145403
    23  H    0.151954
    24  H    0.312430
    25  H    0.193701
    26  H    0.179443
    27  H    0.214274
    28  H    0.246230
    29  H    0.403234
    30  H    0.405825
    31  H    0.402025
 Sum of Mulliken charges =   1.00000

 Dipole moment (field-independent basis, Debye):
    X=            -13.5358    Y=              5.8879    Z=              2.4419  Tot=             14.9615
 Quadrupole moment (field-independent basis, Debye-Ang):
   XX=             15.8558   YY=            -81.6604   ZZ=           -108.6355
   XY=            -26.2186   XZ=              1.2734   YZ=             15.0554

  Exact polarizability: 147.510  -1.795 137.400   3.582 -15.500 130.057
 Approx polarizability: 191.772   1.780 191.787  16.092  -6.421 217.447

                      1                      2                      3
                      A                      A                      A
 Frequencies --     19.6603                29.6088                45.7700
 Red. masses --      4.8636                 1.7168                 3.8620
 Frc consts  --      0.0011                 0.0009                 0.0048
 IR Inten    --     12.8161                 3.5007                 8.5895

                      4                      5                      6
                      A                      A                      A
 Frequencies --     50.3629                59.1585                76.4955
 Red. masses --      6.1718                 5.2535                 6.9419
 Frc consts  --      0.0092                 0.0108                 0.0239
 IR Inten    --      4.8498                 9.9974                30.4291

                      7                      8                      9
                      A                      A                      A
 Frequencies --     91.2671                96.7397               122.8816
 Red. masses --      4.7803                 4.0629                 4.3733
 Frc consts  --      0.0235                 0.0224                 0.0389
 IR Inten    --      1.5053                 5.1335                14.9008

                     10                     11                     12
                      A                      A                      A
 Frequencies --    171.8413               220.5899               241.7369
 Red. masses --      6.9520                 2.0244                 1.6459
 Frc consts  --      0.1210                 0.0580                 0.0567
 IR Inten    --      3.5385                15.2401                 6.7485

                     13                     14                     15
                      A                      A                      A
 Frequencies --    248.4691               281.0959               315.5815
 Red. masses --      3.8026                 3.0977                 3.9229
 Frc consts  --      0.1383                 0.1442                 0.2302
 IR Inten    --      0.4196                 7.6100                14.9082

                     16                     17                     18
                      A                      A                      A
 Frequencies --    343.7962               376.8811               438.9304
 Red. masses --      4.2138                 3.3945                 2.8326
 Frc consts  --      0.2934                 0.2841                 0.3215
 IR Inten    --     14.6731                 6.9792                35.0630

                     19                     20                     21
                      A                      A                      A
 Frequencies --    490.4401               517.5890               525.2881
 Red. masses --      1.2443                 1.7606                 1.6334
 Frc consts  --      0.1763                 0.2779                 0.2655
 IR Inten    --    102.3147                64.8522                61.7802

                     22                     23                     24
                      A                      A                      A
 Frequencies --    539.4707               611.3650               645.2570
 Red. masses --      2.8669                 2.2205                 2.4517
 Frc consts  --      0.4916                 0.4890                 0.6014
 IR Inten    --     11.9521                 5.6794                23.9305

                     25                     26                     27
                      A                      A                      A
 Frequencies --    654.7297               673.5256               685.4082
 Red. masses --      6.3651                 3.2277                 4.7756
 Frc consts  --      1.6076                 0.8627                 1.3218
 IR Inten    --      7.9713                 4.9164                12.5186

                     28                     29                     30
                      A                      A                      A
 Frequencies --    711.0524               778.4744               794.3576
 Red. masses --      4.5267                 5.2336                 1.3179
 Frc consts  --      1.3485                 1.8687                 0.4900
 IR Inten    --      5.7904                 3.1174                13.7856

                     31                     32                     33
                      A                      A                      A
 Frequencies --    822.6549               861.1483               878.6587
 Red. masses --      1.3699                 1.4104                 2.0429
 Frc consts  --      0.5462                 0.6163                 0.9292
 IR Inten    --     20.5793                20.9724                35.2444

                     34                     35                     36
                      A                      A                      A
 Frequencies --    896.4072               906.2322               918.0893
 Red. masses --      2.5189                 4.3930                 1.2869
 Frc consts  --      1.1925                 2.1257                 0.6391
 IR Inten    --     13.6207                 8.9475                 4.6230

                     37                     38                     39
                      A                      A                      A
 Frequencies --    930.0094               964.7564               992.8098
 Red. masses --      5.8601                 3.0622                 2.3296
 Frc consts  --      2.9863                 1.6793                 1.3529
 IR Inten    --      9.6552                15.1535                16.9772

                     40                     41                     42
                      A                      A                      A
 Frequencies --   1023.0646              1048.9620              1091.5819
 Red. masses --      3.8405                 3.0964                 1.8650
 Frc consts  --      2.3684                 2.0074                 1.3093
 IR Inten    --     10.9720                12.4817                12.4119

                     43                     44                     45
                      A                      A                      A
 Frequencies --   1110.4005              1117.8434              1145.0853
 Red. masses --      2.0570                 1.6929                 2.2028
 Frc consts  --      1.4943                 1.2463                 1.7018
 IR Inten    --     19.5353                26.3632                 5.4758

                     46                     47                     48
                      A                      A                      A
 Frequencies --   1153.7879              1167.2974              1209.6460
 Red. masses --      2.1753                 1.6750                 1.6734
 Frc consts  --      1.7062                 1.3447                 1.4427
 IR Inten    --     23.3006                 9.5995                 9.6427

                     49                     50                     51
                      A                      A                      A
 Frequencies --   1243.4904              1252.1737              1282.6985
 Red. masses --      1.5856                 1.6131                 1.4425
 Frc consts  --      1.4445                 1.4901                 1.3984
 IR Inten    --      0.5410               141.8871                91.4928

                     52                     53                     54
                      A                      A                      A
 Frequencies --   1289.8015              1295.0319              1323.5617
 Red. masses --      1.3046                 1.4698                 1.4314
 Frc consts  --      1.2787                 1.4523                 1.4774
 IR Inten    --      6.0667                12.8154               112.7555

                     55                     56                     57
                      A                      A                      A
 Frequencies --   1324.9459              1355.2973              1359.7033
 Red. masses --      1.6008                 1.3118                 2.0556
 Frc consts  --      1.6557                 1.4196                 2.2391
 IR Inten    --    108.6141                 9.3952                14.8326

                     58                     59                     60
                      A                      A                      A
 Frequencies --   1392.8896              1408.7263              1416.2561
 Red. masses --      1.7637                 1.3750                 2.2526
 Frc consts  --      2.0161                 1.6077                 2.6620
 IR Inten    --    146.9292                34.3540                23.5736

                     61                     62                     63
                      A                      A                      A
 Frequencies --   1436.8012              1482.8660              1488.5482
 Red. masses --      2.7939                 1.1211                 1.2158
 Frc consts  --      3.3983                 1.4524                 1.5873
 IR Inten    --     20.2843                 1.3462                27.8917

                     64                     65                     66
                      A                      A                      A
 Frequencies --   1508.1302              1508.6648              1520.9408
 Red. masses --      3.1272                 1.0779                 1.1707
 Frc consts  --      4.1907                 1.4455                 1.5956
 IR Inten    --     14.8563                12.6113               171.0637

                     67                     68                     69
                      A                      A                      A
 Frequencies --   1562.9997              1611.5409              1669.0644
 Red. masses --      1.9870                 4.1222                 1.0425
 Frc consts  --      2.8600                 6.3076                 1.7111
 IR Inten    --    238.2777                 9.0797                50.0713

                     70                     71                     72
                      A                      A                      A
 Frequencies --   1671.4648              1754.1665              1838.9989
 Red. masses --      1.0435                 9.5588                10.2055
 Frc consts  --      1.7177                17.3298                20.3351
 IR Inten    --     42.1428               261.9834               237.4216

                     73                     74                     75
                      A                      A                      A
 Frequencies --   3019.3369              3035.5786              3052.2640
 Red. masses --      1.0606                 1.0631                 1.1014
 Frc consts  --      5.6969                 5.7717                 6.0458
 IR Inten    --     26.8320                 3.1682                 7.6624

                     76                     77                     78
                      A                      A                      A
 Frequencies --   3094.3363              3098.1426              3112.9504
 Red. masses --      1.1015                 1.0858                 1.0601
 Frc consts  --      6.2137                 6.1403                 6.0524
 IR Inten    --      4.7757                 7.9200                 3.8998

                     79                     80                     81
                      A                      A                      A
 Frequencies --   3178.0857              3264.9660              3269.5101
 Red. masses --      1.1120                 1.0957                 1.0989
 Frc consts  --      6.6172                 6.8816                 6.9210
 IR Inten    --      3.0996                 0.9067                 1.4273

                     82                     83                     84
                      A                      A                      A
 Frequencies --   3399.0514              3489.9972              3493.5245
 Red. masses --      1.0305                 1.0935                 1.0937
 Frc consts  --      7.0147                 7.8471                 7.8649
 IR Inten    --     51.7611                95.9533                93.1629

                     85                     86                     87
                      A                      A                      A
 Frequencies --   3594.2927              3648.6081              3789.0268
 Red. masses --      1.0776                 1.0817                 1.0668
 Frc consts  --      8.2027                 8.4840                 9.0235
 IR Inten    --     65.4573                63.3985                66.3274

 - Thermochemistry -
 -------------------
 Temperature   298.150 Kelvin.  Pressure   1.00000 Atm.
 Atom     1 has atomic number  8 and mass  15.99491

 Molecular mass:   227.11442 amu.
 Principal axes and moments of inertia in atomic units:
                           1         2         3
     Eigenvalues --  3611.825544911.089637697.72832
           X            0.99570   0.01705   0.09109
           Y           -0.06417   0.83602   0.54493
           Z           -0.06686  -0.54843   0.83352
 This molecule is an asymmetric top.
 Rotational symmetry number  1.
 Warning -- assumption of classical behavior for rotation
           may cause significant error
 Rotational temperatures (Kelvin)      0.02398     0.01764     0.01125
 Rotational constants (GHZ):           0.49968     0.36748     0.23445
 Zero-point vibrational energy     679686.4 (Joules/Mol)
                                  162.44895 (Kcal/Mol)
 Warning -- explicit consideration of  23 degrees of freedom as
           vibrations may cause significant error
 Vibrational temperatures:     28.29    42.60    65.85    72.46    85.12
          (Kelvin)            110.06   131.31   139.19   176.80   247.24
                              317.38   347.81   357.49   404.43   454.05
                              494.65   542.25   631.52   705.63   744.69
                              755.77   776.18   879.62   928.38   942.01
                              969.05   986.15  1023.04  1120.05  1142.90
                             1183.62  1239.00  1264.19  1289.73  1303.86
                             1320.92  1338.07  1388.07  1428.43  1471.96
                             1509.22  1570.54  1597.62  1608.33  1647.52
                             1660.04  1679.48  1740.41  1789.10  1801.60
                             1845.51  1855.73  1863.26  1904.31  1906.30
                             1949.97  1956.31  2004.06  2026.84  2037.67
                             2067.23  2133.51  2141.69  2169.86  2170.63
                             2188.29  2248.81  2318.64  2401.41  2404.86
                             2523.85  2645.91  4344.15  4367.52  4391.52
                             4452.05  4457.53  4478.84  4572.55  4697.55
                             4704.09  4890.47  5021.32  5026.40  5171.38
                             5249.53  5451.56

 Zero-point correction=                           0.258879 (Hartree/Particle)
 Thermal correction to Energy=                    0.275534
 Thermal correction to Enthalpy=                  0.276478
 Thermal correction to Gibbs Free Energy=         0.211158
 Sum of electronic and zero-point Energies=           -796.241373
 Sum of electronic and thermal Energies=              -796.224718
 Sum of electronic and thermal Enthalpies=            -796.223774
 Sum of electronic and thermal Free Energies=         -796.289094

                     E (Thermal)             CV                S
                      KCal/Mol        Cal/Mol-Kelvin    Cal/Mol-Kelvin
 Total                  172.900             59.528            137.477
 Electronic               0.000              0.000              0.000
 Translational            0.889              2.981             42.163
 Rotational               0.889              2.981             33.279
 Vibrational            171.123             53.567             62.035
 Vibration     1          0.593              1.986              6.668
 Vibration     2          0.593              1.984              5.855
 Vibration     3          0.595              1.979              4.992
 Vibration     4          0.595              1.977              4.803
 Vibration     5          0.597              1.974              4.485
 Vibration     6          0.599              1.965              3.979
 Vibration     7          0.602              1.955              3.633
 Vibration     8          0.603              1.952              3.519
 Vibration     9          0.610              1.930              3.055
 Vibration    10          0.626              1.877              2.415
 Vibration    11          0.647              1.810              1.954
 Vibration    12          0.658              1.776              1.790
 Vibration    13          0.662              1.765              1.741
 Vibration    14          0.681              1.709              1.527
 Vibration    15          0.703              1.644              1.333
 Vibration    16          0.723              1.588              1.194
 Vibration    17          0.747              1.519              1.052
 Vibration    18          0.799              1.385              0.830
 Vibration    19          0.846              1.271              0.682
 Vibration    20          0.873              1.211              0.616
 Vibration    21          0.880              1.194              0.598
 Vibration    22          0.895              1.163              0.566
 Vibration    23          0.971              1.008              0.431

 Optimization completed.
    -- Stationary point found.
 Normal termination of Gaussian 09 at Wed Jul 28 23:55:27 2021.
