 Gaussian 09, Revision D.01,
 Gaussian 09:  ES64L-G09RevD.01 24-Apr-2013

 ----------------------------------------------------------------------
 # B3LYP/6-31+G(d,p) opt=calcfc freq=noraman nosymm integral(ultrafineg
 rid)
 ----------------------------------------------------------------------

 ------------------------------------------------------------
 Candidate Structure: Conf:885 OPT and FREQ calc in gas phase
 ------------------------------------------------------------
 Symbolic Z-matrix:
 Charge =  1 Multiplicity = 1

 SCF Done:  E(RB3LYP) =  -796.515324677     A.U. after   15 cycles
 SCF Done:  E(RB3LYP) =  -796.522260690     A.U. after   13 cycles
 SCF Done:  E(RB3LYP) =  -796.523380040     A.U. after   13 cycles
 SCF Done:  E(RB3LYP) =  -796.524198933     A.U. after   13 cycles
 SCF Done:  E(RB3LYP) =  -796.524302499     A.U. after   13 cycles
 SCF Done:  E(RB3LYP) =  -796.524133582     A.U. after   14 cycles
 SCF Done:  E(RB3LYP) =  -796.524335540     A.U. after   12 cycles
 SCF Done:  E(RB3LYP) =  -796.524361132     A.U. after   13 cycles
 SCF Done:  E(RB3LYP) =  -796.524382634     A.U. after   12 cycles
 SCF Done:  E(RB3LYP) =  -796.524450541     A.U. after   14 cycles
 SCF Done:  E(RB3LYP) =  -796.524464061     A.U. after   16 cycles
 SCF Done:  E(RB3LYP) =  -796.523778377     A.U. after   14 cycles
 SCF Done:  E(RB3LYP) =  -796.524509998     A.U. after   11 cycles
 SCF Done:  E(RB3LYP) =  -796.524575632     A.U. after   13 cycles
 SCF Done:  E(RB3LYP) =  -796.524589259     A.U. after   12 cycles
 SCF Done:  E(RB3LYP) =  -796.524592372     A.U. after   12 cycles
 SCF Done:  E(RB3LYP) =  -796.524592728     A.U. after   11 cycles
 SCF Done:  E(RB3LYP) =  -796.524592755     A.U. after    8 cycles
 SCF Done:  E(RB3LYP) =  -796.524592759     A.U. after    9 cycles
 Optimization completed.
    -- Stationary point found.
 Normal termination of Gaussian 09 at Thu Jul 29 00:32:23 2021.

 ----------------------------------------------------------------------
 #N Geom=AllCheck Guess=TCheck SCRF=Check GenChk RB3LYP/6-31+G(d,p) Fre
 q
 ----------------------------------------------------------------------

 Structure from the checkpoint file:  "conf-885.chk"
 ------------------------------------------------------------
 Candidate Structure: Conf:885 OPT and FREQ calc in gas phase
 ------------------------------------------------------------
 Charge =  1 Multiplicity = 1

                          Input orientation:
 ---------------------------------------------------------------------
 Center     Atomic      Atomic             Coordinates (Angstroms)
 Number     Number       Type             X           Y           Z
 ---------------------------------------------------------------------
      1          8           0       -1.557522    0.331028   -0.704369
      2          6           0       -1.521579   -0.773752   -0.121533
      3          7           0       -0.403798   -1.290000    0.411671
      4          6           0        0.822094   -0.520045    0.667815
      5          6           0        0.519045    0.513510    1.768709
      6          8           0        1.644043    1.053847    2.245224
      7          8           0       -0.595091    0.779333    2.170900
      8          6           0        1.439003    0.074167   -0.642531
      9          6           0        2.825599    0.610012   -0.518780
     10          6           0        3.304279    1.900215   -0.558799
     11          7           0        4.670695    1.928613   -0.411340
     12          6           0        5.034050    0.671358   -0.285053
     13          7           0        3.956864   -0.173711   -0.338557
     14          6           0       -2.810737   -1.589252   -0.015743
     15          6           0       -3.974095   -0.681064    0.415825
     16          7           0       -4.097493    0.475796   -0.553267
     17          1           0       -0.503469   -2.154556    0.926761
     18          1           0        1.540819   -1.228795    1.090064
     19          1           0        1.416391    1.708872    2.929365
     20          1           0        1.396650   -0.734061   -1.384360
     21          1           0        0.790058    0.869236   -1.011316
     22          1           0        2.732602    2.809804   -0.685460
     23          1           0        6.045825    0.311983   -0.158530
     24          1           0        4.004219   -1.182290   -0.324921
     25          1           0       -3.018167   -2.043577   -0.992825
     26          1           0       -2.730782   -2.405093    0.707583
     27          1           0       -4.920347   -1.222854    0.451158
     28          1           0       -3.776028   -0.242918    1.396420
     29          1           0       -4.579223    0.211093   -1.415950
     30          1           0       -4.588030    1.274509   -0.145307
     31          1           0       -3.065787    0.718668   -0.780856
 ---------------------------------------------------------------------

 SCF Done:  E(RB3LYP) =  -796.524592759     A.U. after    1 cycles

 Alpha  occ. eigenvalues --  -19.32747 -19.29938 -19.27633 -14.60855 -14.53316
 Alpha  occ. eigenvalues --  -14.48372 -14.39994 -10.46786 -10.45518 -10.42509
 Alpha  occ. eigenvalues --  -10.38891 -10.38104 -10.32610 -10.32519 -10.31470
 Alpha  occ. eigenvalues --  -10.28602  -1.23936  -1.21621  -1.15534  -1.14978
 Alpha  occ. eigenvalues --   -1.10250  -1.09455  -0.96473  -0.95892  -0.92221
 Alpha  occ. eigenvalues --   -0.85898  -0.83070  -0.78996  -0.77689  -0.75039
 Alpha  occ. eigenvalues --   -0.74073  -0.72411  -0.70254  -0.68588  -0.67652
 Alpha  occ. eigenvalues --   -0.66252  -0.64318  -0.63064  -0.62493  -0.60938
 Alpha  occ. eigenvalues --   -0.60034  -0.58749  -0.57981  -0.57088  -0.56174
 Alpha  occ. eigenvalues --   -0.54787  -0.53896  -0.52845  -0.52334  -0.51274
 Alpha  occ. eigenvalues --   -0.49939  -0.49314  -0.48837  -0.45137  -0.43705
 Alpha  occ. eigenvalues --   -0.43258  -0.40897  -0.36899  -0.35182  -0.31529
 Alpha virt. eigenvalues --   -0.16767  -0.15539  -0.13387  -0.12561  -0.11553
 Alpha virt. eigenvalues --   -0.11310  -0.09318  -0.08993  -0.08738  -0.07410
 Alpha virt. eigenvalues --   -0.06999  -0.06730  -0.06410  -0.05391  -0.04589

 Mulliken charges:
               1
     1  O   -0.458112
     2  C    0.222966
     3  N   -0.285019
     4  C   -0.211879
     5  C    0.587308
     6  O   -0.383315
     7  O   -0.428225
     8  C   -1.400778
     9  C    1.046565
    10  C   -0.043889
    11  N   -0.248307
    12  C    0.294314
    13  N   -0.392118
    14  C   -0.387962
    15  C   -0.141865
    16  N   -0.664218
    17  H    0.325507
    18  H    0.174623
    19  H    0.395633
    20  H    0.172220
    21  H    0.199995
    22  H    0.129727
    23  H    0.150598
    24  H    0.299283
    25  H    0.209880
    26  H    0.185772
    27  H    0.206963
    28  H    0.223007
    29  H    0.385003
    30  H    0.389682
    31  H    0.446641
 Sum of Mulliken charges =   1.00000

 Dipole moment (field-independent basis, Debye):
    X=            -13.4978    Y=             -5.6171    Z=              0.6544  Tot=             14.6346
 Quadrupole moment (field-independent basis, Debye-Ang):
   XX=            -24.1258   YY=            -81.6675   ZZ=            -87.2520
   XY=            -14.7725   XZ=             11.0968   YZ=              0.7508

  Exact polarizability: 186.166   9.823 128.235   2.118  -0.943 106.781
 Approx polarizability: 236.315   1.421 209.802   6.826  -7.419 156.896

                      1                      2                      3
                      A                      A                      A
 Frequencies --     16.5473                26.8830                41.3123
 Red. masses --      4.9689                 4.6317                 5.5749
 Frc consts  --      0.0008                 0.0020                 0.0056
 IR Inten    --      3.0952                11.2488                 0.4533

                      4                      5                      6
                      A                      A                      A
 Frequencies --     62.7090                70.8262                77.9171
 Red. masses --      4.9680                 4.9014                 4.0204
 Frc consts  --      0.0115                 0.0145                 0.0144
 IR Inten    --      5.2560                 3.3672                 6.9322

                      7                      8                      9
                      A                      A                      A
 Frequencies --    115.1524               141.4047               184.5876
 Red. masses --      5.5721                 5.9113                 3.2092
 Frc consts  --      0.0435                 0.0696                 0.0644
 IR Inten    --      2.5615                 5.9973                 4.0685

                     10                     11                     12
                      A                      A                      A
 Frequencies --    207.8859               275.4089               306.3730
 Red. masses --      3.4986                 4.5713                 4.0357
 Frc consts  --      0.0891                 0.2043                 0.2232
 IR Inten    --      7.3556                14.8448                67.6019

                     13                     14                     15
                      A                      A                      A
 Frequencies --    319.3274               348.5844               366.9705
 Red. masses --      2.1391                 3.9818                 4.2362
 Frc consts  --      0.1285                 0.2851                 0.3361
 IR Inten    --      2.2655                76.1977                38.8855

                     16                     17                     18
                      A                      A                      A
 Frequencies --    379.4720               397.2213               453.8818
 Red. masses --      2.4447                 1.5376                 2.9819
 Frc consts  --      0.2074                 0.1429                 0.3619
 IR Inten    --     21.6929                 7.5281                12.5966

                     19                     20                     21
                      A                      A                      A
 Frequencies --    500.0217               520.3522               562.0159
 Red. masses --      1.4073                 2.8328                 1.9805
 Frc consts  --      0.2073                 0.4519                 0.3686
 IR Inten    --     82.0929                69.4439                12.0587

                     22                     23                     24
                      A                      A                      A
 Frequencies --    594.9398               611.6337               653.2540
 Red. masses --      1.6452                 1.4113                 2.6430
 Frc consts  --      0.3431                 0.3111                 0.6645
 IR Inten    --     63.4726                84.0641                45.2777

                     25                     26                     27
                      A                      A                      A
 Frequencies --    670.8485               693.2827               730.1723
 Red. masses --      3.1916                 4.5661                 3.7506
 Frc consts  --      0.8463                 1.2931                 1.1782
 IR Inten    --      9.2677                 8.4527                21.1632

                     28                     29                     30
                      A                      A                      A
 Frequencies --    736.5507               775.9691               789.1124
 Red. masses --      3.3737                 3.3328                 2.8947
 Frc consts  --      1.0784                 1.1824                 1.0620
 IR Inten    --     38.1134                11.4885                18.8046

                     31                     32                     33
                      A                      A                      A
 Frequencies --    825.3272               844.2572               861.8156
 Red. masses --      1.3837                 2.5153                 1.4126
 Frc consts  --      0.5553                 1.0563                 0.6182
 IR Inten    --     21.9602                29.2459                16.1090

                     34                     35                     36
                      A                      A                      A
 Frequencies --    888.6807               924.9265               931.4898
 Red. masses --      2.6616                 5.6263                 2.0102
 Frc consts  --      1.2385                 2.8359                 1.0276
 IR Inten    --     36.4184                 7.0860                19.4721

                     37                     38                     39
                      A                      A                      A
 Frequencies --    957.4360               979.5379              1000.6272
 Red. masses --      1.3959                 2.6176                 3.1164
 Frc consts  --      0.7539                 1.4798                 1.8384
 IR Inten    --      4.8753                 2.2798                 6.3274

                     40                     41                     42
                      A                      A                      A
 Frequencies --   1017.4826              1037.4544              1082.9015
 Red. masses --      3.8169                 3.9586                 3.2157
 Frc consts  --      2.3282                 2.5103                 2.2218
 IR Inten    --     11.8134                 2.0796                13.2666

                     43                     44                     45
                      A                      A                      A
 Frequencies --   1110.4596              1129.2409              1136.5466
 Red. masses --      1.6660                 1.3615                 1.4934
 Frc consts  --      1.2104                 1.0229                 1.1366
 IR Inten    --     27.2621               123.6580                21.7313

                     46                     47                     48
                      A                      A                      A
 Frequencies --   1156.0358              1173.0449              1186.0621
 Red. masses --      1.9415                 1.9991                 1.4499
 Frc consts  --      1.5287                 1.6208                 1.2017
 IR Inten    --     21.2334               140.9303                44.6075

                     49                     50                     51
                      A                      A                      A
 Frequencies --   1261.9827              1268.6429              1280.9211
 Red. masses --      1.4487                 2.2084                 1.3595
 Frc consts  --      1.3594                 2.0941                 1.3143
 IR Inten    --      7.9520                13.8357                 2.5877

                     52                     53                     54
                      A                      A                      A
 Frequencies --   1306.0296              1311.4550              1326.1867
 Red. masses --      1.5495                 1.4350                 1.2829
 Frc consts  --      1.5573                 1.4541                 1.3294
 IR Inten    --     25.4669                15.6311                49.4794

                     55                     56                     57
                      A                      A                      A
 Frequencies --   1329.8257              1354.3531              1390.3953
 Red. masses --      1.3318                 1.5360                 1.7105
 Frc consts  --      1.3876                 1.6600                 1.9483
 IR Inten    --     41.6224                33.7920                21.8320

                     58                     59                     60
                      A                      A                      A
 Frequencies --   1391.8001              1402.7314              1419.5211
 Red. masses --      2.6268                 1.2343                 2.2172
 Frc consts  --      2.9980                 1.4309                 2.6323
 IR Inten    --     78.7817                73.4341                25.8671

                     61                     62                     63
                      A                      A                      A
 Frequencies --   1435.3374              1474.0273              1477.5130
 Red. masses --      2.8385                 1.1571                 1.1982
 Frc consts  --      3.4455                 1.4813                 1.5412
 IR Inten    --     30.0520               254.2485               280.0079

                     64                     65                     66
                      A                      A                      A
 Frequencies --   1492.6995              1505.9210              1513.3875
 Red. masses --      1.1746                 3.1757                 1.0756
 Frc consts  --      1.5419                 4.2432                 1.4515
 IR Inten    --      6.4893                25.9773                61.3017

                     67                     68                     69
                      A                      A                      A
 Frequencies --   1581.0238              1615.1292              1634.0012
 Red. masses --      2.1597                 4.4736                 1.1306
 Frc consts  --      3.1807                 6.8758                 1.7785
 IR Inten    --    142.9105                 5.2754                 4.0951

                     70                     71                     72
                      A                      A                      A
 Frequencies --   1682.1697              1708.7878              1804.4798
 Red. masses --      1.0484                 3.5936                10.4648
 Frc consts  --      1.7479                 6.1825                20.0763
 IR Inten    --     29.9408               129.6089               401.9554

                     73                     74                     75
                      A                      A                      A
 Frequencies --   2537.2468              3038.1407              3058.9781
 Red. masses --      1.0942                 1.0718                 1.0666
 Frc consts  --      4.1502                 5.8286                 5.8802
 IR Inten    --   1192.7365                21.3516                 0.9102

                     76                     77                     78
                      A                      A                      A
 Frequencies --   3091.7294              3104.3984              3124.7594
 Red. masses --      1.0855                 1.0617                 1.0979
 Frc consts  --      6.1135                 6.0282                 6.3163
 IR Inten    --      4.1429                 1.4824                 1.6335

                     79                     80                     81
                      A                      A                      A
 Frequencies --   3148.0548              3166.1264              3252.3353
 Red. masses --      1.0922                 1.1121                 1.0966
 Frc consts  --      6.3772                 6.5680                 6.8343
 IR Inten    --      0.7644                 0.3171                 4.4918

                     82                     83                     84
                      A                      A                      A
 Frequencies --   3268.5444              3464.6661              3537.6600
 Red. masses --      1.0979                 1.0528                 1.0950
 Frc consts  --      6.9107                 7.4462                 8.0740
 IR Inten    --      1.0704                89.8304                77.8343

                     85                     86                     87
                      A                      A                      A
 Frequencies --   3625.0706              3652.7557              3735.0016
 Red. masses --      1.0786                 1.0813                 1.0648
 Frc consts  --      8.3507                 8.5006                 8.7518
 IR Inten    --     51.1543                46.0503               107.4070

 - Thermochemistry -
 -------------------
 Temperature   298.150 Kelvin.  Pressure   1.00000 Atm.
 Atom     1 has atomic number  8 and mass  15.99491

 Molecular mass:   227.11442 amu.
 Principal axes and moments of inertia in atomic units:
                           1         2         3
     Eigenvalues --  1445.129037437.789417738.12834
           X            0.98000  -0.02673  -0.19720
           Y            0.19682   0.27639   0.94068
           Z           -0.02936   0.96067  -0.27612
 This molecule is an asymmetric top.
 Rotational symmetry number  1.
 Warning -- assumption of classical behavior for rotation
           may cause significant error
 Rotational temperatures (Kelvin)      0.05994     0.01165     0.01119
 Rotational constants (GHZ):           1.24884     0.24264     0.23323
 Zero-point vibrational energy     679764.4 (Joules/Mol)
                                  162.46759 (Kcal/Mol)
 Warning -- explicit consideration of  23 degrees of freedom as
           vibrations may cause significant error
 Vibrational temperatures:     23.81    38.68    59.44    90.22   101.90
          (Kelvin)            112.11   165.68   203.45   265.58   299.10
                              396.25   440.80   459.44   501.53   527.99
                              545.97   571.51   653.03   719.42   748.67
                              808.61   855.98   880.00   939.89   965.20
                              997.48  1050.55  1059.73  1116.45  1135.36
                             1187.46  1214.70  1239.96  1278.61  1330.76
                             1340.20  1377.54  1409.33  1439.68  1463.93
                             1492.66  1558.05  1597.70  1624.72  1635.23
                             1663.28  1687.75  1706.48  1815.71  1825.29
                             1842.96  1879.08  1886.89  1908.08  1913.32
                             1948.61  2000.47  2002.49  2018.22  2042.37
                             2065.13  2120.79  2125.81  2147.66  2166.68
                             2177.42  2274.74  2323.81  2350.96  2420.26
                             2458.56  2596.24  3650.53  4371.20  4401.18
                             4448.30  4466.53  4495.83  4529.34  4555.34
                             4679.38  4702.70  4984.88  5089.90  5215.66
                             5255.49  5373.83

 Zero-point correction=                           0.258909 (Hartree/Particle)
 Thermal correction to Energy=                    0.274659
 Thermal correction to Enthalpy=                  0.275603
 Thermal correction to Gibbs Free Energy=         0.212827
 Sum of electronic and zero-point Energies=           -796.265684
 Sum of electronic and thermal Energies=              -796.249934
 Sum of electronic and thermal Enthalpies=            -796.248989
 Sum of electronic and thermal Free Energies=         -796.311766

                     E (Thermal)             CV                S
                      KCal/Mol        Cal/Mol-Kelvin    Cal/Mol-Kelvin
 Total                  172.351             58.149            132.123
 Electronic               0.000              0.000              0.000
 Translational            0.889              2.981             42.163
 Rotational               0.889              2.981             32.786
 Vibrational            170.574             52.188             57.174
 Vibration     1          0.593              1.986              7.011
 Vibration     2          0.593              1.984              6.047
 Vibration     3          0.594              1.981              5.195
 Vibration     4          0.597              1.972              4.370
 Vibration     5          0.598              1.968              4.130
 Vibration     6          0.599              1.964              3.943
 Vibration     7          0.608              1.937              3.180
 Vibration     8          0.615              1.912              2.785
 Vibration     9          0.631              1.861              2.282
 Vibration    10          0.641              1.829              2.062
 Vibration    11          0.677              1.719              1.562
 Vibration    12          0.697              1.662              1.382
 Vibration    13          0.705              1.637              1.314
 Vibration    14          0.726              1.578              1.173
 Vibration    15          0.740              1.540              1.092
 Vibration    16          0.749              1.514              1.041
 Vibration    17          0.764              1.476              0.973
 Vibration    18          0.812              1.352              0.784
 Vibration    19          0.855              1.250              0.658
 Vibration    20          0.875              1.205              0.609
 Vibration    21          0.918              1.113              0.520
 Vibration    22          0.953              1.043              0.458
 Vibration    23          0.971              1.007              0.430

 Optimization completed.
    -- Stationary point found.
 Normal termination of Gaussian 09 at Thu Jul 29 01:14:06 2021.
