 Gaussian 09, Revision D.01,
 Gaussian 09:  ES64L-G09RevD.01 24-Apr-2013

 ----------------------------------------------------------------------
 # B3LYP/6-31+G(d,p) opt=calcfc freq=noraman nosymm integral(ultrafineg
 rid)
 ----------------------------------------------------------------------

 ------------------------------------------------------------
 Candidate Structure: Conf:342 OPT and FREQ calc in gas phase
 ------------------------------------------------------------
 Symbolic Z-matrix:
 Charge =  1 Multiplicity = 1

 SCF Done:  E(RB3LYP) =  -796.496261500     A.U. after   17 cycles
 SCF Done:  E(RB3LYP) =  -796.502309531     A.U. after   13 cycles
 SCF Done:  E(RB3LYP) =  -796.503009208     A.U. after   13 cycles
 SCF Done:  E(RB3LYP) =  -796.503574352     A.U. after   13 cycles
 SCF Done:  E(RB3LYP) =  -796.504292318     A.U. after   13 cycles
 SCF Done:  E(RB3LYP) =  -796.505468661     A.U. after   14 cycles
 SCF Done:  E(RB3LYP) =  -796.505525519     A.U. after   12 cycles
 SCF Done:  E(RB3LYP) =  -796.505161299     A.U. after   13 cycles
 SCF Done:  E(RB3LYP) =  -796.505801877     A.U. after   13 cycles
 SCF Done:  E(RB3LYP) =  -796.505813492     A.U. after   11 cycles
 SCF Done:  E(RB3LYP) =  -796.505816024     A.U. after   10 cycles
 SCF Done:  E(RB3LYP) =  -796.505816497     A.U. after   10 cycles
 SCF Done:  E(RB3LYP) =  -796.505816592     A.U. after    8 cycles
 SCF Done:  E(RB3LYP) =  -796.505816604     A.U. after    7 cycles
 Optimization completed.
    -- Stationary point found.
 Normal termination of Gaussian 09 at Wed Jul 28 23:22:43 2021.

 ----------------------------------------------------------------------
 #N Geom=AllCheck Guess=TCheck SCRF=Check GenChk RB3LYP/6-31+G(d,p) Fre
 q
 ----------------------------------------------------------------------

 Structure from the checkpoint file:  "conf-342.chk"
 ------------------------------------------------------------
 Candidate Structure: Conf:342 OPT and FREQ calc in gas phase
 ------------------------------------------------------------
 Charge =  1 Multiplicity = 1

                          Input orientation:
 ---------------------------------------------------------------------
 Center     Atomic      Atomic             Coordinates (Angstroms)
 Number     Number       Type             X           Y           Z
 ---------------------------------------------------------------------
      1          8           0        1.072133   -1.244946    0.086855
      2          6           0        1.424347   -0.103881   -0.215966
      3          7           0        0.582010    0.907130   -0.494465
      4          6           0       -0.856575    0.712111   -0.635414
      5          6           0       -1.362656    1.908243   -1.465485
      6          8           0       -2.670290    1.964768   -1.713294
      7          8           0       -0.598607    2.755228   -1.879216
      8          6           0       -1.573238    0.571537    0.743984
      9          6           0       -2.946159   -0.016617    0.648701
     10          6           0       -4.211066    0.533799    0.741527
     11          7           0       -5.181729   -0.430384    0.589260
     12          6           0       -4.529843   -1.557325    0.408673
     13          7           0       -3.174003   -1.367229    0.427983
     14          6           0        2.925973    0.239850   -0.315814
     15          6           0        3.697145   -0.715688    0.585639
     16          7           0        5.196978   -0.647336    0.303962
     17          1           0        0.914098    1.793835   -0.870165
     18          1           0       -1.029390   -0.205565   -1.212077
     19          1           0       -3.176398    1.285738   -1.221195
     20          1           0       -1.629922    1.551275    1.228611
     21          1           0       -0.938261   -0.062973    1.370361
     22          1           0       -4.469698    1.566072    0.939215
     23          1           0       -4.976742   -2.530225    0.257817
     24          1           0       -2.469239   -2.087806    0.350191
     25          1           0        3.110221    1.286933   -0.051869
     26          1           0        3.218247    0.101766   -1.366191
     27          1           0        3.383787   -1.746312    0.413176
     28          1           0        3.574539   -0.482030    1.644918
     29          1           0        5.403480   -0.899388   -0.669256
     30          1           0        5.572457    0.294234    0.462712
     31          1           0        5.718129   -1.293873    0.906815
 ---------------------------------------------------------------------

 SCF Done:  E(RB3LYP) =  -796.505816604     A.U. after    1 cycles

 Alpha  occ. eigenvalues --  -19.30627 -19.26966 -19.25657 -14.67161 -14.50427
 Alpha  occ. eigenvalues --  -14.49349 -14.41126 -10.44461 -10.44053 -10.43821
 Alpha  occ. eigenvalues --  -10.38210 -10.37141 -10.33752 -10.32924 -10.32433
 Alpha  occ. eigenvalues --  -10.30094  -1.21684  -1.21067  -1.18637  -1.13673
 Alpha  occ. eigenvalues --   -1.11416  -1.06920  -0.97331  -0.97020  -0.91767
 Alpha  occ. eigenvalues --   -0.86541  -0.83734  -0.79447  -0.79231  -0.78050
 Alpha  occ. eigenvalues --   -0.73835  -0.71740  -0.71087  -0.69775  -0.69049
 Alpha  occ. eigenvalues --   -0.67843  -0.65255  -0.64081  -0.61285  -0.60743
 Alpha  occ. eigenvalues --   -0.58785  -0.57874  -0.57244  -0.55575  -0.55218
 Alpha  occ. eigenvalues --   -0.54473  -0.53581  -0.52363  -0.51270  -0.51158
 Alpha  occ. eigenvalues --   -0.50398  -0.49337  -0.48113  -0.42997  -0.41043
 Alpha  occ. eigenvalues --   -0.40374  -0.39418  -0.38031  -0.36207  -0.33103
 Alpha virt. eigenvalues --   -0.20433  -0.14464  -0.13897  -0.13385  -0.12339
 Alpha virt. eigenvalues --   -0.11062  -0.10030  -0.09330  -0.08841  -0.08066
 Alpha virt. eigenvalues --   -0.07461  -0.07148  -0.06332  -0.05988  -0.05595

 Mulliken charges:
               1
     1  O   -0.504325
     2  C    0.515125
     3  N   -0.217838
     4  C   -0.568173
     5  C    0.462936
     6  O   -0.364828
     7  O   -0.441490
     8  C   -0.687315
     9  C    0.492204
    10  C   -0.131703
    11  N   -0.246847
    12  C    0.262027
    13  N   -0.314424
    14  C   -0.386213
    15  C   -0.193716
    16  N   -0.601128
    17  H    0.339590
    18  H    0.193016
    19  H    0.355556
    20  H    0.181431
    21  H    0.182968
    22  H    0.156801
    23  H    0.156683
    24  H    0.312032
    25  H    0.183742
    26  H    0.194845
    27  H    0.243678
    28  H    0.213693
    29  H    0.402347
    30  H    0.403522
    31  H    0.405804
 Sum of Mulliken charges =   1.00000

 Dipole moment (field-independent basis, Debye):
    X=             22.0289    Y=             -4.4088    Z=              2.4119  Tot=             22.5948
 Quadrupole moment (field-independent basis, Debye-Ang):
   XX=             14.3071   YY=            -91.7025   ZZ=            -94.9319
   XY=             -3.6269   XZ=              5.9234   YZ=              7.4747

  Exact polarizability: 185.795   4.089 136.273  -3.022 -11.104 101.957
 Approx polarizability: 232.934   6.617 220.745  -4.163 -11.185 151.544

                      1                      2                      3
                      A                      A                      A
 Frequencies --     29.7088                32.4365                45.1180
 Red. masses --      2.8295                 4.5483                 2.2715
 Frc consts  --      0.0015                 0.0028                 0.0027
 IR Inten    --      1.7741                 2.4005                 8.2879

                      4                      5                      6
                      A                      A                      A
 Frequencies --     58.5726                72.5205                83.8326
 Red. masses --      5.2617                 4.6134                 5.8774
 Frc consts  --      0.0106                 0.0143                 0.0243
 IR Inten    --      2.5768                 4.2480                15.7791

                      7                      8                      9
                      A                      A                      A
 Frequencies --     99.6020               103.9431               149.5342
 Red. masses --      7.5216                 5.6700                 4.1176
 Frc consts  --      0.0440                 0.0361                 0.0542
 IR Inten    --      3.3159                13.1532                 8.2108

                     10                     11                     12
                      A                      A                      A
 Frequencies --    187.9409               211.1818               235.1001
 Red. masses --      5.1539                 3.2685                 1.2189
 Frc consts  --      0.1073                 0.0859                 0.0397
 IR Inten    --      1.2677                25.8547                 1.9424

                     13                     14                     15
                      A                      A                      A
 Frequencies --    269.3452               330.8426               333.8184
 Red. masses --      5.5746                 2.1631                 7.2760
 Frc consts  --      0.2383                 0.1395                 0.4777
 IR Inten    --     14.7857                 3.4291                 4.2324

                     16                     17                     18
                      A                      A                      A
 Frequencies --    344.9860               377.3688               385.2436
 Red. masses --      5.0220                 3.6554                 4.4129
 Frc consts  --      0.3522                 0.3067                 0.3859
 IR Inten    --      4.3786                20.1144                12.1614

                     19                     20                     21
                      A                      A                      A
 Frequencies --    542.1156               548.4720               588.8701
 Red. masses --      2.4769                 1.9815                 2.2656
 Frc consts  --      0.4289                 0.3512                 0.4629
 IR Inten    --     52.6453                24.0309                 3.8819

                     22                     23                     24
                      A                      A                      A
 Frequencies --    612.6647               647.0767               657.0426
 Red. masses --      2.8858                 1.6231                 1.9582
 Frc consts  --      0.6382                 0.4004                 0.4981
 IR Inten    --     67.1948                33.5285                70.9757

                     25                     26                     27
                      A                      A                      A
 Frequencies --    667.0697               677.6841               715.2442
 Red. masses --      2.2291                 2.5733                 2.5976
 Frc consts  --      0.5844                 0.6963                 0.7829
 IR Inten    --     15.2404                 1.9500                32.0785

                     28                     29                     30
                      A                      A                      A
 Frequencies --    738.4390               766.4961               795.5187
 Red. masses --      2.9681                 4.1939                 1.3530
 Frc consts  --      0.9536                 1.4517                 0.5045
 IR Inten    --      3.6508                 0.2738                 8.3398

                     31                     32                     33
                      A                      A                      A
 Frequencies --    820.8308               841.2075               869.6754
 Red. masses --      2.9584                 1.3980                 1.2994
 Frc consts  --      1.1744                 0.5829                 0.5791
 IR Inten    --      5.2650                17.9246                12.6485

                     34                     35                     36
                      A                      A                      A
 Frequencies --    883.8530               917.6882               926.2573
 Red. masses --      2.7869                 1.2751                 5.6046
 Frc consts  --      1.2827                 0.6327                 2.8331
 IR Inten    --     36.8944                 5.6036                 3.2954

                     37                     38                     39
                      A                      A                      A
 Frequencies --    932.5539               981.8365              1000.2018
 Red. masses --      3.4990                 2.1027                 3.6183
 Frc consts  --      1.7928                 1.1943                 2.1327
 IR Inten    --     28.2258                13.2577                37.8938

                     40                     41                     42
                      A                      A                      A
 Frequencies --   1022.4509              1027.2445              1094.3681
 Red. masses --      3.5800                 3.4262                 1.7991
 Frc consts  --      2.2050                 2.1302                 1.2695
 IR Inten    --      8.8744                 2.2302                17.0561

                     43                     44                     45
                      A                      A                      A
 Frequencies --   1109.6557              1116.0790              1150.3332
 Red. masses --      1.6810                 2.1850                 2.5239
 Frc consts  --      1.2196                 1.6036                 1.9677
 IR Inten    --     19.5175                26.2259                 5.1097

                     46                     47                     48
                      A                      A                      A
 Frequencies --   1154.0610              1173.1987              1224.5018
 Red. masses --      1.9444                 1.3660                 1.7716
 Frc consts  --      1.5258                 1.1078                 1.5650
 IR Inten    --     17.8553                 2.6467                 1.6239

                     49                     50                     51
                      A                      A                      A
 Frequencies --   1241.1445              1261.4148              1283.4051
 Red. masses --      1.4831                 2.2610                 1.3779
 Frc consts  --      1.3461                 2.1197                 1.3372
 IR Inten    --     21.1520                25.0961                 1.7650

                     52                     53                     54
                      A                      A                      A
 Frequencies --   1290.4619              1304.6796              1324.6156
 Red. masses --      1.2995                 1.3849                 1.3427
 Frc consts  --      1.2750                 1.3889                 1.3881
 IR Inten    --      2.8877                45.1925                19.0920

                     55                     56                     57
                      A                      A                      A
 Frequencies --   1328.2256              1349.5375              1360.9268
 Red. masses --      1.3143                 1.5417                 1.4663
 Frc consts  --      1.3661                 1.6544                 1.6001
 IR Inten    --      5.1109               143.4497                24.8903

                     58                     59                     60
                      A                      A                      A
 Frequencies --   1388.2676              1407.8672              1412.5481
 Red. masses --      2.5679                 1.3701                 2.3313
 Frc consts  --      2.9159                 1.6000                 2.7406
 IR Inten    --      2.5649                 2.8615               219.0976

                     61                     62                     63
                      A                      A                      A
 Frequencies --   1433.8101              1484.2055              1487.7098
 Red. masses --      2.7671                 1.1187                 1.1055
 Frc consts  --      3.3517                 1.4520                 1.4416
 IR Inten    --     26.0125                 0.6968                12.8564

                     64                     65                     66
                      A                      A                      A
 Frequencies --   1506.2234              1508.1446              1521.2472
 Red. masses --      3.9857                 1.0765                 1.1882
 Frc consts  --      5.3277                 1.4426                 1.6201
 IR Inten    --     39.2311                12.6179               239.5423

                     67                     68                     69
                      A                      A                      A
 Frequencies --   1540.0180              1604.2183              1668.5637
 Red. masses --      2.4247                 4.1979                 1.0422
 Frc consts  --      3.3882                 6.3652                 1.7096
 IR Inten    --    284.4379                 8.3357                52.2670

                     70                     71                     72
                      A                      A                      A
 Frequencies --   1671.6551              1742.3026              1819.8240
 Red. masses --      1.0440                 9.8030                 9.5877
 Frc consts  --      1.7189                17.5331                18.7078
 IR Inten    --     42.3018               293.7798               340.3094

                     73                     74                     75
                      A                      A                      A
 Frequencies --   3035.7645              3052.0204              3066.4174
 Red. masses --      1.0637                 1.0822                 1.0619
 Frc consts  --      5.7755                 5.9394                 5.8829
 IR Inten    --      3.4365                 4.5250                13.9045

                     76                     77                     78
                      A                      A                      A
 Frequencies --   3096.8929              3113.3683              3114.9396
 Red. masses --      1.1009                 1.0602                 1.1054
 Frc consts  --      6.2211                 6.0550                 6.3191
 IR Inten    --      4.4014                 2.9362                 2.8201

                     79                     80                     81
                      A                      A                      A
 Frequencies --   3178.7920              3250.4042              3269.7248
 Red. masses --      1.1117                 1.0966                 1.0982
 Frc consts  --      6.6188                 6.8261                 6.9175
 IR Inten    --      2.2991                 2.4776                 1.4042

                     82                     83                     84
                      A                      A                      A
 Frequencies --   3398.6946              3490.0529              3491.8523
 Red. masses --      1.0305                 1.0935                 1.0937
 Frc consts  --      7.0133                 7.8474                 7.8571
 IR Inten    --     57.7057                94.8309                93.8858

                     85                     86                     87
                      A                      A                      A
 Frequencies --   3517.9754              3576.8884              3642.7625
 Red. masses --      1.0783                 1.0681                 1.0819
 Frc consts  --      7.8627                 8.0511                 8.4583
 IR Inten    --    138.5328               510.8636                59.8444

 - Thermochemistry -
 -------------------
 Temperature   298.150 Kelvin.  Pressure   1.00000 Atm.
 Atom     1 has atomic number  8 and mass  15.99491

 Molecular mass:   227.11442 amu.
 Principal axes and moments of inertia in atomic units:
                           1         2         3
     Eigenvalues --  1935.593137566.226559117.34372
           X            0.99915   0.02766   0.03058
           Y           -0.03981   0.84057   0.54023
           Z           -0.01076  -0.54099   0.84096
 This molecule is an asymmetric top.
 Rotational symmetry number  1.
 Warning -- assumption of classical behavior for rotation
           may cause significant error
 Rotational temperatures (Kelvin)      0.04475     0.01145     0.00950
 Rotational constants (GHZ):           0.93240     0.23853     0.19795
 Zero-point vibrational energy     680623.4 (Joules/Mol)
                                  162.67291 (Kcal/Mol)
 Warning -- explicit consideration of  22 degrees of freedom as
           vibrations may cause significant error
 Vibrational temperatures:     42.74    46.67    64.91    84.27   104.34
          (Kelvin)            120.62   143.30   149.55   215.15   270.40
                              303.84   338.26   387.53   476.01   480.29
                              496.36   542.95   554.28   779.98   789.13
                              847.25   881.49   931.00   945.34   959.76
                              975.03  1029.08  1062.45  1102.82  1144.57
                             1180.99  1210.31  1251.27  1271.67  1320.35
                             1332.68  1341.74  1412.64  1439.07  1471.08
                             1477.97  1574.55  1596.55  1605.79  1655.07
                             1660.43  1687.97  1761.78  1785.73  1814.89
                             1846.53  1856.68  1877.14  1905.82  1911.02
                             1941.68  1958.07  1997.40  2025.60  2032.34
                             2062.93  2135.44  2140.48  2167.12  2169.88
                             2188.73  2215.74  2308.11  2400.69  2405.14
                             2506.78  2618.32  4367.78  4391.17  4411.89
                             4455.73  4479.44  4481.70  4573.57  4676.60
                             4704.40  4889.96  5021.40  5023.99  5061.58
                             5146.34  5241.12

 Zero-point correction=                           0.259236 (Hartree/Particle)
 Thermal correction to Energy=                    0.275475
 Thermal correction to Enthalpy=                  0.276420
 Thermal correction to Gibbs Free Energy=         0.212771
 Sum of electronic and zero-point Energies=           -796.246581
 Sum of electronic and thermal Energies=              -796.230341
 Sum of electronic and thermal Enthalpies=            -796.229397
 Sum of electronic and thermal Free Energies=         -796.293045

                     E (Thermal)             CV                S
                      KCal/Mol        Cal/Mol-Kelvin    Cal/Mol-Kelvin
 Total                  172.863             58.741            133.959
 Electronic               0.000              0.000              0.000
 Translational            0.889              2.981             42.163
 Rotational               0.889              2.981             33.257
 Vibrational            171.086             52.779             58.539
 Vibration     1          0.594              1.984              5.849
 Vibration     2          0.594              1.983              5.675
 Vibration     3          0.595              1.979              5.021
 Vibration     4          0.596              1.974              4.505
 Vibration     5          0.599              1.967              4.084
 Vibration     6          0.601              1.960              3.799
 Vibration     7          0.604              1.949              3.462
 Vibration     8          0.605              1.946              3.379
 Vibration     9          0.618              1.903              2.678
 Vibration    10          0.633              1.856              2.248
 Vibration    11          0.643              1.824              2.033
 Vibration    12          0.655              1.787              1.840
 Vibration    13          0.674              1.730              1.600
 Vibration    14          0.713              1.614              1.256
 Vibration    15          0.715              1.608              1.242
 Vibration    16          0.723              1.585              1.189
 Vibration    17          0.748              1.518              1.050
 Vibration    18          0.754              1.502              1.019
 Vibration    19          0.897              1.157              0.561
 Vibration    20          0.904              1.143              0.547
 Vibration    21          0.946              1.056              0.469
 Vibration    22          0.972              1.005              0.428

 Optimization completed.
    -- Stationary point found.
 Normal termination of Gaussian 09 at Wed Jul 28 23:58:02 2021.
