 Gaussian 09, Revision D.01,
 Gaussian 09:  ES64L-G09RevD.01 24-Apr-2013

 ----------------------------------------------------------------------
 # B3LYP/6-31+G(d,p) opt=calcfc freq=noraman nosymm integral(ultrafineg
 rid)
 ----------------------------------------------------------------------

 ------------------------------------------------------------
 Candidate Structure: Conf:301 OPT and FREQ calc in gas phase
 ------------------------------------------------------------
 Symbolic Z-matrix:
 Charge =  1 Multiplicity = 1

 SCF Done:  E(RB3LYP) =  -796.534399841     A.U. after   15 cycles
 SCF Done:  E(RB3LYP) =  -794.457602049     A.U. after   18 cycles
 SCF Done:  E(RB3LYP) =  -796.498916576     A.U. after   15 cycles
 SCF Done:  E(RB3LYP) =  -796.538919655     A.U. after   13 cycles
 SCF Done:  E(RB3LYP) =  -796.542833902     A.U. after   13 cycles
 SCF Done:  E(RB3LYP) =  -796.526403171     A.U. after   14 cycles
 SCF Done:  E(RB3LYP) =  -796.542869570     A.U. after   10 cycles
 SCF Done:  E(RB3LYP) =  -796.545058548     A.U. after   13 cycles
 SCF Done:  E(RB3LYP) =  -796.545704777     A.U. after   13 cycles
 SCF Done:  E(RB3LYP) =  -796.545871352     A.U. after   12 cycles
 SCF Done:  E(RB3LYP) =  -796.545931634     A.U. after   12 cycles
 SCF Done:  E(RB3LYP) =  -796.545993586     A.U. after   12 cycles
 SCF Done:  E(RB3LYP) =  -796.546026104     A.U. after   11 cycles
 SCF Done:  E(RB3LYP) =  -796.546047996     A.U. after   12 cycles
 SCF Done:  E(RB3LYP) =  -796.546055350     A.U. after   10 cycles
 SCF Done:  E(RB3LYP) =  -796.546057181     A.U. after   10 cycles
 SCF Done:  E(RB3LYP) =  -796.546057361     A.U. after   10 cycles
 Optimization completed.
    -- Stationary point found.
 Normal termination of Gaussian 09 at Thu Jul 29 00:08:33 2021.

 ----------------------------------------------------------------------
 #N Geom=AllCheck Guess=TCheck SCRF=Check GenChk RB3LYP/6-31+G(d,p) Fre
 q
 ----------------------------------------------------------------------

 Structure from the checkpoint file:  "conf-301.chk"
 ------------------------------------------------------------
 Candidate Structure: Conf:301 OPT and FREQ calc in gas phase
 ------------------------------------------------------------
 Charge =  1 Multiplicity = 1

                          Input orientation:
 ---------------------------------------------------------------------
 Center     Atomic      Atomic             Coordinates (Angstroms)
 Number     Number       Type             X           Y           Z
 ---------------------------------------------------------------------
      1          8           0       -0.024893   -0.206467   -1.697691
      2          6           0        0.423284    0.730125   -1.014064
      3          7           0       -0.354850    1.495642   -0.224002
      4          6           0       -1.724055    1.143668    0.114373
      5          6           0       -2.480491    2.435800    0.402251
      6          8           0       -3.806781    2.239447    0.404686
      7          8           0       -1.935829    3.490944    0.644009
      8          6           0       -1.786386    0.211942    1.386562
      9          6           0       -0.878106   -0.966770    1.266477
     10          6           0        0.477878   -1.075885    1.485201
     11          7           0        0.963515   -2.270952    0.993938
     12          6           0       -0.096770   -2.907109    0.517484
     13          7           0       -1.224509   -2.159311    0.659609
     14          6           0        1.925360    1.034155   -0.973808
     15          6           0        2.774774    0.006637   -1.732361
     16          7           0        2.299894   -1.404973   -1.477907
     17          1           0        0.019999    2.321540    0.231599
     18          1           0       -2.174873    0.630790   -0.737880
     19          1           0       -4.248276    3.077899    0.631335
     20          1           0       -1.489270    0.800419    2.260682
     21          1           0       -2.827997   -0.087508    1.538782
     22          1           0        1.125222   -0.362147    1.975859
     23          1           0       -0.102287   -3.899168    0.087996
     24          1           0       -2.153935   -2.435601    0.372212
     25          1           0        2.244298    1.093247    0.072135
     26          1           0        2.118289    2.019531   -1.414172
     27          1           0        2.699830    0.152873   -2.811607
     28          1           0        3.823300    0.079299   -1.439654
     29          1           0        2.855672   -2.090592   -1.993024
     30          1           0        1.305994   -1.404088   -1.797002
     31          1           0        2.252191   -1.693804   -0.476341
 ---------------------------------------------------------------------

 SCF Done:  E(RB3LYP) =  -796.546057361     A.U. after    1 cycles

 Alpha  occ. eigenvalues --  -19.33391 -19.28196 -19.28033 -14.59278 -14.53097
 Alpha  occ. eigenvalues --  -14.51429 -14.46407 -10.45868 -10.45275 -10.41016
 Alpha  occ. eigenvalues --  -10.38555 -10.38128 -10.36606 -10.36071 -10.34531
 Alpha  occ. eigenvalues --  -10.33627  -1.24322  -1.19847  -1.15624  -1.15487
 Alpha  occ. eigenvalues --   -1.14083  -1.08091  -1.01237  -0.95272  -0.93068
 Alpha  occ. eigenvalues --   -0.88566  -0.82996  -0.80968  -0.76110  -0.75236
 Alpha  occ. eigenvalues --   -0.73866  -0.72936  -0.72701  -0.71840  -0.68151
 Alpha  occ. eigenvalues --   -0.66409  -0.64364  -0.63398  -0.62141  -0.61316
 Alpha  occ. eigenvalues --   -0.60528  -0.59349  -0.58710  -0.57352  -0.56301
 Alpha  occ. eigenvalues --   -0.55672  -0.54987  -0.54536  -0.54303  -0.53629
 Alpha  occ. eigenvalues --   -0.53021  -0.51154  -0.50446  -0.45468  -0.43332
 Alpha  occ. eigenvalues --   -0.42405  -0.41792  -0.41372  -0.40962  -0.36460
 Alpha virt. eigenvalues --   -0.14725  -0.14281  -0.13968  -0.11914  -0.11491
 Alpha virt. eigenvalues --   -0.10793  -0.09884  -0.09628  -0.09264  -0.08467
 Alpha virt. eigenvalues --   -0.07712  -0.07128  -0.06774  -0.06039  -0.05259

 Mulliken charges:
               1
     1  O   -0.463026
     2  C   -0.164992
     3  N   -0.211926
     4  C   -0.330718
     5  C    0.601962
     6  O   -0.395728
     7  O   -0.392962
     8  C   -0.605568
     9  C    0.547036
    10  C   -0.232574
    11  N   -0.325778
    12  C    0.185109
    13  N   -0.315438
    14  C    0.016254
    15  C   -0.302320
    16  N   -0.613805
    17  H    0.346120
    18  H    0.209055
    19  H    0.395990
    20  H    0.184209
    21  H    0.188204
    22  H    0.145139
    23  H    0.164818
    24  H    0.321558
    25  H    0.198652
    26  H    0.213176
    27  H    0.204822
    28  H    0.200155
    29  H    0.387102
    30  H    0.424352
    31  H    0.421122
 Sum of Mulliken charges =   1.00000

 Dipole moment (field-independent basis, Debye):
    X=              3.0007    Y=             -2.2839    Z=             -3.3471  Tot=              5.0421
 Quadrupole moment (field-independent basis, Debye-Ang):
   XX=            -49.1719   YY=            -75.1462   ZZ=            -85.0064
   XY=             -5.4815   XZ=            -20.6340   YZ=              8.1901

  Exact polarizability: 150.153 -13.814 148.610 -13.427   9.661 108.682
 Approx polarizability: 218.899  -2.357 219.158  -0.807  29.226 167.244

                      1                      2                      3
                      A                      A                      A
 Frequencies --     55.5132                68.6431                94.8033
 Red. masses --     10.7865                 4.7271                 4.6930
 Frc consts  --      0.0196                 0.0131                 0.0249
 IR Inten    --      1.5367                 0.5264                 6.9663

                      4                      5                      6
                      A                      A                      A
 Frequencies --    104.7825               110.1537               115.4188
 Red. masses --      4.0033                 4.4654                 4.0569
 Frc consts  --      0.0259                 0.0319                 0.0318
 IR Inten    --     11.4526                 3.1081                12.1372

                      7                      8                      9
                      A                      A                      A
 Frequencies --    139.8639               153.0688               164.0663
 Red. masses --      3.7726                 4.2417                 5.5213
 Frc consts  --      0.0435                 0.0586                 0.0876
 IR Inten    --     12.6454                 6.0604                 7.5479

                     10                     11                     12
                      A                      A                      A
 Frequencies --    195.2127               256.5191               306.1546
 Red. masses --      2.4017                 4.3347                 5.5258
 Frc consts  --      0.0539                 0.1681                 0.3052
 IR Inten    --     28.2993                47.6556                 0.7401

                     13                     14                     15
                      A                      A                      A
 Frequencies --    311.5326               340.4418               349.9765
 Red. masses --      3.9515                 2.8676                 2.6235
 Frc consts  --      0.2260                 0.1958                 0.1893
 IR Inten    --      1.7797                 9.6428                32.7883

                     16                     17                     18
                      A                      A                      A
 Frequencies --    390.3053               416.8664               442.6211
 Red. masses --      1.7568                 2.7760                 2.1923
 Frc consts  --      0.1577                 0.2842                 0.2531
 IR Inten    --     15.6366                 6.3574                 2.6359

                     19                     20                     21
                      A                      A                      A
 Frequencies --    535.4843               547.9483               592.0387
 Red. masses --      1.9894                 3.5827                 1.6471
 Frc consts  --      0.3361                 0.6338                 0.3401
 IR Inten    --     57.7753                22.0625               133.5937

                     22                     23                     24
                      A                      A                      A
 Frequencies --    609.8913               618.1266               631.7932
 Red. masses --      1.3784                 1.5133                 4.0459
 Frc consts  --      0.3021                 0.3407                 0.9515
 IR Inten    --     27.5287                 5.4446                78.0152

                     25                     26                     27
                      A                      A                      A
 Frequencies --    672.8503               683.5818               691.0470
 Red. masses --      2.3726                 2.9637                 3.0915
 Frc consts  --      0.6329                 0.8159                 0.8698
 IR Inten    --     87.6991                11.9322                 1.1431

                     28                     29                     30
                      A                      A                      A
 Frequencies --    716.8694               766.8378               827.8358
 Red. masses --      3.4934                 4.2910                 1.3863
 Frc consts  --      1.0577                 1.4867                 0.5597
 IR Inten    --      2.0042                14.1012                13.1641

                     31                     32                     33
                      A                      A                      A
 Frequencies --    841.2088               846.4432               860.6832
 Red. masses --      1.6303                 2.0862                 2.1248
 Frc consts  --      0.6797                 0.8806                 0.9274
 IR Inten    --     32.8332                10.5647                26.3549

                     34                     35                     36
                      A                      A                      A
 Frequencies --    875.9879               919.6876               935.7257
 Red. masses --      2.1860                 2.6030                 5.8708
 Frc consts  --      0.9883                 1.2972                 3.0286
 IR Inten    --      1.2911                15.5928                10.8118

                     37                     38                     39
                      A                      A                      A
 Frequencies --    961.0014               974.1379              1000.9016
 Red. masses --      1.5573                 3.0396                 3.1380
 Frc consts  --      0.8474                 1.6995                 1.8522
 IR Inten    --      8.6177                 5.9375                 9.2985

                     40                     41                     42
                      A                      A                      A
 Frequencies --   1027.9320              1042.3168              1095.5015
 Red. masses --      3.7058                 2.9910                 2.1664
 Frc consts  --      2.3071                 1.9145                 1.5319
 IR Inten    --      3.7430                14.6263                 7.3368

                     43                     44                     45
                      A                      A                      A
 Frequencies --   1121.1060              1132.7997              1134.7745
 Red. masses --      1.4622                 1.5530                 1.7929
 Frc consts  --      1.0828                 1.1742                 1.3602
 IR Inten    --     80.7841                20.2384                51.7147

                     46                     47                     48
                      A                      A                      A
 Frequencies --   1147.7382              1171.1006              1206.6927
 Red. masses --      1.7702                 1.9674                 1.7140
 Frc consts  --      1.3739                 1.5897                 1.4705
 IR Inten    --      4.0488               209.8001                 7.3187

                     49                     50                     51
                      A                      A                      A
 Frequencies --   1251.6115              1259.4484              1279.4906
 Red. masses --      1.4146                 1.7409                 1.4569
 Frc consts  --      1.3057                 1.6270                 1.4052
 IR Inten    --      9.6541                17.5191                 2.7921

                     52                     53                     54
                      A                      A                      A
 Frequencies --   1285.7892              1287.4146              1333.0743
 Red. masses --      1.6287                 1.5264                 1.3527
 Frc consts  --      1.5864                 1.4905                 1.4163
 IR Inten    --      6.1686                 3.7657                24.1140

                     55                     56                     57
                      A                      A                      A
 Frequencies --   1341.8889              1353.3221              1385.8476
 Red. masses --      1.4094                 1.2465                 1.6776
 Frc consts  --      1.4952                 1.3450                 1.8983
 IR Inten    --     20.5056                 5.1358                70.8540

                     58                     59                     60
                      A                      A                      A
 Frequencies --   1395.5044              1419.2575              1425.0293
 Red. masses --      3.1526                 2.3949                 1.3223
 Frc consts  --      3.6173                 2.8422                 1.5821
 IR Inten    --      5.3563               148.2222                 8.1362

                     61                     62                     63
                      A                      A                      A
 Frequencies --   1441.9177              1470.9591              1483.9369
 Red. masses --      2.8040                 1.0964                 1.2261
 Frc consts  --      3.4349                 1.3978                 1.5907
 IR Inten    --     23.3895                28.0643               163.5599

                     64                     65                     66
                      A                      A                      A
 Frequencies --   1490.6414              1507.2149              1511.5421
 Red. masses --      1.1417                 2.4915                 1.1792
 Frc consts  --      1.4947                 3.3347                 1.5874
 IR Inten    --     37.6173                23.3976                29.7907

                     67                     68                     69
                      A                      A                      A
 Frequencies --   1565.0008              1613.8509              1640.7603
 Red. masses --      2.3000                 4.1112                 1.1440
 Frc consts  --      3.3190                 6.3088                 1.8145
 IR Inten    --    211.6927                 6.3588               134.2094

                     70                     71                     72
                      A                      A                      A
 Frequencies --   1691.6144              1712.6656              1821.0709
 Red. masses --      1.1432                 3.3652                10.2916
 Frc consts  --      1.9273                 5.8158                20.1089
 IR Inten    --    188.5980                92.2850               286.8292

                     73                     74                     75
                      A                      A                      A
 Frequencies --   3064.8586              3067.8126              3102.0448
 Red. masses --      1.0617                 1.0609                 1.0784
 Frc consts  --      5.8758                 5.8826                 6.1140
 IR Inten    --      2.2414                 6.7773                13.9569

                     76                     77                     78
                      A                      A                      A
 Frequencies --   3109.6431              3114.4936              3128.8867
 Red. masses --      1.0841                 1.0994                 1.0915
 Frc consts  --      6.1764                 6.2833                 6.2958
 IR Inten    --     17.9243                 1.3801                 4.4763

                     79                     80                     81
                      A                      A                      A
 Frequencies --   3145.8163              3155.2869              3167.0817
 Red. masses --      1.0702                 1.0774                 1.1071
 Frc consts  --      6.2402                 6.3199                 6.5429
 IR Inten    --    279.4571               371.4646                42.8215

                     82                     83                     84
                      A                      A                      A
 Frequencies --   3257.5643              3271.7965              3513.7668
 Red. masses --      1.0965                 1.0986                 1.0801
 Frc consts  --      6.8557                 6.9290                 7.8568
 IR Inten    --      2.3780                 2.9785               117.3632

                     85                     86                     87
                      A                      A                      A
 Frequencies --   3580.9317              3642.8123              3734.0686
 Red. masses --      1.0784                 1.0823                 1.0648
 Frc consts  --      8.1472                 8.4621                 8.7473
 IR Inten    --     94.6484                87.4250               139.1601

 - Thermochemistry -
 -------------------
 Temperature   298.150 Kelvin.  Pressure   1.00000 Atm.
 Atom     1 has atomic number  8 and mass  15.99491

 Molecular mass:   227.11442 amu.
 Principal axes and moments of inertia in atomic units:
                           1         2         3
     Eigenvalues --  2271.252924498.605515970.78101
           X            0.73109   0.47489   0.48988
           Y           -0.65335   0.69416   0.30213
           Z           -0.19658  -0.54095   0.81776
 This molecule is an asymmetric top.
 Rotational symmetry number  1.
 Warning -- assumption of classical behavior for rotation
           may cause significant error
 Rotational temperatures (Kelvin)      0.03813     0.01925     0.01451
 Rotational constants (GHZ):           0.79460     0.40118     0.30226
 Zero-point vibrational energy     683257.3 (Joules/Mol)
                                  163.30242 (Kcal/Mol)
 Warning -- explicit consideration of  23 degrees of freedom as
           vibrations may cause significant error
 Vibrational temperatures:     79.87    98.76   136.40   150.76   158.49
          (Kelvin)            166.06   201.23   220.23   236.05   280.87
                              369.07   440.49   448.23   489.82   503.54
                              561.56   599.78   636.83   770.44   788.37
                              851.81   877.50   889.35   909.01   968.08
                              983.52   994.26  1031.41  1103.31  1191.07
                             1210.31  1217.84  1238.33  1260.35  1323.22
                             1346.30  1382.67  1401.57  1440.07  1478.96
                             1499.66  1576.18  1613.02  1629.84  1632.69
                             1651.34  1684.95  1736.16  1800.79  1812.06
                             1840.90  1849.96  1852.30  1917.99  1930.68
                             1947.13  1993.92  2007.82  2041.99  2050.30
                             2074.60  2116.38  2135.05  2144.70  2168.54
                             2174.77  2251.68  2321.97  2360.69  2433.85
                             2464.14  2620.11  4409.64  4413.89  4463.14
                             4474.08  4481.06  4501.76  4526.12  4539.75
                             4556.72  4686.90  4707.38  5055.52  5152.16
                             5241.19  5372.49

 Zero-point correction=                           0.260239 (Hartree/Particle)
 Thermal correction to Energy=                    0.275459
 Thermal correction to Enthalpy=                  0.276404
 Thermal correction to Gibbs Free Energy=         0.217900
 Sum of electronic and zero-point Energies=           -796.285818
 Sum of electronic and thermal Energies=              -796.270598
 Sum of electronic and thermal Enthalpies=            -796.269654
 Sum of electronic and thermal Free Energies=         -796.328157

                     E (Thermal)             CV                S
                      KCal/Mol        Cal/Mol-Kelvin    Cal/Mol-Kelvin
 Total                  172.853             57.920            123.131
 Electronic               0.000              0.000              0.000
 Translational            0.889              2.981             42.163
 Rotational               0.889              2.981             32.478
 Vibrational            171.076             51.958             48.490
 Vibration     1          0.596              1.975              4.611
 Vibration     2          0.598              1.969              4.192
 Vibration     3          0.603              1.953              3.558
 Vibration     4          0.605              1.945              3.363
 Vibration     5          0.606              1.941              3.266
 Vibration     6          0.608              1.937              3.176
 Vibration     7          0.615              1.913              2.806
 Vibration     8          0.619              1.899              2.634
 Vibration     9          0.623              1.887              2.502
 Vibration    10          0.636              1.847              2.178
 Vibration    11          0.666              1.752              1.685
 Vibration    12          0.697              1.662              1.383
 Vibration    13          0.700              1.652              1.354
 Vibration    14          0.720              1.595              1.210
 Vibration    15          0.727              1.575              1.166
 Vibration    16          0.758              1.491              0.999
 Vibration    17          0.780              1.434              0.903
 Vibration    18          0.802              1.377              0.818
 Vibration    19          0.890              1.172              0.575
 Vibration    20          0.903              1.144              0.548
 Vibration    21          0.950              1.049              0.464
 Vibration    22          0.969              1.011              0.433
 Vibration    23          0.978              0.994              0.420

 Optimization completed.
    -- Stationary point found.
 Normal termination of Gaussian 09 at Thu Jul 29 00:54:57 2021.
