 Gaussian 09, Revision D.01,
 Gaussian 09:  ES64L-G09RevD.01 24-Apr-2013

 ----------------------------------------------------------------------
 # B3LYP/6-31+G(d,p) opt=calcfc freq=noraman nosymm integral(ultrafineg
 rid)
 ----------------------------------------------------------------------

 -----------------------------------------------------------
 Candidate Structure: Conf:55 OPT and FREQ calc in gas phase
 -----------------------------------------------------------
 Symbolic Z-matrix:
 Charge =  1 Multiplicity = 1

 SCF Done:  E(RB3LYP) =  -796.496571608     A.U. after   17 cycles
 SCF Done:  E(RB3LYP) =  -796.502671463     A.U. after   13 cycles
 SCF Done:  E(RB3LYP) =  -796.504003995     A.U. after   15 cycles
 SCF Done:  E(RB3LYP) =  -796.483208216     A.U. after   14 cycles
 SCF Done:  E(RB3LYP) =  -796.504011759     A.U. after    9 cycles
 SCF Done:  E(RB3LYP) =  -796.504279106     A.U. after   13 cycles
 SCF Done:  E(RB3LYP) =  -796.501372483     A.U. after   16 cycles
 SCF Done:  E(RB3LYP) =  -796.504647994     A.U. after   12 cycles
 SCF Done:  E(RB3LYP) =  -796.504941833     A.U. after   12 cycles
 SCF Done:  E(RB3LYP) =  -796.505169123     A.U. after   12 cycles
 SCF Done:  E(RB3LYP) =  -796.505320104     A.U. after   12 cycles
 SCF Done:  E(RB3LYP) =  -796.505416450     A.U. after   12 cycles
 SCF Done:  E(RB3LYP) =  -796.505421211     A.U. after   11 cycles
 SCF Done:  E(RB3LYP) =  -796.505422646     A.U. after   11 cycles
 SCF Done:  E(RB3LYP) =  -796.505423081     A.U. after   10 cycles
 SCF Done:  E(RB3LYP) =  -796.505423267     A.U. after    9 cycles
 SCF Done:  E(RB3LYP) =  -796.505423295     A.U. after    9 cycles
 Optimization completed.
    -- Stationary point found.
 Normal termination of Gaussian 09 at Wed Jul 28 23:45:39 2021.

 ----------------------------------------------------------------------
 #N Geom=AllCheck Guess=TCheck SCRF=Check GenChk RB3LYP/6-31+G(d,p) Fre
 q
 ----------------------------------------------------------------------

 Structure from the checkpoint file:  "conf-55.chk"
 -----------------------------------------------------------
 Candidate Structure: Conf:55 OPT and FREQ calc in gas phase
 -----------------------------------------------------------
 Charge =  1 Multiplicity = 1

                          Input orientation:
 ---------------------------------------------------------------------
 Center     Atomic      Atomic             Coordinates (Angstroms)
 Number     Number       Type             X           Y           Z
 ---------------------------------------------------------------------
      1          8           0        1.421728    0.674835    1.100919
      2          6           0        1.533909    0.121477    0.008299
      3          7           0        0.528899   -0.487971   -0.648370
      4          6           0       -0.802202   -0.652008   -0.075314
      5          6           0       -1.427505   -1.858960   -0.801986
      6          8           0       -2.608311   -2.289049   -0.356100
      7          8           0       -0.870350   -2.389067   -1.740574
      8          6           0       -1.655784    0.642264   -0.208145
      9          6           0       -2.966432    0.559110    0.519655
     10          6           0       -3.292046    0.205817    1.816843
     11          7           0       -4.649762    0.300611    2.027783
     12          6           0       -5.153843    0.709091    0.884301
     13          7           0       -4.180743    0.876821   -0.063803
     14          6           0        2.897601    0.127688   -0.717779
     15          6           0        3.988630    0.162872    0.345334
     16          7           0        5.348845    0.492281   -0.266524
     17          1           0        0.690842   -1.048137   -1.482323
     18          1           0       -0.694398   -0.887258    0.989989
     19          1           0       -2.951797   -1.722244    0.363919
     20          1           0       -1.820895    0.849201   -1.271705
     21          1           0       -1.049741    1.462583    0.191168
     22          1           0       -2.622309   -0.081511    2.616824
     23          1           0       -6.199399    0.893766    0.681373
     24          1           0       -4.326997    1.174014   -1.018570
     25          1           0        3.004071   -0.736069   -1.383117
     26          1           0        2.929869    1.035443   -1.335846
     27          1           0        3.774175    0.933052    1.087852
     28          1           0        4.107389   -0.795990    0.853659
     29          1           0        5.630535   -0.202077   -0.967311
     30          1           0        5.334858    1.407961   -0.729600
     31          1           0        6.080999    0.521456    0.451922
 ---------------------------------------------------------------------

 SCF Done:  E(RB3LYP) =  -796.505423295     A.U. after    1 cycles

 Alpha  occ. eigenvalues --  -19.30751 -19.26461 -19.25725 -14.66875 -14.50203
 Alpha  occ. eigenvalues --  -14.49319 -14.41086 -10.44080 -10.43835 -10.43700
 Alpha  occ. eigenvalues --  -10.37912 -10.37066 -10.33491 -10.32942 -10.32479
 Alpha  occ. eigenvalues --  -10.29958  -1.21748  -1.20780  -1.18268  -1.13727
 Alpha  occ. eigenvalues --   -1.11357  -1.06675  -0.97052  -0.96852  -0.91792
 Alpha  occ. eigenvalues --   -0.86219  -0.83432  -0.79173  -0.79034  -0.77888
 Alpha  occ. eigenvalues --   -0.73679  -0.71809  -0.71156  -0.69509  -0.68553
 Alpha  occ. eigenvalues --   -0.67704  -0.65200  -0.63761  -0.60850  -0.60618
 Alpha  occ. eigenvalues --   -0.58702  -0.57837  -0.56605  -0.55752  -0.54675
 Alpha  occ. eigenvalues --   -0.54261  -0.53451  -0.52573  -0.51375  -0.51125
 Alpha  occ. eigenvalues --   -0.50267  -0.49074  -0.48394  -0.43082  -0.40619
 Alpha  occ. eigenvalues --   -0.39978  -0.39339  -0.38032  -0.36158  -0.32810
 Alpha virt. eigenvalues --   -0.20181  -0.14337  -0.13560  -0.13196  -0.11596
 Alpha virt. eigenvalues --   -0.11187  -0.09898  -0.08890  -0.08460  -0.07894
 Alpha virt. eigenvalues --   -0.07515  -0.07039  -0.06585  -0.05872  -0.05192

 Mulliken charges:
               1
     1  O   -0.483012
     2  C    0.320295
     3  N   -0.192481
     4  C   -0.629452
     5  C    0.571604
     6  O   -0.325949
     7  O   -0.441897
     8  C   -0.758315
     9  C    0.376277
    10  C    0.138731
    11  N   -0.257637
    12  C    0.209872
    13  N   -0.337279
    14  C   -0.286299
    15  C   -0.222531
    16  N   -0.600759
    17  H    0.335394
    18  H    0.199863
    19  H    0.372482
    20  H    0.153673
    21  H    0.203159
    22  H    0.144464
    23  H    0.158535
    24  H    0.311630
    25  H    0.177104
    26  H    0.191323
    27  H    0.246073
    28  H    0.214597
    29  H    0.403209
    30  H    0.401522
    31  H    0.405804
 Sum of Mulliken charges =   1.00000

 Dipole moment (field-independent basis, Debye):
    X=             20.0446    Y=              4.1125    Z=             -4.0617  Tot=             20.8613
 Quadrupole moment (field-independent basis, Debye-Ang):
   XX=             42.8291   YY=            -97.7650   ZZ=            -98.7901
   XY=             -0.7637   XZ=              3.0094   YZ=            -11.6194

  Exact polarizability: 185.345   0.292 109.687 -13.179   6.719 127.825
 Approx polarizability: 221.780  -0.111 164.227 -13.991   7.655 216.729

                      1                      2                      3
                      A                      A                      A
 Frequencies --     25.8229                33.5089                44.9438
 Red. masses --      4.0816                 4.1668                 2.2955
 Frc consts  --      0.0016                 0.0028                 0.0027
 IR Inten    --      7.7343                 5.6404                 4.2538

                      4                      5                      6
                      A                      A                      A
 Frequencies --     46.8867                65.2592                80.5578
 Red. masses --      3.2440                 6.8377                 5.5388
 Frc consts  --      0.0042                 0.0172                 0.0212
 IR Inten    --      6.8257                13.7614                 8.2316

                      7                      8                      9
                      A                      A                      A
 Frequencies --     90.5410               114.9814               121.7683
 Red. masses --      5.5069                 4.8793                 4.6998
 Frc consts  --      0.0266                 0.0380                 0.0411
 IR Inten    --      5.3741                 5.8926                 8.9531

                     10                     11                     12
                      A                      A                      A
 Frequencies --    192.0566               222.4634               240.4615
 Red. masses --      5.2219                 1.8669                 1.6661
 Frc consts  --      0.1135                 0.0544                 0.0568
 IR Inten    --      5.3781                18.8825                10.4629

                     13                     14                     15
                      A                      A                      A
 Frequencies --    265.0008               316.9278               326.2233
 Red. masses --      5.2915                 2.3397                 7.2531
 Frc consts  --      0.2189                 0.1385                 0.4548
 IR Inten    --     10.9004                 4.9773                 2.2583

                     16                     17                     18
                      A                      A                      A
 Frequencies --    346.4158               376.0511               400.9963
 Red. masses --      5.2821                 3.6332                 4.3596
 Frc consts  --      0.3735                 0.3027                 0.4130
 IR Inten    --     13.1868                13.0480                16.0043

                     19                     20                     21
                      A                      A                      A
 Frequencies --    542.5363               543.6197               582.7769
 Red. masses --      2.1643                 2.0621                 2.2606
 Frc consts  --      0.3753                 0.3590                 0.4524
 IR Inten    --     56.2844                35.1306                51.5335

                     22                     23                     24
                      A                      A                      A
 Frequencies --    611.6036               645.0499               657.2138
 Red. masses --      2.4242                 1.7650                 2.9252
 Frc consts  --      0.5343                 0.4327                 0.7444
 IR Inten    --     35.9785                10.8602                25.8724

                     25                     26                     27
                      A                      A                      A
 Frequencies --    667.4694               675.5946               715.8992
 Red. masses --      1.4621                 2.4259                 4.0227
 Frc consts  --      0.3838                 0.6524                 1.2147
 IR Inten    --     37.1950                26.8639                 6.2450

                     28                     29                     30
                      A                      A                      A
 Frequencies --    736.0822               757.5974               794.2382
 Red. masses --      3.5333                 3.4776                 1.3544
 Frc consts  --      1.1279                 1.1760                 0.5034
 IR Inten    --      0.5666                 0.3505                11.0221

                     31                     32                     33
                      A                      A                      A
 Frequencies --    817.9719               836.6427               857.6211
 Red. masses --      2.7402                 1.3829                 1.3762
 Frc consts  --      1.0802                 0.5703                 0.5964
 IR Inten    --      1.3923                27.6355                27.6020

                     34                     35                     36
                      A                      A                      A
 Frequencies --    884.2244               917.6470               928.9051
 Red. masses --      2.7763                 1.2687                 5.9469
 Frc consts  --      1.2789                 0.6294                 3.0233
 IR Inten    --     33.3097                 5.3998                 8.2459

                     37                     38                     39
                      A                      A                      A
 Frequencies --    935.2045               982.3601              1013.5327
 Red. masses --      3.4655                 2.1237                 3.1583
 Frc consts  --      1.7858                 1.2075                 1.9115
 IR Inten    --     35.6373                32.7145                 8.6758

                     40                     41                     42
                      A                      A                      A
 Frequencies --   1022.4407              1032.4735              1088.9555
 Red. masses --      3.1788                 4.0583                 1.7579
 Frc consts  --      1.9579                 2.5489                 1.2282
 IR Inten    --     11.6940                 2.5925                14.6471

                     43                     44                     45
                      A                      A                      A
 Frequencies --   1113.8347              1116.6164              1149.1228
 Red. masses --      1.6826                 2.2100                 2.6317
 Frc consts  --      1.2299                 1.6235                 2.0475
 IR Inten    --     24.3236                32.4327                 5.0396

                     46                     47                     48
                      A                      A                      A
 Frequencies --   1153.8559              1174.7792              1223.9103
 Red. masses --      2.0023                 1.3781                 1.8694
 Frc consts  --      1.5707                 1.1206                 1.6499
 IR Inten    --     16.7797                 0.6127                 3.7873

                     49                     50                     51
                      A                      A                      A
 Frequencies --   1238.3006              1256.7366              1283.0624
 Red. masses --      1.5246                 1.8870                 1.4498
 Frc consts  --      1.3774                 1.7560                 1.4062
 IR Inten    --     11.3601                12.9833                 1.4701

                     52                     53                     54
                      A                      A                      A
 Frequencies --   1288.9536              1308.7810              1325.3575
 Red. masses --      1.3016                 1.3553                 1.2975
 Frc consts  --      1.2741                 1.3678                 1.3429
 IR Inten    --      2.2171                34.9931                33.1303

                     55                     56                     57
                      A                      A                      A
 Frequencies --   1329.6023              1356.2250              1363.2105
 Red. masses --      1.4765                 1.3885                 1.4767
 Frc consts  --      1.5379                 1.5047                 1.6168
 IR Inten    --     31.1427                39.4132               104.9276

                     58                     59                     60
                      A                      A                      A
 Frequencies --   1401.5090              1408.6538              1417.5941
 Red. masses --      2.6132                 1.3654                 2.1784
 Frc consts  --      3.0242                 1.5963                 2.5792
 IR Inten    --     87.0315                19.4367               155.7985

                     61                     62                     63
                      A                      A                      A
 Frequencies --   1438.5479              1483.3940              1487.6900
 Red. masses --      3.1658                 1.1142                 1.4583
 Frc consts  --      3.8599                 1.4446                 1.9016
 IR Inten    --     22.7559                 1.7097                18.0672

                     64                     65                     66
                      A                      A                      A
 Frequencies --   1500.1221              1508.5880              1520.2125
 Red. masses --      2.2175                 1.0760                 1.1828
 Frc consts  --      2.9402                 1.4428                 1.6106
 IR Inten    --     19.4548                13.2726               229.9958

                     67                     68                     69
                      A                      A                      A
 Frequencies --   1541.3253              1599.8394              1668.5851
 Red. masses --      2.3744                 3.9591                 1.0423
 Frc consts  --      3.3235                 5.9703                 1.7098
 IR Inten    --    305.6775                10.3911                51.0632

                     70                     71                     72
                      A                      A                      A
 Frequencies --   1671.6352              1749.0725              1821.1285
 Red. masses --      1.0438                 9.9232                 9.4095
 Frc consts  --      1.7185                17.8863                18.3865
 IR Inten    --     42.6758               314.7246               320.2337

                     73                     74                     75
                      A                      A                      A
 Frequencies --   3038.0297              3050.8586              3070.2090
 Red. masses --      1.0627                 1.0611                 1.0833
 Frc consts  --      5.7791                 5.8189                 6.0161
 IR Inten    --      4.1521                 9.4266                10.0521

                     76                     77                     78
                      A                      A                      A
 Frequencies --   3096.5416              3098.0789              3111.7377
 Red. masses --      1.1019                 1.1050                 1.0602
 Frc consts  --      6.2252                 6.2486                 6.0485
 IR Inten    --      5.3895                 3.4524                 3.5821

                     79                     80                     81
                      A                      A                      A
 Frequencies --   3177.4018              3248.8961              3272.8490
 Red. masses --      1.1119                 1.0962                 1.0982
 Frc consts  --      6.6139                 6.8170                 6.9311
 IR Inten    --      2.6758                 4.1443                 1.6206

                     82                     83                     84
                      A                      A                      A
 Frequencies --   3399.0444              3490.8813              3492.3482
 Red. masses --      1.0304                 1.0935                 1.0937
 Frc consts  --      7.0143                 7.8511                 7.8595
 IR Inten    --     56.2796                96.1450                91.5834

                     85                     86                     87
                      A                      A                      A
 Frequencies --   3533.4789              3601.0205              3647.4438
 Red. masses --      1.0783                 1.0675                 1.0819
 Frc consts  --      7.9323                 8.1557                 8.4804
 IR Inten    --    134.4592               391.9536                66.9067

 - Thermochemistry -
 -------------------
 Temperature   298.150 Kelvin.  Pressure   1.00000 Atm.
 Atom     1 has atomic number  8 and mass  15.99491

 Molecular mass:   227.11442 amu.
 Principal axes and moments of inertia in atomic units:
                           1         2         3
     Eigenvalues --  1663.326128187.227919220.26129
           X            0.99356   0.05507   0.09905
           Y            0.01691   0.79215  -0.61009
           Z           -0.11207   0.60783   0.78612
 This molecule is an asymmetric top.
 Rotational symmetry number  1.
 Warning -- assumption of classical behavior for rotation
           may cause significant error
 Rotational temperatures (Kelvin)      0.05207     0.01058     0.00939
 Rotational constants (GHZ):           1.08502     0.22043     0.19574
 Zero-point vibrational energy     680600.9 (Joules/Mol)
                                  162.66753 (Kcal/Mol)
 Warning -- explicit consideration of  22 degrees of freedom as
           vibrations may cause significant error
 Vibrational temperatures:     37.15    48.21    64.66    67.46    93.89
          (Kelvin)            115.90   130.27   165.43   175.20   276.33
                              320.07   345.97   381.28   455.99   469.36
                              498.41   541.05   576.94   780.59   782.15
                              838.48   879.96   928.08   945.58   960.34
                              972.03  1030.02  1059.06  1090.01  1142.73
                             1176.88  1203.74  1233.92  1272.20  1320.29
                             1336.49  1345.55  1413.40  1458.25  1471.06
                             1485.50  1566.76  1602.56  1606.56  1653.33
                             1660.14  1690.24  1760.93  1781.64  1808.16
                             1846.04  1854.51  1883.04  1906.89  1913.00
                             1951.30  1961.35  2016.46  2026.74  2039.60
                             2069.75  2134.27  2140.45  2158.34  2170.52
                             2187.24  2217.62  2301.81  2400.72  2405.11
                             2516.52  2620.19  4371.04  4389.50  4417.34
                             4455.23  4457.44  4477.09  4571.57  4674.43
                             4708.89  4890.46  5022.59  5024.70  5083.88
                             5181.06  5247.85

 Zero-point correction=                           0.259227 (Hartree/Particle)
 Thermal correction to Energy=                    0.275562
 Thermal correction to Enthalpy=                  0.276506
 Thermal correction to Gibbs Free Energy=         0.212283
 Sum of electronic and zero-point Energies=           -796.246196
 Sum of electronic and thermal Energies=              -796.229861
 Sum of electronic and thermal Enthalpies=            -796.228917
 Sum of electronic and thermal Free Energies=         -796.293140

                     E (Thermal)             CV                S
                      KCal/Mol        Cal/Mol-Kelvin    Cal/Mol-Kelvin
 Total                  172.918             58.810            135.169
 Electronic               0.000              0.000              0.000
 Translational            0.889              2.981             42.163
 Rotational               0.889              2.981             33.195
 Vibrational            171.140             52.848             59.811
 Vibration     1          0.593              1.985              6.127
 Vibration     2          0.594              1.983              5.610
 Vibration     3          0.595              1.979              5.028
 Vibration     4          0.595              1.979              4.945
 Vibration     5          0.597              1.971              4.291
 Vibration     6          0.600              1.962              3.877
 Vibration     7          0.602              1.956              3.648
 Vibration     8          0.608              1.937              3.183
 Vibration     9          0.609              1.931              3.072
 Vibration    10          0.634              1.851              2.208
 Vibration    11          0.648              1.807              1.939
 Vibration    12          0.658              1.778              1.799
 Vibration    13          0.671              1.737              1.629
 Vibration    14          0.704              1.641              1.326
 Vibration    15          0.710              1.623              1.279
 Vibration    16          0.724              1.583              1.182
 Vibration    17          0.747              1.521              1.055
 Vibration    18          0.767              1.468              0.959
 Vibration    19          0.898              1.156              0.560
 Vibration    20          0.899              1.154              0.558
 Vibration    21          0.940              1.069              0.480
 Vibration    22          0.971              1.007              0.430

 Optimization completed.
    -- Stationary point found.
 Normal termination of Gaussian 09 at Thu Jul 29 00:25:58 2021.
