 Gaussian 09, Revision D.01,
 Gaussian 09:  ES64L-G09RevD.01 24-Apr-2013

 ----------------------------------------------------------------------
 # B3LYP/6-31+G(d,p) opt=calcfc freq=noraman nosymm integral(ultrafineg
 rid)
 ----------------------------------------------------------------------

 ------------------------------------------------------------
 Candidate Structure: Conf:318 OPT and FREQ calc in gas phase
 ------------------------------------------------------------
 Symbolic Z-matrix:
 Charge =  1 Multiplicity = 1

 SCF Done:  E(RB3LYP) =  -796.493107064     A.U. after   17 cycles
 SCF Done:  E(RB3LYP) =  -796.498954484     A.U. after   15 cycles
 SCF Done:  E(RB3LYP) =  -796.498893353     A.U. after   16 cycles
 SCF Done:  E(RB3LYP) =  -796.497577526     A.U. after   15 cycles
 SCF Done:  E(RB3LYP) =  -796.499092542     A.U. after   13 cycles
 SCF Done:  E(RB3LYP) =  -796.499511615     A.U. after   13 cycles
 SCF Done:  E(RB3LYP) =  -796.499536401     A.U. after   11 cycles
 SCF Done:  E(RB3LYP) =  -796.499550631     A.U. after   11 cycles
 SCF Done:  E(RB3LYP) =  -796.499558835     A.U. after   11 cycles
 SCF Done:  E(RB3LYP) =  -796.499564937     A.U. after   11 cycles
 SCF Done:  E(RB3LYP) =  -796.499568324     A.U. after   10 cycles
 SCF Done:  E(RB3LYP) =  -796.499568428     A.U. after    9 cycles
 SCF Done:  E(RB3LYP) =  -796.499568439     A.U. after    8 cycles
 Optimization completed.
    -- Stationary point found.
 Normal termination of Gaussian 09 at Wed Jul 28 23:33:12 2021.

 ----------------------------------------------------------------------
 #N Geom=AllCheck Guess=TCheck SCRF=Check GenChk RB3LYP/6-31+G(d,p) Fre
 q
 ----------------------------------------------------------------------

 Structure from the checkpoint file:  "conf-318.chk"
 ------------------------------------------------------------
 Candidate Structure: Conf:318 OPT and FREQ calc in gas phase
 ------------------------------------------------------------
 Charge =  1 Multiplicity = 1

                          Input orientation:
 ---------------------------------------------------------------------
 Center     Atomic      Atomic             Coordinates (Angstroms)
 Number     Number       Type             X           Y           Z
 ---------------------------------------------------------------------
      1          8           0        1.165363    0.589843    1.597341
      2          6           0        1.121445   -0.175579    0.634407
      3          7           0        0.118126   -1.030919    0.375128
      4          6           0       -1.094452   -1.131970    1.175969
      5          6           0       -1.825551   -2.391121    0.667434
      6          8           0       -2.935263   -2.757873    1.323436
      7          8           0       -1.413204   -3.039540   -0.266910
      8          6           0       -1.958238    0.155150    1.160857
      9          6           0       -2.334047    0.662565   -0.199985
     10          6           0       -2.366116    0.110886   -1.463804
     11          7           0       -2.798820    1.031445   -2.393907
     12          6           0       -3.038418    2.130589   -1.714460
     13          7           0       -2.768198    1.966203   -0.382379
     14          6           0        2.259365   -0.173397   -0.409063
     15          6           0        3.523959    0.343522    0.263340
     16          7           0        4.598659    0.670064   -0.772045
     17          1           0        0.150381   -1.669717   -0.414832
     18          1           0       -0.810640   -1.313553    2.221592
     19          1           0       -3.162273   -2.154782    2.047542
     20          1           0       -2.855327   -0.027304    1.772038
     21          1           0       -1.385013    0.918263    1.698596
     22          1           0       -2.116107   -0.897691   -1.760211
     23          1           0       -3.405391    3.062668   -2.121074
     24          1           0       -2.892508    2.662805    0.338812
     25          1           0        1.946802    0.498561   -1.220467
     26          1           0        2.406483   -1.170287   -0.839230
     27          1           0        3.966065   -0.387240    0.943161
     28          1           0        3.319895    1.261041    0.817030
     29          1           0        4.859246   -0.155009   -1.323419
     30          1           0        5.450904    1.025486   -0.324692
     31          1           0        4.272826    1.387133   -1.430005
 ---------------------------------------------------------------------

 SCF Done:  E(RB3LYP) =  -796.499568439     A.U. after    1 cycles

 Alpha  occ. eigenvalues --  -19.32143 -19.26407 -19.26321 -14.66699 -14.50090
 Alpha  occ. eigenvalues --  -14.48718 -14.40571 -10.44637 -10.43930 -10.43527
 Alpha  occ. eigenvalues --  -10.37752 -10.37617 -10.33051 -10.32735 -10.32201
 Alpha  occ. eigenvalues --  -10.29121  -1.22768  -1.20607  -1.18096  -1.14692
 Alpha  occ. eigenvalues --   -1.10739  -1.06757  -0.96802  -0.96389  -0.91866
 Alpha  occ. eigenvalues --   -0.85945  -0.83430  -0.79185  -0.78974  -0.78016
 Alpha  occ. eigenvalues --   -0.74793  -0.71675  -0.70630  -0.69297  -0.68343
 Alpha  occ. eigenvalues --   -0.67807  -0.64926  -0.63981  -0.60711  -0.60526
 Alpha  occ. eigenvalues --   -0.58940  -0.57814  -0.56790  -0.55654  -0.55130
 Alpha  occ. eigenvalues --   -0.54593  -0.53654  -0.52217  -0.51405  -0.50336
 Alpha  occ. eigenvalues --   -0.49906  -0.49499  -0.49214  -0.43868  -0.40509
 Alpha  occ. eigenvalues --   -0.39949  -0.39803  -0.37351  -0.35784  -0.32057
 Alpha virt. eigenvalues --   -0.20015  -0.14011  -0.13462  -0.13054  -0.11983
 Alpha virt. eigenvalues --   -0.11303  -0.10689  -0.09514  -0.08418  -0.08253
 Alpha virt. eigenvalues --   -0.07312  -0.06884  -0.06592  -0.06031  -0.04852

 Mulliken charges:
               1
     1  O   -0.477355
     2  C    0.077012
     3  N   -0.218152
     4  C   -0.254422
     5  C    0.460598
     6  O   -0.326056
     7  O   -0.396859
     8  C   -0.633187
     9  C    0.489569
    10  C   -0.049583
    11  N   -0.274783
    12  C    0.194358
    13  N   -0.371857
    14  C   -0.234697
    15  C   -0.244993
    16  N   -0.607570
    17  H    0.337534
    18  H    0.192811
    19  H    0.351472
    20  H    0.147821
    21  H    0.197662
    22  H    0.138915
    23  H    0.151595
    24  H    0.306993
    25  H    0.195559
    26  H    0.179286
    27  H    0.214643
    28  H    0.242449
    29  H    0.403331
    30  H    0.405585
    31  H    0.402322
 Sum of Mulliken charges =   1.00000

 Dipole moment (field-independent basis, Debye):
    X=             16.6871    Y=              4.5884    Z=              1.1202  Tot=             17.3426
 Quadrupole moment (field-independent basis, Debye-Ang):
   XX=              5.8292   YY=            -88.3153   ZZ=            -92.6924
   XY=             -0.1456   XZ=            -34.0792   YZ=             -7.4690

  Exact polarizability: 142.468   1.341 134.550  -1.947  -2.621 134.940
 Approx polarizability: 175.050  -2.180 204.324  -5.146  19.007 221.180

                      1                      2                      3
                      A                      A                      A
 Frequencies --     13.8063                31.2453                41.4262
 Red. masses --      4.8752                 3.2097                 2.0238
 Frc consts  --      0.0005                 0.0018                 0.0020
 IR Inten    --      5.7888                 3.8827                 6.9517

                      4                      5                      6
                      A                      A                      A
 Frequencies --     50.7103                55.8496                79.6197
 Red. masses --      5.6115                 5.0198                 4.6627
 Frc consts  --      0.0085                 0.0092                 0.0174
 IR Inten    --     17.2247                 2.5055                16.6860

                      7                      8                      9
                      A                      A                      A
 Frequencies --     91.7201               106.5626               144.6820
 Red. masses --      9.8331                 3.9714                 5.2722
 Frc consts  --      0.0487                 0.0266                 0.0650
 IR Inten    --     12.0313                10.6746                 2.7612

                     10                     11                     12
                      A                      A                      A
 Frequencies --    198.0920               221.0373               238.0131
 Red. masses --      5.4315                 2.2471                 1.4573
 Frc consts  --      0.1256                 0.0647                 0.0486
 IR Inten    --     14.4820                13.3025                 6.5020

                     13                     14                     15
                      A                      A                      A
 Frequencies --    262.6635               268.2331               329.6740
 Red. masses --      3.8149                 4.1264                 4.9306
 Frc consts  --      0.1551                 0.1749                 0.3157
 IR Inten    --      5.6948                 5.0247                 7.7122

                     16                     17                     18
                      A                      A                      A
 Frequencies --    338.3334               375.2845               446.3039
 Red. masses --      3.5240                 3.3926                 1.5611
 Frc consts  --      0.2377                 0.2815                 0.1832
 IR Inten    --      2.4353                24.5879                97.0816

                     19                     20                     21
                      A                      A                      A
 Frequencies --    504.6575               524.1221               555.7338
 Red. masses --      2.0904                 1.5360                 3.6963
 Frc consts  --      0.3137                 0.2486                 0.6726
 IR Inten    --     40.4726                67.4354                 2.4796

                     22                     23                     24
                      A                      A                      A
 Frequencies --    569.4696               612.5751               643.8657
 Red. masses --      2.3091                 5.8391                 2.3570
 Frc consts  --      0.4412                 1.2910                 0.5757
 IR Inten    --     57.0731                 6.6679                28.1878

                     25                     26                     27
                      A                      A                      A
 Frequencies --    649.1091               672.2672               676.6539
 Red. masses --      1.5343                 2.9903                 3.7704
 Frc consts  --      0.3809                 0.7962                 1.0171
 IR Inten    --     34.8981                 7.2113                 2.5489

                     28                     29                     30
                      A                      A                      A
 Frequencies --    720.5821               776.6367               800.0650
 Red. masses --      4.1849                 2.8146                 1.5833
 Frc consts  --      1.2803                 1.0002                 0.5971
 IR Inten    --      3.7926                 6.4861                 5.6887

                     31                     32                     33
                      A                      A                      A
 Frequencies --    823.6533               848.9527               869.2813
 Red. masses --      1.3721                 2.3216                 1.6597
 Frc consts  --      0.5484                 0.9859                 0.7389
 IR Inten    --     19.7103                16.6582                16.9864

                     34                     35                     36
                      A                      A                      A
 Frequencies --    882.6690               916.4049               920.5462
 Red. masses --      2.7866                 1.4494                 3.2829
 Frc consts  --      1.2792                 0.7171                 1.6391
 IR Inten    --     33.1145                 3.5820                 5.4222

                     37                     38                     39
                      A                      A                      A
 Frequencies --    937.3487               953.0425               987.4437
 Red. masses --      3.2336                 4.0993                 2.0422
 Frc consts  --      1.6739                 2.1937                 1.1732
 IR Inten    --     14.9185                13.7039                25.8986

                     40                     41                     42
                      A                      A                      A
 Frequencies --   1019.5885              1038.6764              1096.2727
 Red. masses --      3.7643                 2.3641                 1.6321
 Frc consts  --      2.3056                 1.5027                 1.1556
 IR Inten    --      6.7645                14.8223                 4.8781

                     43                     44                     45
                      A                      A                      A
 Frequencies --   1116.8233              1119.3649              1150.9103
 Red. masses --      1.6491                 2.1659                 2.2275
 Frc consts  --      1.2119                 1.5989                 1.7384
 IR Inten    --     18.9002                26.4533                 7.6782

                     46                     47                     48
                      A                      A                      A
 Frequencies --   1158.0098              1181.8406              1212.7078
 Red. masses --      2.2567                 1.7616                 1.7683
 Frc consts  --      1.7830                 1.4497                 1.5322
 IR Inten    --     19.9293                28.6583                 9.1414

                     49                     50                     51
                      A                      A                      A
 Frequencies --   1236.4289              1253.3973              1272.8194
 Red. masses --      1.3574                 1.3609                 1.9124
 Frc consts  --      1.2226                 1.2597                 1.8254
 IR Inten    --      3.1895                47.3703                55.1316

                     52                     53                     54
                      A                      A                      A
 Frequencies --   1290.3399              1292.5140              1309.3107
 Red. masses --      1.3684                 1.4370                 1.6756
 Frc consts  --      1.3424                 1.4144                 1.6924
 IR Inten    --      6.9478                30.0102               199.5329

                     55                     56                     57
                      A                      A                      A
 Frequencies --   1322.4770              1349.7485              1368.5731
 Red. masses --      1.2452                 1.3998                 2.2896
 Frc consts  --      1.2831                 1.5025                 2.5266
 IR Inten    --     19.0929                69.8814                30.7410

                     58                     59                     60
                      A                      A                      A
 Frequencies --   1396.8318              1407.9148              1421.9137
 Red. masses --      1.8819                 1.3841                 2.0647
 Frc consts  --      2.1634                 1.6165                 2.4595
 IR Inten    --    134.2938                38.0866                25.3483

                     61                     62                     63
                      A                      A                      A
 Frequencies --   1435.2666              1484.3075              1492.0431
 Red. masses --      2.6830                 1.1202                 1.2940
 Frc consts  --      3.2564                 1.4541                 1.6973
 IR Inten    --     23.4888                 0.7793                26.0733

                     64                     65                     66
                      A                      A                      A
 Frequencies --   1507.8748              1510.0709              1520.7591
 Red. masses --      1.0764                 2.7093                 1.1755
 Frc consts  --      1.4420                 3.6400                 1.6018
 IR Inten    --     13.0017                10.0037               195.6139

                     67                     68                     69
                      A                      A                      A
 Frequencies --   1552.1032              1610.7846              1668.2613
 Red. masses --      2.3748                 4.1091                 1.0422
 Frc consts  --      3.3707                 6.2816                 1.7089
 IR Inten    --    305.8571                10.1639                51.0841

                     70                     71                     72
                      A                      A                      A
 Frequencies --   1671.8664              1748.8715              1834.7104
 Red. masses --      1.0440                 9.8316                 9.9698
 Frc consts  --      1.7194                17.7170                19.7730
 IR Inten    --     42.7971               313.0261               175.5338

                     73                     74                     75
                      A                      A                      A
 Frequencies --   3003.6722              3036.7000              3042.0190
 Red. masses --      1.0721                 1.0630                 1.0838
 Frc consts  --      5.6991                 5.7753                 5.9092
 IR Inten    --     42.5885                 2.4731                15.3089

                     76                     77                     78
                      A                      A                      A
 Frequencies --   3080.6730              3094.6336              3113.8192
 Red. masses --      1.0895                 1.1018                 1.0602
 Frc consts  --      6.0920                 6.2168                 6.0567
 IR Inten    --      2.3196                 4.5246                 2.9409

                     79                     80                     81
                      A                      A                      A
 Frequencies --   3179.0458              3266.0618              3269.5201
 Red. masses --      1.1117                 1.0952                 1.0992
 Frc consts  --      6.6198                 6.8830                 6.9233
 IR Inten    --      2.0507                 1.3916                 1.9899

                     82                     83                     84
                      A                      A                      A
 Frequencies --   3399.1841              3490.5777              3492.8164
 Red. masses --      1.0305                 1.0935                 1.0937
 Frc consts  --      7.0151                 7.8499                 7.8614
 IR Inten    --     51.1684                91.8254                95.1629

                     85                     86                     87
                      A                      A                      A
 Frequencies --   3548.5392              3648.1820              3789.4115
 Red. masses --      1.0785                 1.0816                 1.0665
 Frc consts  --      8.0016                 8.4817                 9.0232
 IR Inten    --    130.4610                59.0543                55.7112

 - Thermochemistry -
 -------------------
 Temperature   298.150 Kelvin.  Pressure   1.00000 Atm.
 Atom     1 has atomic number  8 and mass  15.99491

 Molecular mass:   227.11442 amu.
 Principal axes and moments of inertia in atomic units:
                           1         2         3
     Eigenvalues --  2944.103765604.550107155.18021
           X            0.99485  -0.04665  -0.09003
           Y            0.08434   0.87357   0.47934
           Z            0.05629  -0.48446   0.87300
 This molecule is an asymmetric top.
 Rotational symmetry number  1.
 Warning -- assumption of classical behavior for rotation
           may cause significant error
 Rotational temperatures (Kelvin)      0.02942     0.01545     0.01211
 Rotational constants (GHZ):           0.61300     0.32201     0.25223
 Zero-point vibrational energy     679757.5 (Joules/Mol)
                                  162.46594 (Kcal/Mol)
 Warning -- explicit consideration of  23 degrees of freedom as
           vibrations may cause significant error
 Vibrational temperatures:     19.86    44.95    59.60    72.96    80.35
          (Kelvin)            114.55   131.96   153.32   208.16   285.01
                              318.02   342.45   377.91   385.93   474.33
                              486.79   539.95   642.13   726.09   754.09
                              799.58   819.34   881.36   926.38   933.92
                              967.24   973.55  1036.76  1117.41  1151.11
                             1185.05  1221.45  1250.70  1269.96  1318.50
                             1324.46  1348.63  1371.21  1420.71  1466.96
                             1494.42  1577.29  1606.86  1610.51  1655.90
                             1666.12  1700.40  1744.81  1778.94  1803.36
                             1831.30  1856.51  1859.64  1883.80  1902.75
                             1941.98  1969.07  2009.73  2025.67  2045.81
                             2065.03  2135.58  2146.71  2169.49  2172.65
                             2188.03  2233.13  2317.56  2400.25  2405.44
                             2516.23  2639.74  4321.61  4369.13  4376.78
                             4432.40  4452.48  4480.09  4573.93  4699.13
                             4704.10  4890.66  5022.16  5025.38  5105.55
                             5248.91  5452.11

 Zero-point correction=                           0.258906 (Hartree/Particle)
 Thermal correction to Energy=                    0.275420
 Thermal correction to Enthalpy=                  0.276364
 Thermal correction to Gibbs Free Energy=         0.211193
 Sum of electronic and zero-point Energies=           -796.240662
 Sum of electronic and thermal Energies=              -796.224149
 Sum of electronic and thermal Enthalpies=            -796.223205
 Sum of electronic and thermal Free Energies=         -796.288375

                     E (Thermal)             CV                S
                      KCal/Mol        Cal/Mol-Kelvin    Cal/Mol-Kelvin
 Total                  172.828             59.311            137.163
 Electronic               0.000              0.000              0.000
 Translational            0.889              2.981             42.163
 Rotational               0.889              2.981             33.134
 Vibrational            171.051             53.350             61.866
 Vibration     1          0.593              1.986              7.370
 Vibration     2          0.594              1.983              5.749
 Vibration     3          0.594              1.981              5.190
 Vibration     4          0.595              1.977              4.789
 Vibration     5          0.596              1.975              4.599
 Vibration     6          0.600              1.963              3.900
 Vibration     7          0.602              1.955              3.623
 Vibration     8          0.605              1.944              3.331
 Vibration     9          0.616              1.908              2.741
 Vibration    10          0.637              1.843              2.151
 Vibration    11          0.648              1.809              1.951
 Vibration    12          0.656              1.782              1.818
 Vibration    13          0.670              1.741              1.644
 Vibration    14          0.673              1.732              1.608
 Vibration    15          0.712              1.616              1.262
 Vibration    16          0.719              1.599              1.220
 Vibration    17          0.746              1.523              1.058
 Vibration    18          0.806              1.369              0.807
 Vibration    19          0.860              1.240              0.647
 Vibration    20          0.879              1.197              0.600
 Vibration    21          0.911              1.127              0.532
 Vibration    22          0.926              1.097              0.505
 Vibration    23          0.972              1.005              0.429

 Optimization completed.
    -- Stationary point found.
 Normal termination of Gaussian 09 at Thu Jul 29 00:15:59 2021.
