 Gaussian 09, Revision D.01,
 Gaussian 09:  ES64L-G09RevD.01 24-Apr-2013

 ----------------------------------------------------------------------
 # B3LYP/6-31+G(d,p) opt=calcfc freq=noraman nosymm integral(ultrafineg
 rid)
 ----------------------------------------------------------------------

 ------------------------------------------------------------
 Candidate Structure: Conf:580 OPT and FREQ calc in gas phase
 ------------------------------------------------------------
 Symbolic Z-matrix:
 Charge =  1 Multiplicity = 1

 SCF Done:  E(RB3LYP) =  -796.502290292     A.U. after   17 cycles
 SCF Done:  E(RB3LYP) =  -796.508297770     A.U. after   15 cycles
 SCF Done:  E(RB3LYP) =  -796.508765912     A.U. after   15 cycles
 SCF Done:  E(RB3LYP) =  -796.502735018     A.U. after   13 cycles
 SCF Done:  E(RB3LYP) =  -796.508834223     A.U. after   10 cycles
 SCF Done:  E(RB3LYP) =  -796.509486932     A.U. after   12 cycles
 SCF Done:  E(RB3LYP) =  -796.509581965     A.U. after   12 cycles
 SCF Done:  E(RB3LYP) =  -796.509642718     A.U. after   12 cycles
 SCF Done:  E(RB3LYP) =  -796.509657377     A.U. after   12 cycles
 SCF Done:  E(RB3LYP) =  -796.509659676     A.U. after   10 cycles
 SCF Done:  E(RB3LYP) =  -796.509659775     A.U. after    9 cycles
 SCF Done:  E(RB3LYP) =  -796.509659785     A.U. after    8 cycles
 Optimization completed.
    -- Stationary point found.
 Normal termination of Gaussian 09 at Wed Jul 28 23:29:32 2021.

 ----------------------------------------------------------------------
 #N Geom=AllCheck Guess=TCheck SCRF=Check GenChk RB3LYP/6-31+G(d,p) Fre
 q
 ----------------------------------------------------------------------

 Structure from the checkpoint file:  "conf-580.chk"
 ------------------------------------------------------------
 Candidate Structure: Conf:580 OPT and FREQ calc in gas phase
 ------------------------------------------------------------
 Charge =  1 Multiplicity = 1

                          Input orientation:
 ---------------------------------------------------------------------
 Center     Atomic      Atomic             Coordinates (Angstroms)
 Number     Number       Type             X           Y           Z
 ---------------------------------------------------------------------
      1          8           0        1.309364    0.318076   -1.248898
      2          6           0        1.473115    0.303338   -0.029253
      3          7           0        0.479292    0.330534    0.876849
      4          6           0       -0.934093    0.367484    0.504385
      5          6           0       -1.669284    0.966164    1.697962
      6          8           0       -2.836866    1.512436    1.353967
      7          8           0       -1.230740    0.925542    2.831980
      8          6           0       -1.451823   -1.069309    0.159084
      9          6           0       -2.864608   -1.154228   -0.311310
     10          6           0       -4.005421   -1.626929    0.298856
     11          7           0       -5.098390   -1.497983   -0.526112
     12          6           0       -4.638455   -0.953958   -1.631705
     13          7           0       -3.291024   -0.721765   -1.557858
     14          6           0        2.903225    0.223119    0.550733
     15          6           0        3.848793    0.884432   -0.444219
     16          7           0        5.305700    0.547388   -0.132820
     17          1           0        0.662839    0.349152    1.875563
     18          1           0       -1.052573    1.018717   -0.365208
     19          1           0       -3.295160    1.813602    2.159256
     20          1           0       -1.342054   -1.693997    1.051600
     21          1           0       -0.762897   -1.462998   -0.597666
     22          1           0       -4.093436   -2.058266    1.287147
     23          1           0       -5.220781   -0.711327   -2.509658
     24          1           0       -2.714345   -0.345337   -2.296678
     25          1           0        3.144126   -0.843138    0.662597
     26          1           0        2.963979    0.687118    1.541198
     27          1           0        3.645329    0.530258   -1.456055
     28          1           0        3.777549    1.973712   -0.428771
     29          1           0        5.940614    0.988320   -0.807735
     30          1           0        5.580114    0.865126    0.803274
     31          1           0        5.468103   -0.465134   -0.173312
 ---------------------------------------------------------------------

 SCF Done:  E(RB3LYP) =  -796.509659785     A.U. after    1 cycles

 Alpha  occ. eigenvalues --  -19.31696 -19.26501 -19.26462 -14.66972 -14.50421
 Alpha  occ. eigenvalues --  -14.47332 -14.39094 -10.44255 -10.44145 -10.43792
 Alpha  occ. eigenvalues --  -10.38021 -10.36529 -10.31668 -10.31333 -10.30501
 Alpha  occ. eigenvalues --  -10.27679  -1.22785  -1.20876  -1.18267  -1.13992
 Alpha  occ. eigenvalues --   -1.09276  -1.06752  -0.97020  -0.95026  -0.91081
 Alpha  occ. eigenvalues --   -0.85684  -0.83250  -0.79263  -0.78725  -0.77833
 Alpha  occ. eigenvalues --   -0.74371  -0.71624  -0.69524  -0.69171  -0.66979
 Alpha  occ. eigenvalues --   -0.65506  -0.64470  -0.62398  -0.61093  -0.59999
 Alpha  occ. eigenvalues --   -0.58947  -0.58306  -0.57538  -0.55814  -0.54347
 Alpha  occ. eigenvalues --   -0.53839  -0.52937  -0.51418  -0.51027  -0.49964
 Alpha  occ. eigenvalues --   -0.48725  -0.48346  -0.47533  -0.43806  -0.40905
 Alpha  occ. eigenvalues --   -0.40064  -0.39685  -0.35938  -0.34291  -0.30577
 Alpha virt. eigenvalues --   -0.20278  -0.14353  -0.13709  -0.13286  -0.11866
 Alpha virt. eigenvalues --   -0.11450  -0.10067  -0.08944  -0.08267  -0.07650
 Alpha virt. eigenvalues --   -0.07222  -0.06932  -0.06087  -0.05691  -0.05409

 Mulliken charges:
               1
     1  O   -0.484008
     2  C    0.328377
     3  N   -0.193648
     4  C   -0.551724
     5  C    0.464271
     6  O   -0.382091
     7  O   -0.438104
     8  C   -0.727286
     9  C    0.734376
    10  C   -0.147454
    11  N   -0.260662
    12  C    0.242241
    13  N   -0.346152
    14  C   -0.293998
    15  C   -0.232088
    16  N   -0.600074
    17  H    0.336085
    18  H    0.192561
    19  H    0.387619
    20  H    0.173107
    21  H    0.177674
    22  H    0.131620
    23  H    0.148222
    24  H    0.301161
    25  H    0.191844
    26  H    0.177612
    27  H    0.245812
    28  H    0.214025
    29  H    0.405701
    30  H    0.403029
    31  H    0.401953
 Sum of Mulliken charges =   1.00000

 Dipole moment (field-independent basis, Debye):
    X=             22.3352    Y=              3.7863    Z=              0.0918  Tot=             22.6541
 Quadrupole moment (field-independent basis, Debye-Ang):
   XX=             18.1472   YY=            -89.3432   ZZ=            -87.1495
   XY=              1.6963   XZ=              2.6430   YZ=              0.2070

  Exact polarizability: 186.661   9.328 103.906   4.781  -0.810 136.303
 Approx polarizability: 228.766   5.386 153.353   4.881 -12.430 223.543

                      1                      2                      3
                      A                      A                      A
 Frequencies --     19.1186                30.7524                45.1959
 Red. masses --      5.4339                 3.8857                 2.0042
 Frc consts  --      0.0012                 0.0022                 0.0024
 IR Inten    --      0.7329                 3.4690                11.0673

                      4                      5                      6
                      A                      A                      A
 Frequencies --     51.7884                66.7876                70.6689
 Red. masses --      4.6428                 6.0051                 5.3487
 Frc consts  --      0.0073                 0.0158                 0.0157
 IR Inten    --      5.9484                 9.1672                 2.6151

                      7                      8                      9
                      A                      A                      A
 Frequencies --     74.0869               106.3802               119.0909
 Red. masses --      6.1405                 4.0565                 4.3583
 Frc consts  --      0.0199                 0.0270                 0.0364
 IR Inten    --      8.9653                 3.5330                10.0868

                     10                     11                     12
                      A                      A                      A
 Frequencies --    178.2056               217.4345               237.9384
 Red. masses --      5.1953                 2.3504                 1.4158
 Frc consts  --      0.0972                 0.0655                 0.0472
 IR Inten    --      4.8825                11.0201                 1.7857

                     13                     14                     15
                      A                      A                      A
 Frequencies --    259.5064               316.8422               330.7909
 Red. masses --      5.3063                 6.6007                 2.1141
 Frc consts  --      0.2105                 0.3904                 0.1363
 IR Inten    --     11.5194                 8.9151                 3.8260

                     16                     17                     18
                      A                      A                      A
 Frequencies --    343.2913               365.7834               388.4746
 Red. masses --      6.5143                 3.7286                 3.8836
 Frc consts  --      0.4523                 0.2939                 0.3453
 IR Inten    --     12.5626                 6.0097                 6.3641

                     19                     20                     21
                      A                      A                      A
 Frequencies --    517.5888               529.0816               560.8609
 Red. masses --      1.4377                 3.5946                 1.8978
 Frc consts  --      0.2269                 0.5929                 0.3517
 IR Inten    --     65.3984                62.5803                21.4280

                     22                     23                     24
                      A                      A                      A
 Frequencies --    614.8553               627.7502               650.7938
 Red. masses --      1.2555                 4.4636                 1.6318
 Frc consts  --      0.2796                 1.0364                 0.4072
 IR Inten    --    111.5995                10.3083                38.2081

                     25                     26                     27
                      A                      A                      A
 Frequencies --    657.8149               672.3870               714.6084
 Red. masses --      2.4956                 3.1030                 3.8313
 Frc consts  --      0.6362                 0.8266                 1.1527
 IR Inten    --     38.2921                 8.0415                 0.9880

                     28                     29                     30
                      A                      A                      A
 Frequencies --    751.2050               764.0562               793.7735
 Red. masses --      3.6327                 3.7065                 1.3757
 Frc consts  --      1.2078                 1.2749                 0.5107
 IR Inten    --     19.6353                 8.0940                14.7033

                     31                     32                     33
                      A                      A                      A
 Frequencies --    813.7538               824.2571               859.5133
 Red. masses --      2.2780                 1.3988                 1.4112
 Frc consts  --      0.8888                 0.5599                 0.6142
 IR Inten    --      7.8259                18.6576                19.5304

                     34                     35                     36
                      A                      A                      A
 Frequencies --    883.9211               917.6062               925.8916
 Red. masses --      2.7418                 1.2738                 5.7189
 Frc consts  --      1.2622                 0.6319                 2.8886
 IR Inten    --     35.0369                 4.9046                 4.2594

                     37                     38                     39
                      A                      A                      A
 Frequencies --    932.5984               982.4519               995.2434
 Red. masses --      3.7360                 2.1097                 3.7662
 Frc consts  --      1.9145                 1.1998                 2.1979
 IR Inten    --     21.5817                12.6435                25.1246

                     40                     41                     42
                      A                      A                      A
 Frequencies --   1016.8342              1030.1760              1080.7751
 Red. masses --      3.1136                 3.2299                 2.3557
 Frc consts  --      1.8967                 2.0196                 1.6212
 IR Inten    --     28.8320                 3.4491                27.6688

                     43                     44                     45
                      A                      A                      A
 Frequencies --   1109.5381              1111.6350              1143.8901
 Red. masses --      1.8908                 1.6602                 2.3208
 Frc consts  --      1.3715                 1.2088                 1.7892
 IR Inten    --     21.9981                24.4455                 8.9090

                     46                     47                     48
                      A                      A                      A
 Frequencies --   1154.4129              1169.1357              1196.6391
 Red. masses --      1.9440                 1.5163                 1.8276
 Frc consts  --      1.5264                 1.2211                 1.5419
 IR Inten    --     24.2044                43.8828               112.0929

                     49                     50                     51
                      A                      A                      A
 Frequencies --   1239.4977              1267.5564              1278.6261
 Red. masses --      1.4821                 2.3237                 1.3972
 Frc consts  --      1.3415                 2.1997                 1.3459
 IR Inten    --     13.7127                 8.6878                 2.7368

                     52                     53                     54
                      A                      A                      A
 Frequencies --   1289.4940              1299.2148              1324.4223
 Red. masses --      1.2971                 1.3652                 1.2705
 Frc consts  --      1.2707                 1.3577                 1.3131
 IR Inten    --      1.7532                 2.5120                15.4367

                     55                     56                     57
                      A                      A                      A
 Frequencies --   1328.8676              1354.9060              1362.1688
 Red. masses --      1.3668                 1.3308                 1.4347
 Frc consts  --      1.4220                 1.4394                 1.5685
 IR Inten    --      2.8953                 4.4733                22.6373

                     58                     59                     60
                      A                      A                      A
 Frequencies --   1392.4918              1407.6685              1435.7537
 Red. masses --      3.2988                 1.3511                 2.7507
 Frc consts  --      3.7687                 1.5774                 3.3408
 IR Inten    --      7.4874                19.1184               184.3748

                     61                     62                     63
                      A                      A                      A
 Frequencies --   1437.3868              1483.7156              1484.6837
 Red. masses --      3.0176                 1.1151                 1.1246
 Frc consts  --      3.6733                 1.4463                 1.4606
 IR Inten    --     34.0515                 1.5443                11.1515

                     64                     65                     66
                      A                      A                      A
 Frequencies --   1505.7055              1508.9395              1520.7179
 Red. masses --      3.7191                 1.0760                 1.1742
 Frc consts  --      4.9678                 1.4435                 1.5999
 IR Inten    --     34.0886                13.3809               195.8295

                     67                     68                     69
                      A                      A                      A
 Frequencies --   1551.3100              1614.4473              1668.6008
 Red. masses --      2.3438                 4.4444                 1.0424
 Frc consts  --      3.3233                 6.8251                 1.7099
 IR Inten    --    289.1254                 7.3800                51.3252

                     70                     71                     72
                      A                      A                      A
 Frequencies --   1671.6120              1745.6210              1801.4396
 Red. masses --      1.0438                10.0549                 9.7848
 Frc consts  --      1.7184                18.0521                18.7086
 IR Inten    --     43.0531               344.0388               285.7667

                     73                     74                     75
                      A                      A                      A
 Frequencies --   3036.6222              3048.2333              3096.3348
 Red. masses --      1.0631                 1.0620                 1.1015
 Frc consts  --      5.7758                 5.8142                 6.2218
 IR Inten    --      4.0892                16.7114                 5.9183

                     76                     77                     78
                      A                      A                      A
 Frequencies --   3098.7207              3111.4663              3115.5568
 Red. masses --      1.0983                 1.0601                 1.0898
 Frc consts  --      6.2137                 6.0469                 6.2325
 IR Inten    --      4.1129                 4.0993                 3.6700

                     79                     80                     81
                      A                      A                      A
 Frequencies --   3176.9365              3251.0254              3268.2383
 Red. masses --      1.1119                 1.0966                 1.0978
 Frc consts  --      6.6123                 6.8286                 6.9085
 IR Inten    --      2.8686                 4.2610                 0.9887

                     82                     83                     84
                      A                      A                      A
 Frequencies --   3398.9811              3490.4824              3492.5366
 Red. masses --      1.0305                 1.0935                 1.0937
 Frc consts  --      7.0142                 7.8492                 7.8604
 IR Inten    --     55.8731                95.9580                93.1757

                     85                     86                     87
                      A                      A                      A
 Frequencies --   3566.1187              3651.7120              3733.4253
 Red. masses --      1.0787                 1.0816                 1.0647
 Frc consts  --      8.0822                 8.4976                 8.7435
 IR Inten    --    107.8261                48.7455               110.6780

 - Thermochemistry -
 -------------------
 Temperature   298.150 Kelvin.  Pressure   1.00000 Atm.
 Atom     1 has atomic number  8 and mass  15.99491

 Molecular mass:   227.11442 amu.
 Principal axes and moments of inertia in atomic units:
                           1         2         3
     Eigenvalues --  1723.856418114.514539212.16981
           X            0.98362  -0.10974  -0.14302
           Y            0.17728   0.44495   0.87783
           Z            0.03270   0.88881  -0.45712
 This molecule is an asymmetric top.
 Rotational symmetry number  1.
 Warning -- assumption of classical behavior for rotation
           may cause significant error
 Rotational temperatures (Kelvin)      0.05024     0.01067     0.00940
 Rotational constants (GHZ):           1.04692     0.22241     0.19591
 Zero-point vibrational energy     680294.9 (Joules/Mol)
                                  162.59438 (Kcal/Mol)
 Warning -- explicit consideration of  22 degrees of freedom as
           vibrations may cause significant error
 Vibrational temperatures:     27.51    44.25    65.03    74.51    96.09
          (Kelvin)            101.68   106.59   153.06   171.35   256.40
                              312.84   342.34   373.37   455.86   475.93
                              493.92   526.28   558.93   744.69   761.23
                              806.95   884.64   903.19   936.35   946.45
                              967.41  1028.16  1080.82  1099.31  1142.06
                             1170.81  1185.92  1236.65  1271.76  1320.23
                             1332.15  1341.80  1413.53  1431.93  1463.00
                             1482.19  1554.99  1596.38  1599.39  1645.80
                             1660.94  1682.12  1721.69  1783.36  1823.73
                             1839.66  1855.29  1869.28  1905.55  1911.94
                             1949.41  1959.85  2003.48  2025.32  2065.73
                             2068.08  2134.73  2136.13  2166.37  2171.02
                             2187.97  2231.99  2322.83  2400.74  2405.07
                             2511.56  2591.87  4369.02  4385.72  4454.93
                             4458.36  4476.70  4482.59  4570.90  4677.49
                             4702.26  4890.37  5022.02  5024.97  5130.84
                             5253.99  5371.56

 Zero-point correction=                           0.259111 (Hartree/Particle)
 Thermal correction to Energy=                    0.275649
 Thermal correction to Enthalpy=                  0.276594
 Thermal correction to Gibbs Free Energy=         0.211471
 Sum of electronic and zero-point Energies=           -796.250549
 Sum of electronic and thermal Energies=              -796.234010
 Sum of electronic and thermal Enthalpies=            -796.233066
 Sum of electronic and thermal Free Energies=         -796.298188

                     E (Thermal)             CV                S
                      KCal/Mol        Cal/Mol-Kelvin    Cal/Mol-Kelvin
 Total                  172.973             59.181            137.061
 Electronic               0.000              0.000              0.000
 Translational            0.889              2.981             42.163
 Rotational               0.889              2.981             33.221
 Vibrational            171.195             53.219             61.677
 Vibration     1          0.593              1.986              6.724
 Vibration     2          0.594              1.984              5.780
 Vibration     3          0.595              1.979              5.017
 Vibration     4          0.596              1.977              4.748
 Vibration     5          0.598              1.970              4.246
 Vibration     6          0.598              1.968              4.135
 Vibration     7          0.599              1.966              4.042
 Vibration     8          0.605              1.944              3.334
 Vibration     9          0.609              1.933              3.115
 Vibration    10          0.629              1.869              2.347
 Vibration    11          0.646              1.815              1.980
 Vibration    12          0.656              1.783              1.818
 Vibration    13          0.668              1.747              1.665
 Vibration    14          0.704              1.641              1.326
 Vibration    15          0.713              1.614              1.256
 Vibration    16          0.722              1.589              1.197
 Vibration    17          0.739              1.543              1.097
 Vibration    18          0.757              1.495              1.006
 Vibration    19          0.873              1.211              0.616
 Vibration    20          0.884              1.186              0.589
 Vibration    21          0.917              1.116              0.522
 Vibration    22          0.974              1.000              0.425

 Optimization completed.
    -- Stationary point found.
 Normal termination of Gaussian 09 at Thu Jul 29 00:09:33 2021.
