 Gaussian 09, Revision D.01,
 Gaussian 09:  ES64L-G09RevD.01 24-Apr-2013

 ----------------------------------------------------------------------
 # B3LYP/6-311++G(2df,2pd) guess=read geom=checkpoint opt=readfc freq=n
 oraman nosymm integral(ultrafinegrid)
 ----------------------------------------------------------------------

 ------------------------------------------------------------
 Candidate Structure: Conf:640 OPT and FREQ calc in gas phase
 ------------------------------------------------------------
 Structure from the checkpoint file:  "conf-640.chk"
 Charge =  0 Multiplicity = 1

 SCF Done:  E(RB3LYP) =  -796.384842587     A.U. after   14 cycles
 SCF Done:  E(RB3LYP) =  -796.385664229     A.U. after   12 cycles
 SCF Done:  E(RB3LYP) =  -796.385700955     A.U. after   11 cycles
 SCF Done:  E(RB3LYP) =  -796.385702521     A.U. after   10 cycles
 Optimization completed.
    -- Stationary point found.
 Normal termination of Gaussian 09 at Thu Jul 29 03:49:47 2021.

 ----------------------------------------------------------------------
 #N Geom=AllCheck Guess=TCheck SCRF=Check GenChk RB3LYP/6-311++G(2df,2p
 d) Freq
 ----------------------------------------------------------------------

 Structure from the checkpoint file:  "conf-640.chk"
 ------------------------------------------------------------
 Candidate Structure: Conf:640 OPT and FREQ calc in gas phase
 ------------------------------------------------------------
 Charge =  0 Multiplicity = 1

                          Input orientation:
 ---------------------------------------------------------------------
 Center     Atomic      Atomic             Coordinates (Angstroms)
 Number     Number       Type             X           Y           Z
 ---------------------------------------------------------------------
      1          8           0        0.926850   -1.278999   -1.007066
      2          6           0        1.185784   -0.143557   -0.616631
      3          7           0        0.278021    0.866679   -0.676618
      4          6           0       -0.980776    0.740044   -1.380897
      5          6           0       -1.139801    1.941954   -2.300287
      6          8           0       -2.093649    1.740850   -3.226270
      7          8           0       -0.515963    2.966955   -2.202409
      8          6           0       -2.231968    0.641301   -0.468942
      9          6           0       -2.199799   -0.436125    0.567735
     10          6           0       -2.852990   -0.522732    1.770889
     11          7           0       -2.620530   -1.737525    2.367953
     12          6           0       -1.829464   -2.379426    1.542802
     13          7           0       -1.556047   -1.647092    0.427290
     14          6           0        2.529855    0.196714   -0.009437
     15          6           0        2.831339   -0.664954    1.236582
     16          7           0        4.142091   -0.460927    1.835547
     17          1           0        0.577469    1.804917   -0.462159
     18          1           0       -0.920296   -0.157300   -1.996515
     19          1           0       -2.172829    2.550582   -3.752227
     20          1           0       -3.089490    0.505335   -1.132849
     21          1           0       -2.381159    1.596576    0.038711
     22          1           0       -3.485151    0.219400    2.230130
     23          1           0       -1.418311   -3.362922    1.698019
     24          1           0       -0.837141   -1.853829   -0.258201
     25          1           0        2.593679    1.256683    0.244949
     26          1           0        3.284583   -0.006863   -0.772458
     27          1           0        2.075843   -0.470472    2.000116
     28          1           0        2.734593   -1.714485    0.961916
     29          1           0        4.274746    0.492172    2.148677
     30          1           0        4.890589   -0.683082    1.191599
 ---------------------------------------------------------------------

 SCF Done:  E(RB3LYP) =  -796.385702521     A.U. after    2 cycles

 Alpha  occ. eigenvalues --  -19.20737 -19.15099 -19.11464 -14.36663 -14.35740
 Alpha  occ. eigenvalues --  -14.30608 -14.28672 -10.33958 -10.29745 -10.25647
 Alpha  occ. eigenvalues --  -10.21542 -10.20903 -10.20860 -10.20450 -10.19494
 Alpha  occ. eigenvalues --  -10.17621  -1.14930  -1.06792  -1.05997  -1.01207
 Alpha  occ. eigenvalues --   -0.95911  -0.89908  -0.86846  -0.82474  -0.77678
 Alpha  occ. eigenvalues --   -0.75206  -0.69055  -0.66599  -0.63133  -0.61976
 Alpha  occ. eigenvalues --   -0.60494  -0.58870  -0.55745  -0.53240  -0.52996
 Alpha  occ. eigenvalues --   -0.52188  -0.50803  -0.50016  -0.49120  -0.47462
 Alpha  occ. eigenvalues --   -0.45893  -0.45288  -0.44119  -0.43291  -0.43117
 Alpha  occ. eigenvalues --   -0.42273  -0.41411  -0.40785  -0.40285  -0.39547
 Alpha  occ. eigenvalues --   -0.38211  -0.36439  -0.36126  -0.32384  -0.29720
 Alpha  occ. eigenvalues --   -0.29169  -0.28155  -0.26772  -0.25477  -0.22674
 Alpha virt. eigenvalues --   -0.03510  -0.02687  -0.02095  -0.01036  -0.00010
 Alpha virt. eigenvalues --    0.00289   0.00777   0.01352   0.01508   0.02215
 Alpha virt. eigenvalues --    0.02870   0.03364   0.03589   0.04708   0.04803

 Mulliken charges:
               1
     1  O   -0.407347
     2  C   -0.334016
     3  N    0.224393
     4  C   -0.143786
     5  C    0.225232
     6  O   -0.178476
     7  O   -0.377279
     8  C   -0.864558
     9  C    0.774214
    10  C   -0.171541
    11  N   -0.268163
    12  C    0.095839
    13  N    0.037165
    14  C    0.344579
    15  C   -0.229599
    16  N   -0.164762
    17  H    0.153084
    18  H    0.122316
    19  H    0.235283
    20  H    0.062885
    21  H    0.072020
    22  H    0.071436
    23  H    0.105672
    24  H    0.176003
    25  H    0.017502
    26  H    0.047583
    27  H    0.070623
    28  H    0.077603
    29  H    0.111474
    30  H    0.114621
 Sum of Mulliken charges =   0.00000

 Dipole moment (field-independent basis, Debye):
    X=              1.5518    Y=              3.6642    Z=             -3.9585  Tot=              5.6128
 Quadrupole moment (field-independent basis, Debye-Ang):
   XX=            -93.9019   YY=            -97.9898   ZZ=           -103.0145
   XY=             -5.5980   XZ=             10.4838   YZ=              4.2863

  Exact polarizability: 153.647  -5.508 147.715   3.550 -22.790 143.938
 Approx polarizability: 202.320  -8.977 234.491  -4.654  -9.244 208.207

                      1                      2                      3
                      A                      A                      A
 Frequencies --     22.0073                31.9770                56.8179
 Red. masses --      5.1552                 3.1943                 7.3921
 Frc consts  --      0.0015                 0.0019                 0.0141
 IR Inten    --      0.8461                 2.2814                 3.2836

                      4                      5                      6
                      A                      A                      A
 Frequencies --     61.9866                71.7980                83.8553
 Red. masses --      5.0285                 4.5144                 2.0186
 Frc consts  --      0.0114                 0.0137                 0.0084
 IR Inten    --      1.9728                 3.8609                 1.5036

                      7                      8                      9
                      A                      A                      A
 Frequencies --    100.8284               128.6432               165.5774
 Red. masses --      6.2465                 5.9988                 5.8827
 Frc consts  --      0.0374                 0.0585                 0.0950
 IR Inten    --      1.2312                12.1190                 9.4399

                     10                     11                     12
                      A                      A                      A
 Frequencies --    183.0087               204.6269               256.8874
 Red. masses --      4.2946                 5.2274                 4.8457
 Frc consts  --      0.0847                 0.1290                 0.1884
 IR Inten    --     10.3800                 8.0241                 0.5729

                     13                     14                     15
                      A                      A                      A
 Frequencies --    282.7892               293.1126               319.9460
 Red. masses --      1.2087                 2.6923                 6.5595
 Frc consts  --      0.0570                 0.1363                 0.3956
 IR Inten    --     32.3374                 4.9570                 3.0792

                     16                     17                     18
                      A                      A                      A
 Frequencies --    341.0867               392.7201               451.9989
 Red. masses --      3.5337                 3.6520                 3.6403
 Frc consts  --      0.2422                 0.3319                 0.4382
 IR Inten    --      6.8138                 2.8517                 8.8427

                     19                     20                     21
                      A                      A                      A
 Frequencies --    524.7805               545.4160               596.5576
 Red. masses --      3.1563                 1.2882                 1.3059
 Frc consts  --      0.5121                 0.2258                 0.2738
 IR Inten    --     34.8885                59.8952                94.1755

                     22                     23                     24
                      A                      A                      A
 Frequencies --    629.2982               633.0290               655.2943
 Red. masses --      3.6089                 3.5197                 3.7126
 Frc consts  --      0.8421                 0.8310                 0.9393
 IR Inten    --     12.5864                21.0573                39.4842

                     25                     26                     27
                      A                      A                      A
 Frequencies --    676.3163               697.4581               727.6034
 Red. masses --      3.2680                 3.3137                 1.2181
 Frc consts  --      0.8807                 0.9497                 0.3799
 IR Inten    --     42.0047                23.9364                96.5403

                     28                     29                     30
                      A                      A                      A
 Frequencies --    755.0862               773.1096               785.1584
 Red. masses --      3.9595                 1.3060                 4.1442
 Frc consts  --      1.3301                 0.4599                 1.5052
 IR Inten    --      1.6162                 1.8442                11.4938

                     31                     32                     33
                      A                      A                      A
 Frequencies --    794.7917               827.8360               845.0533
 Red. masses --      1.4742                 1.4265                 1.3773
 Frc consts  --      0.5487                 0.5760                 0.5795
 IR Inten    --    205.6510                15.0440                23.0465

                     34                     35                     36
                      A                      A                      A
 Frequencies --    892.3994               927.5239               938.4298
 Red. masses --      2.0814                 4.8436                 5.7630
 Frc consts  --      0.9766                 2.4551                 2.9902
 IR Inten    --      5.5489                 1.1914                17.3820

                     37                     38                     39
                      A                      A                      A
 Frequencies --    975.0971               991.9038              1011.4508
 Red. masses --      1.3993                 3.4268                 4.6881
 Frc consts  --      0.7839                 1.9864                 2.8258
 IR Inten    --      6.0761                 8.7716                64.1862

                     40                     41                     42
                      A                      A                      A
 Frequencies --   1018.4255              1048.1305              1093.5243
 Red. masses --      3.7742                 3.1804                 3.2188
 Frc consts  --      2.3064                 2.0585                 2.2678
 IR Inten    --     14.9569                 5.9421                14.3498

                     43                     44                     45
                      A                      A                      A
 Frequencies --   1107.6525              1137.1541              1145.2175
 Red. masses --      2.3987                 2.0607                 1.7636
 Frc consts  --      1.7339                 1.5700                 1.3628
 IR Inten    --     58.5177                20.1172               122.9142

                     46                     47                     48
                      A                      A                      A
 Frequencies --   1149.3382              1174.6211              1230.0647
 Red. masses --      1.8154                 2.2901                 1.4493
 Frc consts  --      1.4129                 1.8616                 1.2920
 IR Inten    --      8.6771               102.4633                15.3407

                     49                     50                     51
                      A                      A                      A
 Frequencies --   1248.4711              1261.9210              1279.9174
 Red. masses --      1.6115                 2.1815                 1.4318
 Frc consts  --      1.4799                 2.0468                 1.3820
 IR Inten    --     22.7148                 4.7790                15.4135

                     52                     53                     54
                      A                      A                      A
 Frequencies --   1282.8075              1294.8791              1336.5267
 Red. masses --      1.3666                 1.3107                 1.3837
 Frc consts  --      1.3250                 1.2949                 1.4563
 IR Inten    --     13.6177                 5.8022                10.5820

                     55                     56                     57
                      A                      A                      A
 Frequencies --   1348.3331              1368.6420              1383.1929
 Red. masses --      1.8991                 1.4441                 1.2174
 Frc consts  --      2.0342                 1.5938                 1.3723
 IR Inten    --      5.6245                17.1531                 3.3443

                     58                     59                     60
                      A                      A                      A
 Frequencies --   1391.4690              1392.8825              1397.1998
 Red. masses --      1.2598                 2.2227                 2.4080
 Frc consts  --      1.4372                 2.5407                 2.7697
 IR Inten    --      3.5169                34.3256               155.1519

                     61                     62                     63
                      A                      A                      A
 Frequencies --   1452.3258              1477.5824              1485.3790
 Red. masses --      2.2237                 1.1240                 1.2605
 Frc consts  --      2.7635                 1.4459                 1.6386
 IR Inten    --     36.6216                 6.2419                28.2940

                     64                     65                     66
                      A                      A                      A
 Frequencies --   1497.6552              1504.1766              1536.8691
 Red. masses --      2.6349                 1.0892                 1.9869
 Frc consts  --      3.4821                 1.4520                 2.7650
 IR Inten    --     17.2496                 4.8946               243.0535

                     67                     68                     69
                      A                      A                      A
 Frequencies --   1604.4766              1662.5160              1703.3281
 Red. masses --      3.5275                 1.0939                 7.6367
 Frc consts  --      5.3504                 1.7814                13.0542
 IR Inten    --      9.3888                31.8727               210.3919

                     70                     71                     72
                      A                      A                      A
 Frequencies --   1805.0971              3028.5965              3032.0841
 Red. masses --      9.8739                 1.0610                 1.0581
 Frc consts  --     18.9557                 5.7341                 5.7312
 IR Inten    --    288.2811                17.3216                 7.1583

                     73                     74                     75
                      A                      A                      A
 Frequencies --   3046.3585              3061.0798              3072.0217
 Red. masses --      1.0661                 1.0986                 1.0997
 Frc consts  --      5.8291                 6.0652                 6.1148
 IR Inten    --     25.6366                 6.7323                 5.8132

                     76                     77                     78
                      A                      A                      A
 Frequencies --   3086.8828              3100.9695              3232.9439
 Red. masses --      1.0855                 1.1043                 1.0958
 Frc consts  --      6.0945                 6.2565                 6.7482
 IR Inten    --      6.7252                18.6930                 6.8459

                     79                     80                     81
                      A                      A                      A
 Frequencies --   3246.2551              3494.9915              3507.5067
 Red. masses --      1.0973                 1.0845                 1.0481
 Frc consts  --      6.8128                 7.8053                 7.5973
 IR Inten    --      0.9519               303.2547                 1.7656

                     82                     83                     84
                      A                      A                      A
 Frequencies --   3587.8028              3610.2857              3746.6788
 Red. masses --      1.0945                 1.0771                 1.0643
 Frc consts  --      8.3011                 8.2717                 8.8027
 IR Inten    --      2.5254                55.8756                93.6500

 - Thermochemistry -
 -------------------
 Temperature   298.150 Kelvin.  Pressure   1.00000 Atm.
 Atom     1 has atomic number  8 and mass  15.99491

 Molecular mass:   226.10659 amu.
 Principal axes and moments of inertia in atomic units:
                           1         2         3
     Eigenvalues --  3604.261634339.426497081.96083
           X            0.79807   0.59910  -0.06451
           Y           -0.35461   0.55353   0.75356
           Z            0.48717  -0.57852   0.65420
 This molecule is an asymmetric top.
 Rotational symmetry number  1.
 Warning -- assumption of classical behavior for rotation
           may cause significant error
 Rotational temperatures (Kelvin)      0.02403     0.01996     0.01223
 Rotational constants (GHZ):           0.50072     0.41589     0.25484
 Zero-point vibrational energy     641961.0 (Joules/Mol)
                                  153.43236 (Kcal/Mol)
 Warning -- explicit consideration of  21 degrees of freedom as
           vibrations may cause significant error
 Vibrational temperatures:     31.66    46.01    81.75    89.18   103.30
          (Kelvin)            120.65   145.07   185.09   238.23   263.31
                              294.41   369.60   406.87   421.72   460.33
                              490.75   565.04   650.32   755.04   784.73
                              858.31   905.42   910.79   942.82   973.07
                             1003.49  1046.86  1086.40  1112.33  1129.67
                             1143.53  1191.07  1215.84  1283.96  1334.50
                             1350.19  1402.95  1427.13  1455.25  1465.29
                             1508.02  1573.34  1593.66  1636.11  1647.71
                             1653.64  1690.02  1769.79  1796.27  1815.62
                             1841.51  1845.67  1863.04  1922.96  1939.95
                             1969.17  1990.10  2002.01  2004.04  2010.26
                             2089.57  2125.91  2137.13  2154.79  2164.17
                             2211.21  2308.48  2391.99  2450.71  2597.13
                             4357.47  4362.49  4383.02  4404.21  4419.95
                             4441.33  4461.60  4651.48  4670.63  5028.51
                             5046.51  5162.04  5194.39  5390.63

 Zero-point correction=                           0.244510 (Hartree/Particle)
 Thermal correction to Energy=                    0.260596
 Thermal correction to Enthalpy=                  0.261540
 Thermal correction to Gibbs Free Energy=         0.198343
 Sum of electronic and zero-point Energies=           -796.141192
 Sum of electronic and thermal Energies=              -796.125106
 Sum of electronic and thermal Enthalpies=            -796.124162
 Sum of electronic and thermal Free Energies=         -796.187359

                     E (Thermal)             CV                S
                      KCal/Mol        Cal/Mol-Kelvin    Cal/Mol-Kelvin
 Total                  163.527             58.343            133.010
 Electronic               0.000              0.000              0.000
 Translational            0.889              2.981             42.150
 Rotational               0.889              2.981             33.071
 Vibrational            161.749             52.381             57.789
 Vibration     1          0.593              1.985              6.444
 Vibration     2          0.594              1.983              5.703
 Vibration     3          0.596              1.975              4.565
 Vibration     4          0.597              1.972              4.393
 Vibration     5          0.598              1.967              4.103
 Vibration     6          0.601              1.960              3.799
 Vibration     7          0.604              1.948              3.438
 Vibration     8          0.611              1.925              2.966
 Vibration     9          0.624              1.885              2.485
 Vibration    10          0.631              1.863              2.298
 Vibration    11          0.640              1.833              2.091
 Vibration    12          0.666              1.751              1.683
 Vibration    13          0.682              1.706              1.517
 Vibration    14          0.688              1.687              1.456
 Vibration    15          0.706              1.635              1.310
 Vibration    16          0.721              1.593              1.207
 Vibration    17          0.760              1.486              0.990
 Vibration    18          0.811              1.356              0.790
 Vibration    19          0.880              1.195              0.599
 Vibration    20          0.901              1.150              0.554
 Vibration    21          0.954              1.039              0.456

 Normal termination of Gaussian 09 at Thu Jul 29 10:16:09 2021.
