 Gaussian 09, Revision D.01,
 Gaussian 09:  ES64L-G09RevD.01 24-Apr-2013

 ----------------------------------------------------------------------
 # B3LYP/6-311++G(2df,2pd) guess=read geom=checkpoint opt=readfc freq=n
 oraman nosymm integral(ultrafinegrid)
 ----------------------------------------------------------------------

 ------------------------------------------------------------
 Candidate Structure: Conf:801 OPT and FREQ calc in gas phase
 ------------------------------------------------------------
 Structure from the checkpoint file:  "conf-801.chk"
 Charge =  0 Multiplicity = 1

 SCF Done:  E(RB3LYP) =  -796.377599640     A.U. after   12 cycles
 SCF Done:  E(RB3LYP) =  -796.378439225     A.U. after   12 cycles
 SCF Done:  E(RB3LYP) =  -796.378461275     A.U. after   11 cycles
 SCF Done:  E(RB3LYP) =  -796.378462794     A.U. after   10 cycles
 SCF Done:  E(RB3LYP) =  -796.378462849     A.U. after    7 cycles
 Optimization completed.
    -- Stationary point found.
 Normal termination of Gaussian 09 at Thu Jul 29 04:02:39 2021.

 ----------------------------------------------------------------------
 #N Geom=AllCheck Guess=TCheck SCRF=Check GenChk RB3LYP/6-311++G(2df,2p
 d) Freq
 ----------------------------------------------------------------------

 Structure from the checkpoint file:  "conf-801.chk"
 ------------------------------------------------------------
 Candidate Structure: Conf:801 OPT and FREQ calc in gas phase
 ------------------------------------------------------------
 Charge =  0 Multiplicity = 1

                          Input orientation:
 ---------------------------------------------------------------------
 Center     Atomic      Atomic             Coordinates (Angstroms)
 Number     Number       Type             X           Y           Z
 ---------------------------------------------------------------------
      1          8           0        1.470474    0.943136   -1.032632
      2          6           0        1.757486    0.286555   -0.042642
      3          7           0        0.811291   -0.093237    0.861726
      4          6           0       -0.549417    0.384099    0.780120
      5          6           0       -1.165945    0.285302    2.177558
      6          8           0       -2.369371    0.855661    2.335043
      7          8           0       -0.623983   -0.274779    3.092758
      8          6           0       -1.365731   -0.407150   -0.282562
      9          6           0       -2.731102    0.142564   -0.546021
     10          6           0       -3.175114    1.385623   -0.932066
     11          7           0       -4.546402    1.404431   -1.044897
     12          6           0       -4.939437    0.195371   -0.736667
     13          7           0       -3.882593   -0.607531   -0.423517
     14          6           0        3.179093   -0.142518    0.272738
     15          6           0        3.962850   -0.524947   -0.980314
     16          7           0        5.362028   -0.787041   -0.639394
     17          1           0        1.069205   -0.536885    1.730596
     18          1           0       -0.536434    1.432870    0.472444
     19          1           0       -2.699605    1.215954    1.495040
     20          1           0       -1.431312   -1.450124    0.033374
     21          1           0       -0.768380   -0.383090   -1.193662
     22          1           0       -2.581481    2.255314   -1.160618
     23          1           0       -5.957613   -0.155668   -0.718045
     24          1           0       -3.930019   -1.571534   -0.139606
     25          1           0        3.180811   -0.963975    0.993447
     26          1           0        3.680930    0.701045    0.753913
     27          1           0        3.928448    0.310233   -1.677615
     28          1           0        3.463899   -1.369398   -1.474471
     29          1           0        5.460982   -1.644229   -0.109107
     30          1           0        5.926210   -0.886153   -1.473209
 ---------------------------------------------------------------------

 SCF Done:  E(RB3LYP) =  -796.378462849     A.U. after    3 cycles

 Alpha  occ. eigenvalues --  -19.18926 -19.13435 -19.10088 -14.39313 -14.35356
 Alpha  occ. eigenvalues --  -14.31372 -14.30181 -10.32682 -10.28426 -10.25328
 Alpha  occ. eigenvalues --  -10.24416 -10.23229 -10.21558 -10.20388 -10.20122
 Alpha  occ. eigenvalues --  -10.18599  -1.13004  -1.05579  -1.04889  -1.04229
 Alpha  occ. eigenvalues --   -0.94778  -0.89753  -0.89323  -0.82748  -0.77887
 Alpha  occ. eigenvalues --   -0.75040  -0.69788  -0.64998  -0.64062  -0.63053
 Alpha  occ. eigenvalues --   -0.61865  -0.60042  -0.57546  -0.55576  -0.51442
 Alpha  occ. eigenvalues --   -0.51162  -0.49680  -0.49402  -0.47855  -0.47027
 Alpha  occ. eigenvalues --   -0.46609  -0.45625  -0.44328  -0.43585  -0.43331
 Alpha  occ. eigenvalues --   -0.43248  -0.42535  -0.40668  -0.40112  -0.40003
 Alpha  occ. eigenvalues --   -0.36567  -0.35796  -0.34894  -0.31229  -0.30748
 Alpha  occ. eigenvalues --   -0.29352  -0.28477  -0.27307  -0.25438  -0.25333
 Alpha virt. eigenvalues --   -0.03000  -0.02355  -0.01598  -0.00758  -0.00183
 Alpha virt. eigenvalues --   -0.00064   0.00051   0.00932   0.01280   0.01872
 Alpha virt. eigenvalues --    0.02430   0.02834   0.03079   0.03775   0.04083

 Mulliken charges:
               1
     1  O   -0.404361
     2  C   -0.062760
     3  N    0.070484
     4  C    0.067984
     5  C    0.052485
     6  O   -0.192705
     7  O   -0.350195
     8  C    0.022589
     9  C   -0.010641
    10  C   -0.270305
    11  N   -0.262223
    12  C    0.093960
    13  N    0.047293
    14  C    0.126303
    15  C   -0.160892
    16  N   -0.171523
    17  H    0.145183
    18  H    0.120550
    19  H    0.266371
    20  H    0.031381
    21  H    0.119798
    22  H    0.098410
    23  H    0.102363
    24  H    0.133410
    25  H    0.010634
    26  H    0.073449
    27  H    0.062783
    28  H    0.038791
    29  H    0.093775
    30  H    0.107607
 Sum of Mulliken charges =   0.00000

 Dipole moment (field-independent basis, Debye):
    X=             -0.0894    Y=             -4.6818    Z=             -0.9717  Tot=              4.7824
 Quadrupole moment (field-independent basis, Debye-Ang):
   XX=            -92.5187   YY=            -92.3471   ZZ=           -112.3443
   XY=              6.7328   XZ=             -1.3363   YZ=              5.6777

  Exact polarizability: 194.110 -10.243 123.379   3.951  -9.153 130.075
 Approx polarizability: 234.736  -8.911 209.001   8.104 -25.532 198.359

                      1                      2                      3
                      A                      A                      A
 Frequencies --     22.8659                27.1093                44.2261
 Red. masses --      3.5573                 5.0557                 5.2744
 Frc consts  --      0.0011                 0.0022                 0.0061
 IR Inten    --      0.5050                 2.1262                 2.3061

                      4                      5                      6
                      A                      A                      A
 Frequencies --     55.6727                71.8348                80.6474
 Red. masses --      2.3603                 6.0902                 4.6037
 Frc consts  --      0.0043                 0.0185                 0.0176
 IR Inten    --      5.4854                10.6920                 2.4158

                      7                      8                      9
                      A                      A                      A
 Frequencies --     94.0362                99.0448               161.7021
 Red. masses --      5.1294                 5.9477                 4.2195
 Frc consts  --      0.0267                 0.0344                 0.0650
 IR Inten    --      3.8510                 2.5732                 7.1593

                     10                     11                     12
                      A                      A                      A
 Frequencies --    186.1621               207.6594               239.4793
 Red. masses --      4.2093                 4.4250                 1.2262
 Frc consts  --      0.0859                 0.1124                 0.0414
 IR Inten    --      7.5916                11.4821                43.8605

                     13                     14                     15
                      A                      A                      A
 Frequencies --    273.2523               323.2429               327.7508
 Red. masses --      5.7931                 4.2267                 3.0810
 Frc consts  --      0.2549                 0.2602                 0.1950
 IR Inten    --      1.1863                 4.1438                 2.4241

                     16                     17                     18
                      A                      A                      A
 Frequencies --    345.5464               392.4747               403.5387
 Red. masses --      5.5889                 3.7725                 4.4686
 Frc consts  --      0.3932                 0.3424                 0.4287
 IR Inten    --      7.6716                 8.3907                 6.4634

                     19                     20                     21
                      A                      A                      A
 Frequencies --    536.1895               552.1370               557.9841
 Red. masses --      2.3699                 1.3689                 1.6114
 Frc consts  --      0.4014                 0.2459                 0.2956
 IR Inten    --     55.4390                66.5325                32.9350

                     22                     23                     24
                      A                      A                      A
 Frequencies --    606.5787               636.5970               643.2851
 Red. masses --      1.5456                 2.5399                 2.3898
 Frc consts  --      0.3351                 0.6064                 0.5827
 IR Inten    --     78.7927                14.7640                 5.3806

                     25                     26                     27
                      A                      A                      A
 Frequencies --    672.4648               683.0948               734.1781
 Red. masses --      2.7355                 3.1482                 3.5513
 Frc consts  --      0.7288                 0.8655                 1.1278
 IR Inten    --     12.3037                17.8431                 8.4915

                     28                     29                     30
                      A                      A                      A
 Frequencies --    751.0607               764.1140               797.3216
 Red. masses --      3.4357                 3.8255                 1.4532
 Frc consts  --      1.1419                 1.3160                 0.5443
 IR Inten    --     19.1413                 6.7710                35.2439

                     31                     32                     33
                      A                      A                      A
 Frequencies --    822.7062               828.4823               834.2125
 Red. masses --      2.3636                 1.3537                 1.4651
 Frc consts  --      0.9426                 0.5474                 0.6007
 IR Inten    --      3.5554                86.5604                14.7453

                     34                     35                     36
                      A                      A                      A
 Frequencies --    866.8972               935.5166               949.8281
 Red. masses --      1.4356                 5.8890                 3.0645
 Frc consts  --      0.6356                 3.0366                 1.6289
 IR Inten    --     27.2121                11.1096                21.6561

                     37                     38                     39
                      A                      A                      A
 Frequencies --    979.0482              1011.5312              1026.1553
 Red. masses --      2.2184                 3.5574                 3.9705
 Frc consts  --      1.2529                 2.1446                 2.4633
 IR Inten    --      4.4769                 8.8246                 6.4925

                     40                     41                     42
                      A                      A                      A
 Frequencies --   1031.0537              1060.4125              1090.6435
 Red. masses --      3.2392                 2.8310                 2.2484
 Frc consts  --      2.0288                 1.8756                 1.5757
 IR Inten    --      4.1627                20.3859                28.2677

                     43                     44                     45
                      A                      A                      A
 Frequencies --   1108.0456              1119.6667              1140.9144
 Red. masses --      1.6606                 2.2838                 2.2932
 Frc consts  --      1.2012                 1.6869                 1.7587
 IR Inten    --     14.3012                18.6999                12.5294

                     46                     47                     48
                      A                      A                      A
 Frequencies --   1165.8652              1170.2036              1206.2184
 Red. masses --      1.7180                 1.4781                 2.1728
 Frc consts  --      1.3758                 1.1925                 1.8626
 IR Inten    --     18.9461                 7.9556                33.7633

                     49                     50                     51
                      A                      A                      A
 Frequencies --   1225.1220              1249.1833              1263.4215
 Red. masses --      1.6225                 1.9267                 1.4188
 Frc consts  --      1.4348                 1.7714                 1.3344
 IR Inten    --     37.1421                19.7300                 6.5687

                     52                     53                     54
                      A                      A                      A
 Frequencies --   1283.0550              1310.8309              1324.0279
 Red. masses --      1.4498                 1.3756                 1.4908
 Frc consts  --      1.4062                 1.3926                 1.5398
 IR Inten    --      1.3154                23.4975               106.0032

                     55                     56                     57
                      A                      A                      A
 Frequencies --   1335.7746              1358.7125              1362.5725
 Red. masses --      1.1097                 1.4304                 1.4343
 Frc consts  --      1.1666                 1.5559                 1.5689
 IR Inten    --      9.7066               142.7415                 1.3288

                     58                     59                     60
                      A                      A                      A
 Frequencies --   1395.0500              1406.1700              1424.1025
 Red. masses --      2.3185                 1.9237                 1.4896
 Frc consts  --      2.6585                 2.2411                 1.7799
 IR Inten    --     61.4562                69.4265                42.0623

                     61                     62                     63
                      A                      A                      A
 Frequencies --   1426.3547              1470.9114              1484.5173
 Red. masses --      3.0160                 1.0911                 1.6658
 Frc consts  --      3.6153                 1.3909                 2.1629
 IR Inten    --     25.3632                 8.6022                18.5257

                     64                     65                     66
                      A                      A                      A
 Frequencies --   1493.6668              1515.7453              1518.8233
 Red. masses --      1.8541                 2.1108                 1.0897
 Frc consts  --      2.4371                 2.8573                 1.4811
 IR Inten    --     26.3072               317.5634                 8.0126

                     67                     68                     69
                      A                      A                      A
 Frequencies --   1594.6321              1661.6243              1724.9861
 Red. masses --      3.9445                 1.0913                 9.2088
 Frc consts  --      5.9097                 1.7752                16.1445
 IR Inten    --     11.4424                24.0373               231.7183

                     70                     71                     72
                      A                      A                      A
 Frequencies --   1820.5683              2959.6141              3029.3857
 Red. masses --      9.5824                 1.0741                 1.0594
 Frc consts  --     18.7129                 5.5434                 5.7283
 IR Inten    --    315.2061                62.5511                15.2763

                     73                     74                     75
                      A                      A                      A
 Frequencies --   3037.2649              3050.3067              3064.7483
 Red. masses --      1.0767                 1.0672                 1.0994
 Frc consts  --      5.8519                 5.8505                 6.0841
 IR Inten    --      7.2585                17.9751                 8.5373

                     76                     77                     78
                      A                      A                      A
 Frequencies --   3093.1751              3098.1725              3238.1028
 Red. masses --      1.1026                 1.0907                 1.0960
 Frc consts  --      6.2153                 6.1681                 6.7708
 IR Inten    --      1.6884                14.1848                 3.3772

                     79                     80                     81
                      A                      A                      A
 Frequencies --   3249.1733              3505.8990              3584.3749
 Red. masses --      1.0980                 1.0497                 1.0930
 Frc consts  --      6.8296                 7.6018                 8.2736
 IR Inten    --      1.1903                 0.5148                 2.3871

                     82                     83                     84
                      A                      A                      A
 Frequencies --   3591.5917              3644.3015              3647.5795
 Red. masses --      1.0775                 1.0796                 1.0685
 Frc consts  --      8.1892                 8.4475                 8.3756
 IR Inten    --     76.1018                68.0833               279.0754

 - Thermochemistry -
 -------------------
 Temperature   298.150 Kelvin.  Pressure   1.00000 Atm.
 Atom     1 has atomic number  8 and mass  15.99491

 Molecular mass:   226.10659 amu.
 Principal axes and moments of inertia in atomic units:
                           1         2         3
     Eigenvalues --  1740.601577807.896088903.54803
           X            0.99362   0.02106   0.11076
           Y           -0.10914  -0.06701   0.99177
           Z           -0.02831   0.99753   0.06429
 This molecule is an asymmetric top.
 Rotational symmetry number  1.
 Warning -- assumption of classical behavior for rotation
           may cause significant error
 Rotational temperatures (Kelvin)      0.04976     0.01109     0.00973
 Rotational constants (GHZ):           1.03685     0.23114     0.20270
 Zero-point vibrational energy     640493.8 (Joules/Mol)
                                  153.08168 (Kcal/Mol)
 Warning -- explicit consideration of  22 degrees of freedom as
           vibrations may cause significant error
 Vibrational temperatures:     32.90    39.00    63.63    80.10   103.35
          (Kelvin)            116.03   135.30   142.50   232.65   267.85
                              298.78   344.56   393.15   465.07   471.56
                              497.16   564.68   580.60   771.46   794.40
                              802.81   872.73   915.92   925.54   967.53
                              982.82  1056.32  1080.61  1099.39  1147.17
                             1183.69  1192.00  1200.24  1247.27  1346.00
                             1366.59  1408.63  1455.37  1476.41  1483.45
                             1525.70  1569.19  1594.23  1610.95  1641.52
                             1677.42  1683.66  1735.48  1762.68  1797.29
                             1817.78  1846.03  1885.99  1904.98  1921.88
                             1954.88  1960.44  2007.16  2023.16  2048.96
                             2052.20  2116.31  2135.89  2149.05  2180.82
                             2185.25  2294.32  2390.70  2481.87  2619.39
                             4258.22  4358.60  4369.94  4388.71  4409.48
                             4450.38  4457.57  4658.90  4674.83  5044.20
                             5157.11  5167.49  5243.33  5248.05

 Zero-point correction=                           0.243951 (Hartree/Particle)
 Thermal correction to Energy=                    0.260214
 Thermal correction to Enthalpy=                  0.261158
 Thermal correction to Gibbs Free Energy=         0.197031
 Sum of electronic and zero-point Energies=           -796.134512
 Sum of electronic and thermal Energies=              -796.118249
 Sum of electronic and thermal Enthalpies=            -796.117305
 Sum of electronic and thermal Free Energies=         -796.181432

                     E (Thermal)             CV                S
                      KCal/Mol        Cal/Mol-Kelvin    Cal/Mol-Kelvin
 Total                  163.287             58.565            134.967
 Electronic               0.000              0.000              0.000
 Translational            0.889              2.981             42.150
 Rotational               0.889              2.981             33.159
 Vibrational            161.509             52.604             59.658
 Vibration     1          0.593              1.985              6.368
 Vibration     2          0.593              1.984              6.030
 Vibration     3          0.595              1.980              5.060
 Vibration     4          0.596              1.975              4.605
 Vibration     5          0.598              1.967              4.102
 Vibration     6          0.600              1.962              3.875
 Vibration     7          0.603              1.953              3.574
 Vibration     8          0.604              1.950              3.473
 Vibration     9          0.622              1.889              2.530
 Vibration    10          0.632              1.859              2.266
 Vibration    11          0.641              1.829              2.064
 Vibration    12          0.657              1.780              1.807
 Vibration    13          0.676              1.723              1.576
 Vibration    14          0.708              1.629              1.294
 Vibration    15          0.711              1.620              1.271
 Vibration    16          0.724              1.584              1.186
 Vibration    17          0.760              1.486              0.991
 Vibration    18          0.769              1.462              0.950
 Vibration    19          0.891              1.170              0.574
 Vibration    20          0.907              1.135              0.540
 Vibration    21          0.914              1.122              0.528
 Vibration    22          0.965              1.018              0.438

 Optimization completed.
    -- Stationary point found.
 Normal termination of Gaussian 09 at Thu Jul 29 10:18:14 2021.
