 Gaussian 09, Revision D.01,
 Gaussian 09:  ES64L-G09RevD.01 24-Apr-2013

 ----------------------------------------------------------------------
 # B3LYP/6-311++G(2df,2pd) guess=read geom=checkpoint opt=readfc freq=n
 oraman nosymm integral(ultrafinegrid)
 ----------------------------------------------------------------------

 ------------------------------------------------------------
 Candidate Structure: Conf:295 OPT and FREQ calc in gas phase
 ------------------------------------------------------------
 Structure from the checkpoint file:  "conf-295.chk"
 Charge =  0 Multiplicity = 1

 SCF Done:  E(RB3LYP) =  -796.381655763     A.U. after   13 cycles
 SCF Done:  E(RB3LYP) =  -796.382550508     A.U. after   12 cycles
 SCF Done:  E(RB3LYP) =  -796.382641927     A.U. after   12 cycles
 SCF Done:  E(RB3LYP) =  -796.382646503     A.U. after   11 cycles
 SCF Done:  E(RB3LYP) =  -796.382646736     A.U. after    9 cycles
 SCF Done:  E(RB3LYP) =  -796.382646780     A.U. after    8 cycles
 SCF Done:  E(RB3LYP) =  -796.382646783     A.U. after    7 cycles
 Optimization completed.
    -- Stationary point found.
 Normal termination of Gaussian 09 at Thu Jul 29 05:07:40 2021.

 ----------------------------------------------------------------------
 #N Geom=AllCheck Guess=TCheck SCRF=Check GenChk RB3LYP/6-311++G(2df,2p
 d) Freq
 ----------------------------------------------------------------------

 Structure from the checkpoint file:  "conf-295.chk"
 ------------------------------------------------------------
 Candidate Structure: Conf:295 OPT and FREQ calc in gas phase
 ------------------------------------------------------------
 Charge =  0 Multiplicity = 1

                          Input orientation:
 ---------------------------------------------------------------------
 Center     Atomic      Atomic             Coordinates (Angstroms)
 Number     Number       Type             X           Y           Z
 ---------------------------------------------------------------------
      1          8           0        1.354095    1.043432   -0.600830
      2          6           0        1.757545    0.114682    0.082846
      3          7           0        0.919743   -0.596867    0.887569
      4          6           0       -0.470470   -0.231419    1.057931
      5          6           0       -0.924643   -0.832911    2.374881
      6          8           0       -2.187025   -0.479848    2.711297
      7          8           0       -0.265071   -1.565560    3.064922
      8          6           0       -1.356397   -0.699489   -0.146485
      9          6           0       -2.520008    0.163633   -0.499146
     10          6           0       -2.763881    0.903908   -1.627409
     11          7           0       -3.989029    1.520866   -1.558260
     12          6           0       -4.489451    1.167072   -0.400666
     13          7           0       -3.647210    0.339190    0.278203
     14          6           0        3.212426   -0.332227    0.110091
     15          6           0        4.058048    0.336242   -0.967848
     16          7           0        3.611375   -0.065469   -2.302828
     17          1           0        1.285070   -1.299641    1.511187
     18          1           0       -0.550569    0.856043    1.123625
     19          1           0       -2.383699   -0.910836    3.556665
     20          1           0       -0.696205   -0.702057   -1.010099
     21          1           0       -1.663062   -1.736840    0.016733
     22          1           0       -2.118350    1.021138   -2.481579
     23          1           0       -5.442483    1.473704   -0.002429
     24          1           0       -3.765020   -0.008518    1.213926
     25          1           0        3.617006   -0.098217    1.099651
     26          1           0        3.254781   -1.417327   -0.007258
     27          1           0        5.090904    0.008422   -0.841386
     28          1           0        4.038546    1.420948   -0.811857
     29          1           0        2.743579    0.407124   -2.525583
     30          1           0        4.289474    0.200821   -3.004624
 ---------------------------------------------------------------------

 SCF Done:  E(RB3LYP) =  -796.382646783     A.U. after    1 cycles

 Alpha  occ. eigenvalues --  -19.21528 -19.15636 -19.10166 -14.36686 -14.35233
 Alpha  occ. eigenvalues --  -14.29052 -14.28957 -10.34469 -10.28331 -10.25352
 Alpha  occ. eigenvalues --  -10.22216 -10.20575 -10.20482 -10.19708 -10.18493
 Alpha  occ. eigenvalues --  -10.17886  -1.15589  -1.06683  -1.05441  -1.01810
 Alpha  occ. eigenvalues --   -0.94787  -0.88386  -0.87396  -0.81922  -0.77107
 Alpha  occ. eigenvalues --   -0.74874  -0.69549  -0.66332  -0.62071  -0.61515
 Alpha  occ. eigenvalues --   -0.60472  -0.59286  -0.55263  -0.53556  -0.53139
 Alpha  occ. eigenvalues --   -0.50816  -0.50712  -0.49172  -0.48876  -0.47139
 Alpha  occ. eigenvalues --   -0.46613  -0.45123  -0.43943  -0.43216  -0.42538
 Alpha  occ. eigenvalues --   -0.41134  -0.40946  -0.40203  -0.39929  -0.38289
 Alpha  occ. eigenvalues --   -0.37219  -0.36972  -0.36438  -0.32625  -0.28783
 Alpha  occ. eigenvalues --   -0.28272  -0.27300  -0.27148  -0.24501  -0.23107
 Alpha virt. eigenvalues --   -0.04060  -0.03250  -0.01094  -0.00419   0.00183
 Alpha virt. eigenvalues --    0.00372   0.00794   0.01132   0.01756   0.02320
 Alpha virt. eigenvalues --    0.03082   0.03496   0.03761   0.04265   0.04474

 Mulliken charges:
               1
     1  O   -0.427856
     2  C   -0.044089
     3  N    0.088313
     4  C   -0.029572
     5  C    0.182046
     6  O   -0.260836
     7  O   -0.386013
     8  C    0.339721
     9  C   -0.091079
    10  C   -0.272878
    11  N   -0.292101
    12  C    0.101955
    13  N    0.001807
    14  C    0.132034
    15  C   -0.262235
    16  N   -0.201656
    17  H    0.152364
    18  H    0.110006
    19  H    0.259709
    20  H    0.103604
    21  H    0.050522
    22  H    0.076916
    23  H    0.097969
    24  H    0.157133
    25  H    0.032895
    26  H    0.036525
    27  H    0.043123
    28  H    0.064236
    29  H    0.123546
    30  H    0.113891
 Sum of Mulliken charges =   0.00000

 Dipole moment (field-independent basis, Debye):
    X=              0.6317    Y=             -2.3661    Z=              4.6927  Tot=              5.2933
 Quadrupole moment (field-independent basis, Debye-Ang):
   XX=            -87.4778   YY=           -103.7387   ZZ=            -93.6378
   XY=             10.0715   XZ=            -18.7581   YZ=              3.2389

  Exact polarizability: 177.750 -15.412 121.509  -6.193 -20.956 147.493
 Approx polarizability: 224.778 -23.711 197.929  -4.646 -34.594 219.283

                      1                      2                      3
                      A                      A                      A
 Frequencies --     21.5207                30.4395                35.0837
 Red. masses --      3.5595                 4.6024                 7.3501
 Frc consts  --      0.0010                 0.0025                 0.0053
 IR Inten    --      1.8715                 0.9959                 1.5778

                      4                      5                      6
                      A                      A                      A
 Frequencies --     48.6200                65.1175                74.0978
 Red. masses --      4.5190                 8.3824                 4.9519
 Frc consts  --      0.0063                 0.0209                 0.0160
 IR Inten    --      1.4439                 3.0382                 3.2816

                      7                      8                      9
                      A                      A                      A
 Frequencies --    121.7501               133.3685               146.3204
 Red. masses --      5.1514                 5.2097                 3.6825
 Frc consts  --      0.0450                 0.0546                 0.0465
 IR Inten    --      5.5176                 2.9463                 4.5347

                     10                     11                     12
                      A                      A                      A
 Frequencies --    190.9883               242.2309               274.1526
 Red. masses --      4.7360                 2.4942                 5.0626
 Frc consts  --      0.1018                 0.0862                 0.2242
 IR Inten    --      1.1342                32.6994                 2.1614

                     13                     14                     15
                      A                      A                      A
 Frequencies --    301.5505               308.0622               327.9772
 Red. masses --      1.8017                 1.6051                 3.7753
 Frc consts  --      0.0965                 0.0897                 0.2393
 IR Inten    --     19.0595                22.4557                 0.7590

                     16                     17                     18
                      A                      A                      A
 Frequencies --    343.7361               384.0491               429.2938
 Red. masses --      4.8161                 4.0714                 2.6705
 Frc consts  --      0.3353                 0.3538                 0.2900
 IR Inten    --      6.3386                 5.6941                34.9941

                     19                     20                     21
                      A                      A                      A
 Frequencies --    502.0844               560.7246               569.7965
 Red. masses --      1.3143                 2.5107                 1.6249
 Frc consts  --      0.1952                 0.4651                 0.3108
 IR Inten    --     67.8539                19.4436                43.2384

                     22                     23                     24
                      A                      A                      A
 Frequencies --    594.3334               616.7882               629.5844
 Red. masses --      1.7119                 2.0936                 3.6308
 Frc consts  --      0.3563                 0.4693                 0.8479
 IR Inten    --     47.8782                 1.4175                37.6237

                     25                     26                     27
                      A                      A                      A
 Frequencies --    665.3439               675.3379               684.1942
 Red. masses --      2.1912                 3.1607                 2.5186
 Frc consts  --      0.5715                 0.8493                 0.6947
 IR Inten    --     83.8751                 5.5163                 1.4005

                     28                     29                     30
                      A                      A                      A
 Frequencies --    740.2462               770.5490               811.1960
 Red. masses --      3.4060                 4.1361                 2.7199
 Frc consts  --      1.0996                 1.4469                 1.0545
 IR Inten    --     16.4747                 5.1754                12.0534

                     31                     32                     33
                      A                      A                      A
 Frequencies --    822.9735               854.3620               864.4855
 Red. masses --      1.4284                 1.4940                 1.4504
 Frc consts  --      0.5700                 0.6425                 0.6386
 IR Inten    --     18.2092                92.5634                16.4108

                     34                     35                     36
                      A                      A                      A
 Frequencies --    885.8231               900.6581               934.6497
 Red. masses --      1.9515                 2.1511                 5.7014
 Frc consts  --      0.9022                 1.0281                 2.9345
 IR Inten    --     10.3033                20.7534                11.7045

                     37                     38                     39
                      A                      A                      A
 Frequencies --    954.5725               998.7710              1013.4559
 Red. masses --      2.3538                 4.4197                 3.4516
 Frc consts  --      1.2637                 2.5976                 2.0887
 IR Inten    --      7.8231                 7.5508                 8.8590

                     40                     41                     42
                      A                      A                      A
 Frequencies --   1028.3319              1061.1154              1094.4349
 Red. masses --      3.5948                 2.5176                 3.6735
 Frc consts  --      2.2397                 1.6702                 2.5924
 IR Inten    --     11.4470                13.6022                47.2307

                     43                     44                     45
                      A                      A                      A
 Frequencies --   1114.0567              1119.6241              1143.2373
 Red. masses --      1.6189                 1.8210                 2.1516
 Frc consts  --      1.1838                 1.3449                 1.6569
 IR Inten    --     28.4415                22.4709                15.9309

                     46                     47                     48
                      A                      A                      A
 Frequencies --   1160.7917              1182.2894              1191.5856
 Red. masses --      1.8128                 2.2952                 1.3231
 Frc consts  --      1.4391                 1.8902                 1.1069
 IR Inten    --    174.0008                38.1095                25.4752

                     49                     50                     51
                      A                      A                      A
 Frequencies --   1235.4082              1239.1602              1258.9514
 Red. masses --      1.3570                 1.4799                 2.3449
 Frc consts  --      1.2202                 1.3389                 2.1898
 IR Inten    --     22.8354                25.4527                16.8058

                     52                     53                     54
                      A                      A                      A
 Frequencies --   1278.3492              1304.8023              1324.3146
 Red. masses --      1.4446                 1.3914                 1.2393
 Frc consts  --      1.3909                 1.3957                 1.2806
 IR Inten    --      6.7525                 5.9826                 3.8748

                     55                     56                     57
                      A                      A                      A
 Frequencies --   1349.7005              1355.1056              1376.9670
 Red. masses --      1.2547                 1.5648                 1.5940
 Frc consts  --      1.3467                 1.6930                 1.7807
 IR Inten    --      6.8827                46.0010                24.7519

                     58                     59                     60
                      A                      A                      A
 Frequencies --   1387.4383              1409.4246              1424.8478
 Red. masses --      2.6039                 2.1527                 1.3849
 Frc consts  --      2.9532                 2.5195                 1.6565
 IR Inten    --     15.9460                67.0076                11.4921

                     61                     62                     63
                      A                      A                      A
 Frequencies --   1425.8288              1451.7181              1474.9573
 Red. masses --      2.6211                 1.1056                 1.1498
 Frc consts  --      3.1395                 1.3728                 1.4737
 IR Inten    --     29.8241                20.5813                21.3111

                     64                     65                     66
                      A                      A                      A
 Frequencies --   1499.8905              1501.5159              1524.1865
 Red. masses --      3.1709                 1.0875                 2.0622
 Frc consts  --      4.2029                 1.4445                 2.8227
 IR Inten    --     23.7501                 2.9473               319.3159

                     67                     68                     69
                      A                      A                      A
 Frequencies --   1603.3438              1652.2568              1730.5385
 Red. masses --      4.2028                 1.1247                 7.1406
 Frc consts  --      6.3657                 1.8090                12.5992
 IR Inten    --      5.5287                71.8342               173.9288

                     70                     71                     72
                      A                      A                      A
 Frequencies --   1805.5284              2988.8586              3020.3418
 Red. masses --      9.4769                 1.0707                 1.0719
 Frc consts  --     18.2023                 5.6352                 5.7610
 IR Inten    --    312.5420                51.6762                23.5536

                     73                     74                     75
                      A                      A                      A
 Frequencies --   3024.5762              3052.7223              3062.6066
 Red. masses --      1.0623                 1.0827                 1.0917
 Frc consts  --      5.7255                 5.9447                 6.0328
 IR Inten    --     15.0652                11.1507                30.3996

                     76                     77                     78
                      A                      A                      A
 Frequencies --   3070.0031              3119.8041              3241.1265
 Red. masses --      1.0987                 1.0911                 1.0944
 Frc consts  --      6.1010                 6.2569                 6.7734
 IR Inten    --     17.6973                 1.3505                 4.9949

                     79                     80                     81
                      A                      A                      A
 Frequencies --   3244.7336              3509.5836              3586.5266
 Red. masses --      1.0993                 1.0494                 1.0932
 Frc consts  --      6.8189                 7.6155                 8.2854
 IR Inten    --      1.2536                 4.8070                 9.2469

                     82                     83                     84
                      A                      A                      A
 Frequencies --   3604.4688              3656.5450              3742.1340
 Red. masses --      1.0775                 1.0808                 1.0642
 Frc consts  --      8.2482                 8.5137                 8.7805
 IR Inten    --     70.8804                99.9135                93.8913

 - Thermochemistry -
 -------------------
 Temperature   298.150 Kelvin.  Pressure   1.00000 Atm.
 Atom     1 has atomic number  8 and mass  15.99491

 Molecular mass:   226.10659 amu.
 Principal axes and moments of inertia in atomic units:
                           1         2         3
     Eigenvalues --  2459.296696071.770668196.32470
           X            0.99031   0.07560   0.11646
           Y           -0.07515  -0.41339   0.90745
           Z           -0.11675   0.90741   0.40370
 This molecule is an asymmetric top.
 Rotational symmetry number  1.
 Warning -- assumption of classical behavior for rotation
           may cause significant error
 Rotational temperatures (Kelvin)      0.03522     0.01427     0.01057
 Rotational constants (GHZ):           0.73384     0.29723     0.22019
 Zero-point vibrational energy     640971.2 (Joules/Mol)
                                  153.19580 (Kcal/Mol)
 Warning -- explicit consideration of  23 degrees of freedom as
           vibrations may cause significant error
 Vibrational temperatures:     30.96    43.80    50.48    69.95    93.69
          (Kelvin)            106.61   175.17   191.89   210.52   274.79
                              348.52   394.44   433.86   443.23   471.89
                              494.56   552.56   617.66   722.39   806.76
                              819.81   855.11   887.42   905.83   957.28
                              971.66   984.40  1065.05  1108.65  1167.13
                             1184.07  1229.23  1243.80  1274.50  1295.84
                             1344.75  1373.42  1437.01  1458.14  1479.54
                             1526.71  1574.65  1602.88  1610.89  1644.86
                             1670.12  1701.05  1714.42  1777.47  1782.87
                             1811.35  1839.26  1877.32  1905.39  1941.92
                             1949.69  1981.15  1996.21  2027.85  2050.04
                             2051.45  2088.70  2122.13  2158.01  2160.34
                             2192.96  2306.85  2377.23  2489.86  2597.75
                             4300.30  4345.59  4351.69  4392.18  4406.40
                             4417.04  4488.70  4663.25  4668.44  5049.50
                             5160.21  5186.02  5260.95  5384.09

 Zero-point correction=                           0.244133 (Hartree/Particle)
 Thermal correction to Energy=                    0.260281
 Thermal correction to Enthalpy=                  0.261226
 Thermal correction to Gibbs Free Energy=         0.197299
 Sum of electronic and zero-point Energies=           -796.138514
 Sum of electronic and thermal Energies=              -796.122365
 Sum of electronic and thermal Enthalpies=            -796.121421
 Sum of electronic and thermal Free Energies=         -796.185348

                     E (Thermal)             CV                S
                      KCal/Mol        Cal/Mol-Kelvin    Cal/Mol-Kelvin
 Total                  163.329             58.615            134.545
 Electronic               0.000              0.000              0.000
 Translational            0.889              2.981             42.150
 Rotational               0.889              2.981             33.170
 Vibrational            161.552             52.654             59.225
 Vibration     1          0.593              1.985              6.489
 Vibration     2          0.594              1.984              5.801
 Vibration     3          0.594              1.982              5.519
 Vibration     4          0.595              1.978              4.873
 Vibration     5          0.597              1.971              4.296
 Vibration     6          0.599              1.966              4.041
 Vibration     7          0.609              1.931              3.072
 Vibration     8          0.613              1.920              2.897
 Vibration     9          0.617              1.907              2.720
 Vibration    10          0.634              1.852              2.218
 Vibration    11          0.658              1.776              1.786
 Vibration    12          0.676              1.721              1.570
 Vibration    13          0.694              1.671              1.408
 Vibration    14          0.698              1.658              1.373
 Vibration    15          0.711              1.620              1.270
 Vibration    16          0.722              1.588              1.195
 Vibration    17          0.753              1.504              1.023
 Vibration    18          0.791              1.406              0.861
 Vibration    19          0.857              1.245              0.653
 Vibration    20          0.916              1.116              0.522
 Vibration    21          0.926              1.097              0.505
 Vibration    22          0.952              1.044              0.460
 Vibration    23          0.976              0.996              0.422

 Optimization completed.
    -- Stationary point found.
 Normal termination of Gaussian 09 at Thu Jul 29 10:59:59 2021.
