 Gaussian 09, Revision D.01,
 Gaussian 09:  ES64L-G09RevD.01 24-Apr-2013

 ----------------------------------------------------------------------
 # B3LYP/6-311++G(2df,2pd) guess=read geom=checkpoint opt=readfc freq=n
 oraman nosymm integral(ultrafinegrid)
 ----------------------------------------------------------------------

 ------------------------------------------------------------
 Candidate Structure: Conf:599 OPT and FREQ calc in gas phase
 ------------------------------------------------------------
 Structure from the checkpoint file:  "conf-599.chk"
 Charge =  0 Multiplicity = 1

 SCF Done:  E(RB3LYP) =  -796.374511381     A.U. after   13 cycles
 SCF Done:  E(RB3LYP) =  -796.375442276     A.U. after   11 cycles
 SCF Done:  E(RB3LYP) =  -796.375460294     A.U. after   11 cycles
 SCF Done:  E(RB3LYP) =  -796.375460793     A.U. after    9 cycles
 SCF Done:  E(RB3LYP) =  -796.375460811     A.U. after    8 cycles
 Optimization completed.
    -- Stationary point found.
 Normal termination of Gaussian 09 at Thu Jul 29 04:09:30 2021.

 ----------------------------------------------------------------------
 #N Geom=AllCheck Guess=TCheck SCRF=Check GenChk RB3LYP/6-311++G(2df,2p
 d) Freq
 ----------------------------------------------------------------------

 Structure from the checkpoint file:  "conf-599.chk"
 ------------------------------------------------------------
 Candidate Structure: Conf:599 OPT and FREQ calc in gas phase
 ------------------------------------------------------------
 Charge =  0 Multiplicity = 1

                          Input orientation:
 ---------------------------------------------------------------------
 Center     Atomic      Atomic             Coordinates (Angstroms)
 Number     Number       Type             X           Y           Z
 ---------------------------------------------------------------------
      1          8           0        2.679650    1.648955    0.857504
      2          6           0        1.890336    0.824368    0.443555
      3          7           0        1.018911    1.174255   -0.583485
      4          6           0       -0.222994    0.496237   -0.941987
      5          6           0       -0.320607    0.329810   -2.471976
      6          8           0        0.841608    0.377770   -3.131532
      7          8           0       -1.357387    0.138235   -3.051484
      8          6           0       -1.480873    1.180667   -0.342594
      9          6           0       -2.650436    0.287334   -0.095374
     10          6           0       -3.281310   -0.060444    1.072915
     11          7           0       -4.342014   -0.895792    0.825434
     12          6           0       -4.357906   -1.056082   -0.476635
     13          7           0       -3.360165   -0.358734   -1.082600
     14          6           0        1.835417   -0.599644    0.968502
     15          6           0        2.998606   -0.928445    1.917677
     16          7           0        4.332828   -0.922033    1.339398
     17          1           0        1.037295    2.174502   -0.745283
     18          1           0       -0.170564   -0.519686   -0.551102
     19          1           0        1.542895    0.601055   -2.496515
     20          1           0       -1.760315    2.024691   -0.979661
     21          1           0       -1.189234    1.596909    0.621224
     22          1           0       -3.033934    0.256997    2.072759
     23          1           0       -5.058446   -1.659619   -1.029349
     24          1           0       -3.106424   -0.340010   -2.059934
     25          1           0        0.883946   -0.738294    1.493518
     26          1           0        1.824898   -1.301966    0.129865
     27          1           0        2.988447   -0.218940    2.744490
     28          1           0        2.812885   -1.914936    2.345872
     29          1           0        4.431496   -1.593300    0.588829
     30          1           0        4.573316   -0.003801    0.990262
 ---------------------------------------------------------------------

 SCF Done:  E(RB3LYP) =  -796.375460811     A.U. after    1 cycles

 Alpha  occ. eigenvalues --  -19.20423 -19.14802 -19.12853 -14.38069 -14.36833
 Alpha  occ. eigenvalues --  -14.30195 -14.29661 -10.34102 -10.31121 -10.27129
 Alpha  occ. eigenvalues --  -10.22705 -10.21960 -10.21418 -10.21127 -10.20798
 Alpha  occ. eigenvalues --  -10.18837  -1.14625  -1.08210  -1.06429  -1.02343
 Alpha  occ. eigenvalues --   -0.97020  -0.89793  -0.87886  -0.82483  -0.78623
 Alpha  occ. eigenvalues --   -0.75861  -0.69806  -0.67060  -0.65206  -0.61863
 Alpha  occ. eigenvalues --   -0.60558  -0.59992  -0.58300  -0.55534  -0.54519
 Alpha  occ. eigenvalues --   -0.52244  -0.50118  -0.49565  -0.49200  -0.48330
 Alpha  occ. eigenvalues --   -0.46886  -0.45349  -0.45018  -0.44519  -0.44190
 Alpha  occ. eigenvalues --   -0.42911  -0.41931  -0.41656  -0.40879  -0.39866
 Alpha  occ. eigenvalues --   -0.39237  -0.37501  -0.36211  -0.33462  -0.31176
 Alpha  occ. eigenvalues --   -0.29433  -0.29098  -0.27733  -0.25486  -0.23924
 Alpha virt. eigenvalues --   -0.04301  -0.03503  -0.02565  -0.01559  -0.00793
 Alpha virt. eigenvalues --   -0.00256   0.00511   0.00900   0.01455   0.01640
 Alpha virt. eigenvalues --    0.02426   0.03051   0.03268   0.03785   0.04208

 Mulliken charges:
               1
     1  O   -0.403893
     2  C    0.246069
     3  N   -0.157757
     4  C   -0.173569
     5  C    0.027872
     6  O   -0.177658
     7  O   -0.371832
     8  C    0.100731
     9  C    0.176816
    10  C   -0.359204
    11  N   -0.284366
    12  C    0.111548
    13  N   -0.008003
    14  C    0.214355
    15  C   -0.296101
    16  N   -0.141571
    17  H    0.197706
    18  H    0.105966
    19  H    0.224617
    20  H    0.075776
    21  H    0.069861
    22  H    0.065426
    23  H    0.101225
    24  H    0.195205
    25  H    0.023543
    26  H    0.066036
    27  H    0.081284
    28  H    0.059712
    29  H    0.094838
    30  H    0.135366
 Sum of Mulliken charges =   0.00000

 Dipole moment (field-independent basis, Debye):
    X=              1.3484    Y=              0.3089    Z=             -1.7091  Tot=              2.1987
 Quadrupole moment (field-independent basis, Debye-Ang):
   XX=           -121.9213   YY=            -94.1394   ZZ=           -107.8307
   XY=             -6.7171   XZ=             -1.0597   YZ=              0.7988

  Exact polarizability: 179.433  17.403 121.498  10.069  -1.968 145.818
 Approx polarizability: 233.077  31.721 189.953  10.572   4.190 222.752

                      1                      2                      3
                      A                      A                      A
 Frequencies --     18.4499                37.8208                49.1507
 Red. masses --      5.6489                 4.8160                 3.6025
 Frc consts  --      0.0011                 0.0041                 0.0051
 IR Inten    --      0.2241                 0.3936                 1.9846

                      4                      5                      6
                      A                      A                      A
 Frequencies --     62.4116                77.7657                87.1641
 Red. masses --      6.6368                 5.1542                 5.9195
 Frc consts  --      0.0152                 0.0184                 0.0265
 IR Inten    --      0.8282                 0.7086                11.2196

                      7                      8                      9
                      A                      A                      A
 Frequencies --    133.3594               138.3661               148.6916
 Red. masses --      4.5421                 5.7736                 3.5342
 Frc consts  --      0.0476                 0.0651                 0.0460
 IR Inten    --      5.9612                 9.2231                 3.6089

                     10                     11                     12
                      A                      A                      A
 Frequencies --    206.8004               246.3275               285.7136
 Red. masses --      4.5493                 2.5132                 4.4367
 Frc consts  --      0.1146                 0.0898                 0.2134
 IR Inten    --      7.2437                 6.8274                 9.3841

                     13                     14                     15
                      A                      A                      A
 Frequencies --    310.6374               340.3488               343.8839
 Red. masses --      4.1851                 1.3321                 2.1024
 Frc consts  --      0.2379                 0.0909                 0.1465
 IR Inten    --      0.8712                28.5954                25.8435

                     16                     17                     18
                      A                      A                      A
 Frequencies --    356.1479               412.1791               440.8743
 Red. masses --      5.0897                 3.4639                 4.2014
 Frc consts  --      0.3804                 0.3467                 0.4811
 IR Inten    --     14.1718                10.1476                 0.6079

                     19                     20                     21
                      A                      A                      A
 Frequencies --    524.2640               556.6468               601.6915
 Red. masses --      2.2171                 2.8090                 4.0519
 Frc consts  --      0.3590                 0.5128                 0.8643
 IR Inten    --     14.1823                 4.1922                 7.4410

                     22                     23                     24
                      A                      A                      A
 Frequencies --    629.1946               648.1121               668.9850
 Red. masses --      3.2947                 3.1606                 1.6889
 Frc consts  --      0.7685                 0.7822                 0.4453
 IR Inten    --     33.6127                 9.8246                33.0602

                     25                     26                     27
                      A                      A                      A
 Frequencies --    679.7703               723.0605               729.7945
 Red. masses --      2.3828                 3.2218                 1.3403
 Frc consts  --      0.6487                 0.9924                 0.4206
 IR Inten    --     65.2839                 6.2833                51.0123

                     28                     29                     30
                      A                      A                      A
 Frequencies --    739.7700               778.3161               794.3582
 Red. masses --      3.1709                 1.2108                 1.6579
 Frc consts  --      1.0224                 0.4322                 0.6164
 IR Inten    --      2.6179               145.5175               164.3702

                     31                     32                     33
                      A                      A                      A
 Frequencies --    818.5864               831.9247               835.4251
 Red. masses --      2.4835                 2.4839                 1.4245
 Frc consts  --      0.9805                 1.0129                 0.5858
 IR Inten    --     58.1314                 9.7965                20.7038

                     34                     35                     36
                      A                      A                      A
 Frequencies --    858.5812               884.7805               923.3865
 Red. masses --      1.4495                 2.5158                 1.6433
 Frc consts  --      0.6295                 1.1604                 0.8255
 IR Inten    --     18.5433                 3.7559                 4.8040

                     37                     38                     39
                      A                      A                      A
 Frequencies --    937.9670               979.6661              1020.4439
 Red. masses --      5.7813                 2.8174                 2.2287
 Frc consts  --      2.9967                 1.5932                 1.3673
 IR Inten    --     12.8290                 4.8978                35.8649

                     40                     41                     42
                      A                      A                      A
 Frequencies --   1025.4855              1042.6909              1104.2515
 Red. masses --      4.0377                 4.3187                 2.9116
 Frc consts  --      2.5017                 2.7664                 2.0918
 IR Inten    --      5.9466                18.6214                 9.0288

                     43                     44                     45
                      A                      A                      A
 Frequencies --   1116.2060              1128.7652              1145.1709
 Red. masses --      1.6056                 3.7119                 2.1560
 Frc consts  --      1.1787                 2.7865                 1.6659
 IR Inten    --     58.4428                27.8105                10.6993

                     46                     47                     48
                      A                      A                      A
 Frequencies --   1161.3717              1192.6908              1200.0730
 Red. masses --      1.4128                 2.1832                 1.3215
 Frc consts  --      1.1227                 1.8298                 1.1213
 IR Inten    --     36.1263                25.0170                 2.2737

                     49                     50                     51
                      A                      A                      A
 Frequencies --   1238.2675              1259.8212              1266.5313
 Red. masses --      1.7059                 2.2281                 1.6891
 Frc consts  --      1.5411                 2.0835                 1.5964
 IR Inten    --    100.7362                19.8740               136.7371

                     52                     53                     54
                      A                      A                      A
 Frequencies --   1277.6104              1304.6218              1320.8921
 Red. masses --      1.5103                 1.2774                 1.3364
 Frc consts  --      1.4525                 1.2810                 1.3738
 IR Inten    --     24.9050                 3.9562                44.9691

                     55                     56                     57
                      A                      A                      A
 Frequencies --   1354.7728              1366.1736              1378.4822
 Red. masses --      1.9403                 1.4898                 1.5525
 Frc consts  --      2.0983                 1.6383                 1.7382
 IR Inten    --    298.6542                 5.9271               148.6552

                     58                     59                     60
                      A                      A                      A
 Frequencies --   1388.4807              1397.5003              1406.7170
 Red. masses --      3.6953                 1.2237                 1.4273
 Frc consts  --      4.1974                 1.4081                 1.6641
 IR Inten    --     25.0876                 5.1212                49.2341

                     61                     62                     63
                      A                      A                      A
 Frequencies --   1426.9597              1453.1890              1477.8515
 Red. masses --      2.7448                 1.1233                 1.3140
 Frc consts  --      3.2930                 1.3976                 1.6908
 IR Inten    --     31.9735                 8.4229                29.3868

                     64                     65                     66
                      A                      A                      A
 Frequencies --   1479.4753              1487.4623              1500.1507
 Red. masses --      1.2093                 1.0899                 3.1365
 Frc consts  --      1.5596                 1.4207                 4.1587
 IR Inten    --     10.9492                 8.4026                22.8590

                     67                     68                     69
                      A                      A                      A
 Frequencies --   1599.5464              1655.2999              1755.9685
 Red. masses --      4.2435                 1.0953                 7.9064
 Frc consts  --      6.3969                 1.7683                14.3636
 IR Inten    --     13.4722                27.8793               426.0792

                     70                     71                     72
                      A                      A                      A
 Frequencies --   1819.6567              3011.0081              3024.4202
 Red. masses --      9.9567                 1.0611                 1.0678
 Frc consts  --     19.4242                 5.6679                 5.7548
 IR Inten    --    263.8986                21.7279                21.6287

                     73                     74                     75
                      A                      A                      A
 Frequencies --   3043.0158              3050.4688              3085.3518
 Red. masses --      1.0839                 1.0781                 1.0834
 Frc consts  --      5.9136                 5.9110                 6.0762
 IR Inten    --      7.4829                32.1292                 8.1558

                     76                     77                     78
                      A                      A                      A
 Frequencies --   3091.6386              3092.8060              3232.1214
 Red. masses --      1.0938                 1.1014                 1.0960
 Frc consts  --      6.1597                 6.2074                 6.7461
 IR Inten    --      2.8482                15.0040                 6.4481

                     79                     80                     81
                      A                      A                      A
 Frequencies --   3246.3847              3512.8061              3535.3587
 Red. masses --      1.0975                 1.0480                 1.0748
 Frc consts  --      6.8146                 7.6194                 7.9153
 IR Inten    --      1.0553                 2.2617                23.3093

                     82                     83                     84
                      A                      A                      A
 Frequencies --   3587.5953              3598.8507              3659.5004
 Red. masses --      1.0822                 1.0947                 1.0645
 Frc consts  --      8.2069                 8.3536                 8.3994
 IR Inten    --    194.0046                 7.5980               183.7133

 - Thermochemistry -
 -------------------
 Temperature   298.150 Kelvin.  Pressure   1.00000 Atm.
 Atom     1 has atomic number  8 and mass  15.99491

 Molecular mass:   226.10659 amu.
 Principal axes and moments of inertia in atomic units:
                           1         2         3
     Eigenvalues --  2341.450296474.046707813.83232
           X            0.97662  -0.18787  -0.10452
           Y            0.05380  -0.25715   0.96487
           Z            0.20815   0.94793   0.24103
 This molecule is an asymmetric top.
 Rotational symmetry number  1.
 Warning -- assumption of classical behavior for rotation
           may cause significant error
 Rotational temperatures (Kelvin)      0.03699     0.01338     0.01108
 Rotational constants (GHZ):           0.77078     0.27877     0.23097
 Zero-point vibrational energy     642181.0 (Joules/Mol)
                                  153.48494 (Kcal/Mol)
 Warning -- explicit consideration of  21 degrees of freedom as
           vibrations may cause significant error
 Vibrational temperatures:     26.55    54.42    70.72    89.80   111.89
          (Kelvin)            125.41   191.87   199.08   213.93   297.54
                              354.41   411.08   446.94   489.69   494.77
                              512.42   593.03   634.32   754.30   800.89
                              865.70   905.27   932.49   962.52   978.04
                             1040.32  1050.01  1064.36  1119.82  1142.90
                             1177.76  1196.95  1201.99  1235.31  1273.00
                             1328.55  1349.52  1409.52  1468.19  1475.44
                             1500.20  1588.77  1605.97  1624.04  1647.64
                             1670.95  1716.01  1726.64  1781.59  1812.60
                             1822.25  1838.19  1877.06  1900.47  1949.21
                             1965.62  1983.33  1997.71  2010.69  2023.95
                             2053.07  2090.81  2126.30  2128.63  2140.12
                             2158.38  2301.39  2381.60  2526.44  2618.08
                             4332.16  4351.46  4378.22  4388.94  4439.13
                             4448.17  4449.85  4650.30  4670.82  5054.14
                             5086.59  5161.74  5177.94  5265.20

 Zero-point correction=                           0.244594 (Hartree/Particle)
 Thermal correction to Energy=                    0.260328
 Thermal correction to Enthalpy=                  0.261272
 Thermal correction to Gibbs Free Energy=         0.198914
 Sum of electronic and zero-point Energies=           -796.130867
 Sum of electronic and thermal Energies=              -796.115133
 Sum of electronic and thermal Enthalpies=            -796.114189
 Sum of electronic and thermal Free Energies=         -796.176547

                     E (Thermal)             CV                S
                      KCal/Mol        Cal/Mol-Kelvin    Cal/Mol-Kelvin
 Total                  163.358             57.960            131.244
 Electronic               0.000              0.000              0.000
 Translational            0.889              2.981             42.150
 Rotational               0.889              2.981             33.138
 Vibrational            161.581             51.998             55.956
 Vibration     1          0.593              1.986              6.794
 Vibration     2          0.594              1.982              5.370
 Vibration     3          0.595              1.978              4.851
 Vibration     4          0.597              1.972              4.379
 Vibration     5          0.599              1.964              3.946
 Vibration     6          0.601              1.958              3.723
 Vibration     7          0.613              1.920              2.897
 Vibration     8          0.614              1.915              2.826
 Vibration     9          0.618              1.904              2.689
 Vibration    10          0.641              1.830              2.072
 Vibration    11          0.661              1.769              1.757
 Vibration    12          0.683              1.700              1.499
 Vibration    13          0.699              1.653              1.359
 Vibration    14          0.720              1.595              1.211
 Vibration    15          0.723              1.588              1.194
 Vibration    16          0.732              1.563              1.139
 Vibration    17          0.776              1.444              0.919
 Vibration    18          0.801              1.381              0.824
 Vibration    19          0.879              1.196              0.600
 Vibration    20          0.912              1.125              0.531
 Vibration    21          0.960              1.028              0.447

 Optimization completed.
    -- Stationary point found.
 Normal termination of Gaussian 09 at Thu Jul 29 10:33:48 2021.
