 Gaussian 09, Revision D.01,
 Gaussian 09:  ES64L-G09RevD.01 24-Apr-2013

 ----------------------------------------------------------------------
 # B3LYP/6-311++G(2df,2pd) guess=read geom=checkpoint opt=readfc freq=n
 oraman nosymm integral(ultrafinegrid)
 ----------------------------------------------------------------------

 ------------------------------------------------------------
 Candidate Structure: Conf:422 OPT and FREQ calc in gas phase
 ------------------------------------------------------------
 Structure from the checkpoint file:  "conf-422.chk"
 Charge =  0 Multiplicity = 1

 SCF Done:  E(RB3LYP) =  -796.378074640     A.U. after   13 cycles
 SCF Done:  E(RB3LYP) =  -796.378944137     A.U. after   11 cycles
 SCF Done:  E(RB3LYP) =  -796.378978560     A.U. after   11 cycles
 SCF Done:  E(RB3LYP) =  -796.378981229     A.U. after    9 cycles
 SCF Done:  E(RB3LYP) =  -796.378981401     A.U. after    8 cycles
 Optimization completed.
    -- Stationary point found.
 Normal termination of Gaussian 09 at Thu Jul 29 04:05:12 2021.

 ----------------------------------------------------------------------
 #N Geom=AllCheck Guess=TCheck SCRF=Check GenChk RB3LYP/6-311++G(2df,2p
 d) Freq
 ----------------------------------------------------------------------

 Structure from the checkpoint file:  "conf-422.chk"
 ------------------------------------------------------------
 Candidate Structure: Conf:422 OPT and FREQ calc in gas phase
 ------------------------------------------------------------
 Charge =  0 Multiplicity = 1

                          Input orientation:
 ---------------------------------------------------------------------
 Center     Atomic      Atomic             Coordinates (Angstroms)
 Number     Number       Type             X           Y           Z
 ---------------------------------------------------------------------
      1          8           0        0.805065    0.656050    1.573594
      2          6           0        1.137051    0.113927    0.533246
      3          7           0        0.315367   -0.754140   -0.134916
      4          6           0       -0.948754   -1.193245    0.405523
      5          6           0       -0.902788   -2.695974    0.658903
      6          8           0       -1.870869   -3.090236    1.509013
      7          8           0       -0.125447   -3.458308    0.146443
      8          6           0       -2.148967   -0.882298   -0.516885
      9          6           0       -2.418485    0.577510   -0.689978
     10          6           0       -2.040757    1.702600   -0.005158
     11          7           0       -2.614190    2.826388   -0.558774
     12          6           0       -3.331193    2.398232   -1.563926
     13          7           0       -3.248492    1.041833   -1.692431
     14          6           0        2.464950    0.392951   -0.147874
     15          6           0        3.572941    0.730194    0.845362
     16          7           0        4.794088    1.103476    0.127889
     17          1           0        0.709644   -1.307874   -0.877832
     18          1           0       -1.083039   -0.687064    1.360542
     19          1           0       -1.805365   -4.051886    1.604933
     20          1           0       -3.029296   -1.379871   -0.100646
     21          1           0       -1.962120   -1.346258   -1.491349
     22          1           0       -1.377632    1.768852    0.840427
     23          1           0       -3.921894    3.005836   -2.229292
     24          1           0       -3.711644    0.481754   -2.387173
     25          1           0        2.757224   -0.453579   -0.775353
     26          1           0        2.321601    1.243779   -0.819096
     27          1           0        3.707726   -0.111504    1.536705
     28          1           0        3.253354    1.579101    1.446878
     29          1           0        5.219754    0.301172   -0.320447
     30          1           0        5.482190    1.488492    0.761671
 ---------------------------------------------------------------------

 SCF Done:  E(RB3LYP) =  -796.378981401     A.U. after    1 cycles

 Alpha  occ. eigenvalues --  -19.19875 -19.14216 -19.09662 -14.37268 -14.34984
 Alpha  occ. eigenvalues --  -14.29717 -14.29189 -10.32963 -10.28036 -10.24601
 Alpha  occ. eigenvalues --  -10.22413 -10.21054 -10.21001 -10.19543 -10.18158
 Alpha  occ. eigenvalues --  -10.17804  -1.13996  -1.05327  -1.04858  -1.02081
 Alpha  occ. eigenvalues --   -0.94502  -0.88831  -0.87644  -0.82114  -0.76919
 Alpha  occ. eigenvalues --   -0.74706  -0.69242  -0.65636  -0.62079  -0.61683
 Alpha  occ. eigenvalues --   -0.60074  -0.58960  -0.55506  -0.53149  -0.52035
 Alpha  occ. eigenvalues --   -0.51062  -0.49213  -0.49117  -0.48575  -0.46288
 Alpha  occ. eigenvalues --   -0.45941  -0.44898  -0.44070  -0.43110  -0.42612
 Alpha  occ. eigenvalues --   -0.41665  -0.40993  -0.40653  -0.39596  -0.38924
 Alpha  occ. eigenvalues --   -0.36482  -0.35592  -0.35283  -0.31320  -0.28878
 Alpha  occ. eigenvalues --   -0.27950  -0.27281  -0.26832  -0.24883  -0.23272
 Alpha virt. eigenvalues --   -0.02698  -0.02548  -0.01579  -0.01110  -0.00079
 Alpha virt. eigenvalues --    0.00472   0.00975   0.01261   0.02026   0.02287
 Alpha virt. eigenvalues --    0.02461   0.03328   0.04064   0.04503   0.04932

 Mulliken charges:
               1
     1  O   -0.390256
     2  C   -0.177211
     3  N    0.194846
     4  C   -0.173026
     5  C    0.197405
     6  O   -0.175185
     7  O   -0.368629
     8  C   -0.063251
     9  C    0.323167
    10  C   -0.412043
    11  N   -0.280079
    12  C    0.141903
    13  N   -0.032263
    14  C    0.257433
    15  C   -0.243464
    16  N   -0.167245
    17  H    0.151971
    18  H    0.138527
    19  H    0.231421
    20  H    0.070742
    21  H    0.053005
    22  H    0.097825
    23  H    0.108097
    24  H    0.124384
    25  H    0.001791
    26  H    0.079930
    27  H    0.040826
    28  H    0.068028
    29  H    0.093971
    30  H    0.107379
 Sum of Mulliken charges =   0.00000

 Dipole moment (field-independent basis, Debye):
    X=             -1.2141    Y=             -5.0060    Z=             -2.8184  Tot=              5.8718
 Quadrupole moment (field-independent basis, Debye-Ang):
   XX=            -77.3426   YY=           -106.0242   ZZ=            -90.5086
   XY=              8.1051   XZ=             11.5847   YZ=             -4.5258

  Exact polarizability: 157.716   0.264 158.405  11.309  -4.641 127.221
 Approx polarizability: 200.611  -1.106 228.612  10.440  14.003 209.600

                      1                      2                      3
                      A                      A                      A
 Frequencies --     18.3714                34.0218                46.8658
 Red. masses --      3.7472                 2.8713                 9.8025
 Frc consts  --      0.0007                 0.0020                 0.0127
 IR Inten    --      1.1409                 2.5762                 2.2259

                      4                      5                      6
                      A                      A                      A
 Frequencies --     48.7740                57.5199                67.2259
 Red. masses --      3.8338                 6.3518                 3.7711
 Frc consts  --      0.0054                 0.0124                 0.0100
 IR Inten    --      3.8810                10.4822                 1.5771

                      7                      8                      9
                      A                      A                      A
 Frequencies --     90.4171                98.6853               140.2805
 Red. masses --      4.8851                 3.8410                 3.8211
 Frc consts  --      0.0235                 0.0220                 0.0443
 IR Inten    --      0.2468                 5.9134                 3.9626

                     10                     11                     12
                      A                      A                      A
 Frequencies --    179.9021               216.5056               236.6723
 Red. masses --      6.4186                 2.5264                 1.7013
 Frc consts  --      0.1224                 0.0698                 0.0561
 IR Inten    --      2.1869                 7.1627                30.5610

                     13                     14                     15
                      A                      A                      A
 Frequencies --    250.8182               280.5541               307.3369
 Red. masses --      2.8176                 3.3286                 4.4199
 Frc consts  --      0.1044                 0.1544                 0.2460
 IR Inten    --     16.7746                 1.3361                 5.8390

                     16                     17                     18
                      A                      A                      A
 Frequencies --    349.0592               395.7451               445.4842
 Red. masses --      4.4946                 3.8768                 3.1872
 Frc consts  --      0.3227                 0.3577                 0.3727
 IR Inten    --      3.0860                11.7507                17.7252

                     19                     20                     21
                      A                      A                      A
 Frequencies --    490.0196               505.7236               530.0561
 Red. masses --      1.4806                 1.4164                 3.1420
 Frc consts  --      0.2095                 0.2134                 0.5201
 IR Inten    --     57.9130                81.3475                12.5014

                     22                     23                     24
                      A                      A                      A
 Frequencies --    595.7742               619.5033               649.8626
 Red. masses --      1.3266                 2.4946                 3.3633
 Frc consts  --      0.2774                 0.5641                 0.8369
 IR Inten    --     91.1464                 3.8333                48.0200

                     25                     26                     27
                      A                      A                      A
 Frequencies --    652.1910               680.4144               693.4020
 Red. masses --      3.0920                 3.2464                 3.5182
 Frc consts  --      0.7749                 0.8855                 0.9966
 IR Inten    --     18.2975                11.1340                19.6280

                     28                     29                     30
                      A                      A                      A
 Frequencies --    733.2584               785.3211               796.9887
 Red. masses --      4.2242                 3.9768                 1.3681
 Frc consts  --      1.3382                 1.4450                 0.5120
 IR Inten    --     10.0351                21.5766                31.6068

                     31                     32                     33
                      A                      A                      A
 Frequencies --    818.5417               830.3206               873.8060
 Red. masses --      1.4123                 1.3534                 1.4911
 Frc consts  --      0.5575                 0.5497                 0.6708
 IR Inten    --     19.0959                88.8823                12.0348

                     34                     35                     36
                      A                      A                      A
 Frequencies --    900.6688               918.6119               935.6522
 Red. masses --      1.8600                 3.8259                 5.8026
 Frc consts  --      0.8890                 1.9021                 2.9930
 IR Inten    --     15.1941                 9.1268                 8.1667

                     37                     38                     39
                      A                      A                      A
 Frequencies --    974.6157               992.0225              1023.5396
 Red. masses --      2.5784                 2.7211                 3.7931
 Frc consts  --      1.4430                 1.5777                 2.3413
 IR Inten    --      6.1353                 8.1692                12.4220

                     40                     41                     42
                      A                      A                      A
 Frequencies --   1057.7662              1060.7335              1091.3027
 Red. masses --      2.9812                 3.1179                 2.2363
 Frc consts  --      1.9653                 2.0669                 1.5692
 IR Inten    --     24.4803                 2.0342                38.9059

                     43                     44                     45
                      A                      A                      A
 Frequencies --   1106.1797              1113.2684              1140.1425
 Red. masses --      1.7345                 2.4284                 2.6112
 Frc consts  --      1.2505                 1.7732                 1.9999
 IR Inten    --     21.3355                72.0657                18.7155

                     46                     47                     48
                      A                      A                      A
 Frequencies --   1153.0509              1170.7659              1202.3271
 Red. masses --      1.6648                 2.0878                 1.9659
 Frc consts  --      1.3041                 1.6861                 1.6744
 IR Inten    --    134.5796                68.3041                31.5193

                     49                     50                     51
                      A                      A                      A
 Frequencies --   1227.0337              1254.4919              1266.3160
 Red. masses --      1.7020                 1.3983                 1.4485
 Frc consts  --      1.5098                 1.2966                 1.3686
 IR Inten    --     47.8492                31.7869                22.2671

                     52                     53                     54
                      A                      A                      A
 Frequencies --   1284.8519              1294.3896              1336.3326
 Red. masses --      1.3119                 1.4418                 1.1086
 Frc consts  --      1.2760                 1.4233                 1.1665
 IR Inten    --     10.6062                 1.7497                 4.4976

                     55                     56                     57
                      A                      A                      A
 Frequencies --   1337.8762              1351.4393              1368.9852
 Red. masses --      1.5746                 1.6740                 1.6354
 Frc consts  --      1.6606                 1.8014                 1.8059
 IR Inten    --      7.6950                 3.0089                12.6486

                     58                     59                     60
                      A                      A                      A
 Frequencies --   1392.5900              1409.6015              1423.8528
 Red. masses --      2.0667                 2.1934                 2.6091
 Frc consts  --      2.3614                 2.5678                 3.1165
 IR Inten    --     99.0015                19.4398                17.8095

                     61                     62                     63
                      A                      A                      A
 Frequencies --   1425.8908              1468.2621              1485.0096
 Red. masses --      1.4972                 1.0873                 1.3340
 Frc consts  --      1.7935                 1.3810                 1.7333
 IR Inten    --     41.5023                 9.7909                34.0553

                     64                     65                     66
                      A                      A                      A
 Frequencies --   1502.2023              1517.9438              1535.4234
 Red. masses --      2.5348                 1.0839                 1.7866
 Frc consts  --      3.3702                 1.4714                 2.4817
 IR Inten    --      9.9215                 1.9768               235.5988

                     67                     68                     69
                      A                      A                      A
 Frequencies --   1606.5302              1661.6382              1739.5739
 Red. masses --      4.1059                 1.0907                 8.6437
 Frc consts  --      6.2437                 1.7742                15.4113
 IR Inten    --     13.8325                24.8671               207.1598

                     70                     71                     72
                      A                      A                      A
 Frequencies --   1807.4060              2968.8278              3005.4622
 Red. masses --      9.9143                 1.0741                 1.0627
 Frc consts  --     19.0820                 5.5780                 5.6557
 IR Inten    --    282.0069                56.2381                29.9623

                     73                     74                     75
                      A                      A                      A
 Frequencies --   3025.0584              3039.3159              3061.7727
 Red. masses --      1.0611                 1.0972                 1.0977
 Frc consts  --      5.7209                 5.9717                 6.0628
 IR Inten    --     17.8768                10.2210                 8.1462

                     76                     77                     78
                      A                      A                      A
 Frequencies --   3099.0839              3099.7095              3242.9019
 Red. masses --      1.0842                 1.0901                 1.0956
 Frc consts  --      6.1350                 6.1711                 6.7887
 IR Inten    --     13.8945                 9.6575                 1.1486

                     79                     80                     81
                      A                      A                      A
 Frequencies --   3250.1595              3505.1010              3583.5096
 Red. masses --      1.0992                 1.0498                 1.0928
 Frc consts  --      6.8411                 7.5990                 8.2685
 IR Inten    --      3.1908                 0.5260                 2.3306

                     82                     83                     84
                      A                      A                      A
 Frequencies --   3620.8853              3649.3455              3747.3649
 Red. masses --      1.0767                 1.0809                 1.0643
 Frc consts  --      8.3174                 8.4811                 8.8057
 IR Inten    --     33.3936                46.3036                83.0284

 - Thermochemistry -
 -------------------
 Temperature   298.150 Kelvin.  Pressure   1.00000 Atm.
 Atom     1 has atomic number  8 and mass  15.99491

 Molecular mass:   226.10659 amu.
 Principal axes and moments of inertia in atomic units:
                           1         2         3
     Eigenvalues --  3309.007715294.190857810.08418
           X            0.97553   0.12660  -0.17976
           Y           -0.07774   0.96338   0.25664
           Z            0.20567  -0.23638   0.94964
 This molecule is an asymmetric top.
 Rotational symmetry number  1.
 Warning -- assumption of classical behavior for rotation
           may cause significant error
 Rotational temperatures (Kelvin)      0.02618     0.01636     0.01109
 Rotational constants (GHZ):           0.54540     0.34089     0.23108
 Zero-point vibrational energy     639740.2 (Joules/Mol)
                                  152.90158 (Kcal/Mol)
 Warning -- explicit consideration of  23 degrees of freedom as
           vibrations may cause significant error
 Vibrational temperatures:     26.43    48.95    67.43    70.17    82.76
          (Kelvin)             96.72   130.09   141.99   201.83   258.84
                              311.50   340.52   360.87   403.65   442.19
                              502.22   569.39   640.95   705.03   727.62
                              762.63   857.19   891.33   935.01   938.36
                              978.96   997.65  1054.99  1129.90  1146.69
                             1177.70  1194.64  1257.21  1295.86  1321.68
                             1346.19  1402.25  1427.30  1472.64  1521.89
                             1526.16  1570.14  1591.54  1601.74  1640.41
                             1658.98  1684.47  1729.88  1765.43  1804.93
                             1821.94  1848.61  1862.34  1922.68  1924.90
                             1944.42  1969.66  2003.62  2028.10  2048.60
                             2051.54  2112.50  2136.59  2161.33  2183.98
                             2209.13  2311.44  2390.72  2502.86  2600.45
                             4271.48  4324.18  4352.38  4372.89  4405.20
                             4458.88  4459.78  4665.81  4676.25  5043.05
                             5155.86  5209.64  5250.59  5391.62

 Zero-point correction=                           0.243664 (Hartree/Particle)
 Thermal correction to Energy=                    0.260206
 Thermal correction to Enthalpy=                  0.261150
 Thermal correction to Gibbs Free Energy=         0.196028
 Sum of electronic and zero-point Energies=           -796.135317
 Sum of electronic and thermal Energies=              -796.118775
 Sum of electronic and thermal Enthalpies=            -796.117831
 Sum of electronic and thermal Free Energies=         -796.182953

                     E (Thermal)             CV                S
                      KCal/Mol        Cal/Mol-Kelvin    Cal/Mol-Kelvin
 Total                  163.282             59.033            137.061
 Electronic               0.000              0.000              0.000
 Translational            0.889              2.981             42.150
 Rotational               0.889              2.981             33.281
 Vibrational            161.504             53.072             61.631
 Vibration     1          0.593              1.986              6.803
 Vibration     2          0.594              1.983              5.580
 Vibration     3          0.595              1.979              4.945
 Vibration     4          0.595              1.978              4.866
 Vibration     5          0.596              1.974              4.541
 Vibration     6          0.598              1.970              4.233
 Vibration     7          0.602              1.956              3.651
 Vibration     8          0.604              1.950              3.480
 Vibration     9          0.615              1.913              2.800
 Vibration    10          0.629              1.867              2.329
 Vibration    11          0.645              1.816              1.988
 Vibration    12          0.656              1.785              1.828
 Vibration    13          0.663              1.761              1.725
 Vibration    14          0.680              1.710              1.530
 Vibration    15          0.697              1.660              1.377
 Vibration    16          0.726              1.577              1.170
 Vibration    17          0.762              1.479              0.978
 Vibration    18          0.805              1.371              0.810
 Vibration    19          0.846              1.272              0.684
 Vibration    20          0.861              1.237              0.644
 Vibration    21          0.885              1.183              0.587
 Vibration    22          0.954              1.041              0.457
 Vibration    23          0.979              0.991              0.417

 Optimization completed.
    -- Stationary point found.
 Normal termination of Gaussian 09 at Thu Jul 29 10:09:35 2021.
