 Gaussian 09, Revision D.01,
 Gaussian 09:  ES64L-G09RevD.01 24-Apr-2013

 ----------------------------------------------------------------------
 # B3LYP/6-311++G(2df,2pd) guess=read geom=checkpoint opt=readfc freq=n
 oraman nosymm integral(ultrafinegrid)
 ----------------------------------------------------------------------

 ------------------------------------------------------------
 Candidate Structure: Conf:150 OPT and FREQ calc in gas phase
 ------------------------------------------------------------
 Structure from the checkpoint file:  "conf-150.chk"
 Charge =  0 Multiplicity = 1

 SCF Done:  E(RB3LYP) =  -796.383173369     A.U. after   12 cycles
 SCF Done:  E(RB3LYP) =  -796.384048346     A.U. after   12 cycles
 SCF Done:  E(RB3LYP) =  -796.384080137     A.U. after   11 cycles
 SCF Done:  E(RB3LYP) =  -796.384083435     A.U. after   11 cycles
 SCF Done:  E(RB3LYP) =  -796.384083653     A.U. after    9 cycles
 SCF Done:  E(RB3LYP) =  -796.384083668     A.U. after    7 cycles
 Optimization completed.
    -- Stationary point found.
 Normal termination of Gaussian 09 at Thu Jul 29 04:40:05 2021.

 ----------------------------------------------------------------------
 #N Geom=AllCheck Guess=TCheck SCRF=Check GenChk RB3LYP/6-311++G(2df,2p
 d) Freq
 ----------------------------------------------------------------------

 Structure from the checkpoint file:  "conf-150.chk"
 ------------------------------------------------------------
 Candidate Structure: Conf:150 OPT and FREQ calc in gas phase
 ------------------------------------------------------------
 Charge =  0 Multiplicity = 1

                          Input orientation:
 ---------------------------------------------------------------------
 Center     Atomic      Atomic             Coordinates (Angstroms)
 Number     Number       Type             X           Y           Z
 ---------------------------------------------------------------------
      1          8           0       -1.099662   -1.875982   -0.866799
      2          6           0       -1.272358   -0.752271   -0.421696
      3          7           0       -0.385442   -0.175550    0.440747
      4          6           0        0.723095   -0.923460    1.000290
      5          6           0        1.071313   -0.304977    2.342246
      6          8           0        2.040148   -0.990951    2.971600
      7          8           0        0.548722    0.677216    2.803336
      8          6           0        1.956128   -1.005336    0.058727
      9          6           0        2.635418    0.291138   -0.220395
     10          6           0        3.828481    0.810235    0.212870
     11          7           0        4.049515    2.056489   -0.322173
     12          6           0        3.006525    2.301114   -1.074821
     13          7           0        2.119609    1.266347   -1.051110
     14          6           0       -2.453631    0.113859   -0.826333
     15          6           0       -3.744006   -0.692983   -0.955403
     16          7           0       -4.813930    0.151170   -1.489523
     17          1           0       -0.631803    0.673605    0.926634
     18          1           0        0.397107   -1.951369    1.178997
     19          1           0        2.229942   -0.535066    3.804660
     20          1           0        1.607186   -1.477088   -0.860937
     21          1           0        2.678562   -1.683813    0.509193
     22          1           0        4.541706    0.345540    0.873061
     23          1           0        2.837514    3.193937   -1.653529
     24          1           0        1.242489    1.217864   -1.539705
     25          1           0       -2.227865    0.558314   -1.799255
     26          1           0       -2.585775    0.941022   -0.124380
     27          1           0       -3.570194   -1.511884   -1.651129
     28          1           0       -3.983877   -1.147924    0.014673
     29          1           0       -5.122974    0.834056   -0.808368
     30          1           0       -5.621632   -0.403641   -1.740942
 ---------------------------------------------------------------------

 SCF Done:  E(RB3LYP) =  -796.384083668     A.U. after    2 cycles

 Alpha  occ. eigenvalues --  -19.20051 -19.14496 -19.10409 -14.37389 -14.35634
 Alpha  occ. eigenvalues --  -14.30473 -14.29573 -10.33351 -10.28730 -10.24927
 Alpha  occ. eigenvalues --  -10.22705 -10.21060 -10.20448 -10.20254 -10.19059
 Alpha  occ. eigenvalues --  -10.18469  -1.14307  -1.05917  -1.05317  -1.02350
 Alpha  occ. eigenvalues --   -0.94945  -0.89629  -0.87904  -0.82123  -0.77558
 Alpha  occ. eigenvalues --   -0.75088  -0.69523  -0.66067  -0.62409  -0.61875
 Alpha  occ. eigenvalues --   -0.60715  -0.59797  -0.54646  -0.54385  -0.52241
 Alpha  occ. eigenvalues --   -0.51271  -0.50737  -0.49447  -0.48152  -0.46686
 Alpha  occ. eigenvalues --   -0.46329  -0.45281  -0.44439  -0.43600  -0.43083
 Alpha  occ. eigenvalues --   -0.41552  -0.41405  -0.40882  -0.40167  -0.39489
 Alpha  occ. eigenvalues --   -0.37016  -0.36121  -0.35797  -0.31648  -0.29268
 Alpha  occ. eigenvalues --   -0.28760  -0.27762  -0.27526  -0.25678  -0.23595
 Alpha virt. eigenvalues --   -0.03056  -0.02352  -0.01529  -0.01191  -0.00428
 Alpha virt. eigenvalues --    0.00116   0.00653   0.01423   0.01650   0.02017
 Alpha virt. eigenvalues --    0.02737   0.03279   0.03645   0.04101   0.04354

 Mulliken charges:
               1
     1  O   -0.408498
     2  C   -0.237081
     3  N    0.132218
     4  C   -0.121363
     5  C    0.247342
     6  O   -0.178453
     7  O   -0.376715
     8  C    0.233290
     9  C    0.074145
    10  C   -0.398251
    11  N   -0.280219
    12  C    0.095461
    13  N   -0.014818
    14  C    0.238520
    15  C   -0.211607
    16  N   -0.167391
    17  H    0.161544
    18  H    0.073401
    19  H    0.242469
    20  H    0.084372
    21  H    0.103791
    22  H    0.068868
    23  H    0.102421
    24  H    0.144065
    25  H    0.061425
    26  H    0.018682
    27  H    0.068080
    28  H    0.039129
    29  H    0.094551
    30  H    0.110619
 Sum of Mulliken charges =   0.00000

 Dipole moment (field-independent basis, Debye):
    X=             -2.9790    Y=             -0.5001    Z=              1.3342  Tot=              3.3023
 Quadrupole moment (field-independent basis, Debye-Ang):
   XX=           -100.6819   YY=           -103.1740   ZZ=            -91.6592
   XY=            -11.4580   XZ=              1.5285   YZ=             -7.8729

  Exact polarizability: 169.120   8.957 141.118  18.808  -7.285 132.688
 Approx polarizability: 217.214   3.540 228.646  23.732  -1.912 194.815

                      1                      2                      3
                      A                      A                      A
 Frequencies --     21.1664                27.0203                48.0160
 Red. masses --      4.0073                 4.1835                 7.1074
 Frc consts  --      0.0011                 0.0018                 0.0097
 IR Inten    --      0.8168                 1.7619                 9.2114

                      4                      5                      6
                      A                      A                      A
 Frequencies --     50.0459                64.0400                70.5643
 Red. masses --      3.0669                 7.1350                 7.4826
 Frc consts  --      0.0045                 0.0172                 0.0220
 IR Inten    --      3.5065                 0.0660                 2.3071

                      7                      8                      9
                      A                      A                      A
 Frequencies --     76.9552               119.5909               132.6934
 Red. masses --      2.8949                 4.7405                 4.2489
 Frc consts  --      0.0101                 0.0399                 0.0441
 IR Inten    --      1.9281                 2.9632                 6.2428

                     10                     11                     12
                      A                      A                      A
 Frequencies --    189.9074               216.4584               239.7403
 Red. masses --      4.9769                 2.5979                 1.5701
 Frc consts  --      0.1058                 0.0717                 0.0532
 IR Inten    --      1.6971                 9.6190                38.5083

                     13                     14                     15
                      A                      A                      A
 Frequencies --    261.4467               306.9428               326.9969
 Red. masses --      4.1629                 5.1135                 5.7327
 Frc consts  --      0.1677                 0.2838                 0.3612
 IR Inten    --     14.5333                 1.3938                 1.6626

                     16                     17                     18
                      A                      A                      A
 Frequencies --    365.0330               395.3400               475.1876
 Red. masses --      2.2862                 3.6392                 3.1905
 Frc consts  --      0.1795                 0.3351                 0.4245
 IR Inten    --      2.4696                 4.7677                14.4950

                     19                     20                     21
                      A                      A                      A
 Frequencies --    512.2182               540.3720               575.9891
 Red. masses --      1.3271                 3.0816                 1.4661
 Frc consts  --      0.2051                 0.5302                 0.2866
 IR Inten    --    116.2744                24.8272                17.6688

                     22                     23                     24
                      A                      A                      A
 Frequencies --    592.2003               610.6561               644.1091
 Red. masses --      2.9270                 1.9935                 2.2675
 Frc consts  --      0.6048                 0.4380                 0.5543
 IR Inten    --     37.5633                82.8780                 2.8782

                     25                     26                     27
                      A                      A                      A
 Frequencies --    655.0223               682.4279               707.6237
 Red. masses --      2.2884                 2.7876                 3.4943
 Frc consts  --      0.5785                 0.7649                 1.0309
 IR Inten    --     12.7358                 4.8463                43.7366

                     28                     29                     30
                      A                      A                      A
 Frequencies --    739.6911               777.0793               803.4913
 Red. masses --      4.1971                 2.3333                 1.5905
 Frc consts  --      1.3530                 0.8301                 0.6050
 IR Inten    --      7.9542                36.8615                18.9163

                     31                     32                     33
                      A                      A                      A
 Frequencies --    824.6028               829.8860               857.7026
 Red. masses --      1.4302                 1.3666                 1.6845
 Frc consts  --      0.5730                 0.5545                 0.7301
 IR Inten    --     19.3022                96.1807                17.2105

                     34                     35                     36
                      A                      A                      A
 Frequencies --    870.5291               920.2530               936.0601
 Red. masses --      2.1934                 3.9183                 5.0151
 Frc consts  --      0.9793                 1.9551                 2.5890
 IR Inten    --      2.3300                 9.7447                12.8077

                     37                     38                     39
                      A                      A                      A
 Frequencies --    965.9408               980.4359              1019.2389
 Red. masses --      3.0049                 2.1410                 2.9783
 Frc consts  --      1.6519                 1.2126                 1.8229
 IR Inten    --      5.5553                 5.1249                24.0821

                     40                     41                     42
                      A                      A                      A
 Frequencies --   1027.4105              1059.1477              1088.0236
 Red. masses --      3.2017                 2.8018                 2.2296
 Frc consts  --      1.9912                 1.8518                 1.5551
 IR Inten    --      1.5038                16.9056                31.9366

                     43                     44                     45
                      A                      A                      A
 Frequencies --   1107.2586              1109.8798              1141.9140
 Red. masses --      1.6585                 2.3740                 2.1822
 Frc consts  --      1.1980                 1.7230                 1.6765
 IR Inten    --     11.3187                62.2318                13.8523

                     46                     47                     48
                      A                      A                      A
 Frequencies --   1155.6485              1174.8929              1212.9416
 Red. masses --      1.5796                 2.3245                 1.3887
 Frc consts  --      1.2430                 1.8905                 1.2038
 IR Inten    --     75.4499               151.3871                 1.3714

                     49                     50                     51
                      A                      A                      A
 Frequencies --   1235.2606              1249.3845              1260.5815
 Red. masses --      1.7921                 2.0590                 1.4528
 Frc consts  --      1.6112                 1.8937                 1.3602
 IR Inten    --     49.7657                11.7212                 2.1271

                     52                     53                     54
                      A                      A                      A
 Frequencies --   1268.0506              1293.4956              1313.4732
 Red. masses --      1.5291                 1.3199                 1.4246
 Frc consts  --      1.4486                 1.3011                 1.4481
 IR Inten    --     15.1515                 2.2324                 1.4547

                     55                     56                     57
                      A                      A                      A
 Frequencies --   1337.2573              1361.5664              1377.4141
 Red. masses --      1.1122                 1.4930                 2.0353
 Frc consts  --      1.1719                 1.6307                 2.2751
 IR Inten    --      6.9077                 9.0440                12.9424

                     58                     59                     60
                      A                      A                      A
 Frequencies --   1392.2142              1407.7399              1422.2120
 Red. masses --      1.8818                 2.3163                 1.7120
 Frc consts  --      2.1490                 2.7045                 2.0402
 IR Inten    --     24.2363               126.2999                28.2123

                     61                     62                     63
                      A                      A                      A
 Frequencies --   1423.9382              1472.8516              1485.8705
 Red. masses --      2.2191                 1.0935                 1.1548
 Frc consts  --      2.6510                 1.3976                 1.5022
 IR Inten    --     37.3889                 9.1875                11.1181

                     64                     65                     66
                      A                      A                      A
 Frequencies --   1497.9875              1518.3946              1518.8615
 Red. masses --      3.3128                 1.8706                 1.1470
 Frc consts  --      4.3799                 2.5410                 1.5591
 IR Inten    --     79.9272               227.0700                42.1531

                     67                     68                     69
                      A                      A                      A
 Frequencies --   1605.4511              1662.3378              1730.1506
 Red. masses --      4.3342                 1.0909                 9.0922
 Frc consts  --      6.5819                 1.7762                16.0356
 IR Inten    --      7.5209                24.8475               251.0840

                     70                     71                     72
                      A                      A                      A
 Frequencies --   1803.4577              2963.8927              3027.6473
 Red. masses --      9.8690                 1.0740                 1.0591
 Frc consts  --     18.9118                 5.5588                 5.7202
 IR Inten    --    229.6240                56.5268                16.5901

                     73                     74                     75
                      A                      A                      A
 Frequencies --   3043.7975              3059.5964              3062.4824
 Red. masses --      1.0809                 1.0656                 1.1000
 Frc consts  --      5.9000                 5.8773                 6.0783
 IR Inten    --     10.5406                 7.2668                10.7973

                     76                     77                     78
                      A                      A                      A
 Frequencies --   3098.9536              3109.3235              3238.7740
 Red. masses --      1.0907                 1.0996                 1.0954
 Frc consts  --      6.1716                 6.2635                 6.7702
 IR Inten    --     13.6599                 5.3672                 5.5391

                     79                     80                     81
                      A                      A                      A
 Frequencies --   3245.4586              3506.1369              3584.2711
 Red. masses --      1.0981                 1.0498                 1.0929
 Frc consts  --      6.8145                 7.6034                 8.2727
 IR Inten    --      0.8415                 0.4951                 2.6304

                     82                     83                     84
                      A                      A                      A
 Frequencies --   3593.6126              3655.4689              3753.5402
 Red. masses --      1.0773                 1.0811                 1.0644
 Frc consts  --      8.1969                 8.5112                 8.8353
 IR Inten    --     67.6541                51.1439                94.0190

 - Thermochemistry -
 -------------------
 Temperature   298.150 Kelvin.  Pressure   1.00000 Atm.
 Atom     1 has atomic number  8 and mass  15.99491

 Molecular mass:   226.10659 amu.
 Principal axes and moments of inertia in atomic units:
                           1         2         3
     Eigenvalues --  2305.719756401.162767520.16166
           X            0.95675  -0.09449  -0.27515
           Y            0.19605  -0.48937   0.84975
           Z            0.21494   0.86694   0.44968
 This molecule is an asymmetric top.
 Rotational symmetry number  1.
 Warning -- assumption of classical behavior for rotation
           may cause significant error
 Rotational temperatures (Kelvin)      0.03756     0.01353     0.01152
 Rotational constants (GHZ):           0.78272     0.28194     0.23999
 Zero-point vibrational energy     640544.6 (Joules/Mol)
                                  153.09384 (Kcal/Mol)
 Warning -- explicit consideration of  23 degrees of freedom as
           vibrations may cause significant error
 Vibrational temperatures:     30.45    38.88    69.08    72.00    92.14
          (Kelvin)            101.53   110.72   172.06   190.92   273.23
                              311.43   344.93   376.16   441.62   470.48
                              525.20   568.81   683.69   736.97   777.47
                              828.72   852.04   878.60   926.73   942.43
                              981.86  1018.11  1064.25  1118.04  1156.04
                             1186.42  1194.02  1234.04  1252.50  1324.04
                             1346.78  1389.77  1410.63  1466.46  1478.21
                             1523.88  1565.42  1593.10  1596.87  1642.96
                             1662.72  1690.41  1745.15  1777.26  1797.58
                             1813.69  1824.44  1861.05  1889.79  1924.01
                             1958.99  1981.79  2003.08  2025.42  2046.24
                             2048.73  2119.10  2137.83  2155.27  2184.63
                             2185.30  2309.88  2391.73  2489.30  2594.77
                             4264.38  4356.10  4379.34  4402.07  4406.22
                             4458.70  4473.62  4659.87  4669.49  5044.54
                             5156.96  5170.40  5259.40  5400.50

 Zero-point correction=                           0.243971 (Hartree/Particle)
 Thermal correction to Energy=                    0.260310
 Thermal correction to Enthalpy=                  0.261255
 Thermal correction to Gibbs Free Energy=         0.196691
 Sum of electronic and zero-point Energies=           -796.140113
 Sum of electronic and thermal Energies=              -796.123773
 Sum of electronic and thermal Enthalpies=            -796.122829
 Sum of electronic and thermal Free Energies=         -796.187393

                     E (Thermal)             CV                S
                      KCal/Mol        Cal/Mol-Kelvin    Cal/Mol-Kelvin
 Total                  163.347             58.699            135.886
 Electronic               0.000              0.000              0.000
 Translational            0.889              2.981             42.150
 Rotational               0.889              2.981             33.073
 Vibrational            161.570             52.737             60.663
 Vibration     1          0.593              1.985              6.522
 Vibration     2          0.593              1.984              6.037
 Vibration     3          0.595              1.978              4.897
 Vibration     4          0.595              1.978              4.816
 Vibration     5          0.597              1.971              4.329
 Vibration     6          0.598              1.968              4.138
 Vibration     7          0.599              1.965              3.967
 Vibration     8          0.609              1.933              3.107
 Vibration     9          0.613              1.921              2.907
 Vibration    10          0.633              1.854              2.229
 Vibration    11          0.645              1.816              1.989
 Vibration    12          0.657              1.780              1.805
 Vibration    13          0.669              1.743              1.652
 Vibration    14          0.697              1.661              1.379
 Vibration    15          0.711              1.622              1.275
 Vibration    16          0.738              1.544              1.101
 Vibration    17          0.762              1.480              0.980
 Vibration    18          0.832              1.305              0.723
 Vibration    19          0.867              1.223              0.628
 Vibration    20          0.895              1.161              0.564
 Vibration    21          0.932              1.083              0.493
 Vibration    22          0.950              1.048              0.463
 Vibration    23          0.970              1.009              0.432

 Optimization completed.
    -- Stationary point found.
 Normal termination of Gaussian 09 at Thu Jul 29 10:55:49 2021.
