 Gaussian 09, Revision D.01,
 Gaussian 09:  ES64L-G09RevD.01 24-Apr-2013

 ----------------------------------------------------------------------
 # B3LYP/6-311++G(2df,2pd) guess=read geom=checkpoint opt=readfc freq=n
 oraman nosymm integral(ultrafinegrid)
 ----------------------------------------------------------------------

 ------------------------------------------------------------
 Candidate Structure: Conf:338 OPT and FREQ calc in gas phase
 ------------------------------------------------------------
 Structure from the checkpoint file:  "conf-338.chk"
 Charge =  0 Multiplicity = 1

 SCF Done:  E(RB3LYP) =  -796.389690356     A.U. after   13 cycles
 SCF Done:  E(RB3LYP) =  -796.390488372     A.U. after   12 cycles
 SCF Done:  E(RB3LYP) =  -796.390507012     A.U. after   11 cycles
 SCF Done:  E(RB3LYP) =  -796.390510235     A.U. after   10 cycles
 SCF Done:  E(RB3LYP) =  -796.390510463     A.U. after    9 cycles
 SCF Done:  E(RB3LYP) =  -796.390510465     A.U. after    7 cycles
 Optimization completed.
    -- Stationary point found.
 Normal termination of Gaussian 09 at Thu Jul 29 04:47:19 2021.

 ----------------------------------------------------------------------
 #N Geom=AllCheck Guess=TCheck SCRF=Check GenChk RB3LYP/6-311++G(2df,2p
 d) Freq
 ----------------------------------------------------------------------

 Structure from the checkpoint file:  "conf-338.chk"
 ------------------------------------------------------------
 Candidate Structure: Conf:338 OPT and FREQ calc in gas phase
 ------------------------------------------------------------
 Charge =  0 Multiplicity = 1

                          Input orientation:
 ---------------------------------------------------------------------
 Center     Atomic      Atomic             Coordinates (Angstroms)
 Number     Number       Type             X           Y           Z
 ---------------------------------------------------------------------
      1          8           0        0.584289    0.544404    1.730212
      2          6           0        1.295879    0.072072    0.843082
      3          7           0        0.797601   -0.578132   -0.227546
      4          6           0       -0.622606   -0.802540   -0.399979
      5          6           0       -0.804931   -1.926223   -1.400200
      6          8           0       -2.074047   -2.374539   -1.404029
      7          8           0        0.051780   -2.361967   -2.125395
      8          6           0       -1.416350    0.478249   -0.865342
      9          6           0       -2.460494    0.943331    0.088336
     10          6           0       -3.806252    1.169113   -0.051648
     11          7           0       -4.347922    1.626060    1.125118
     12          6           0       -3.343914    1.672202    1.970376
     13          7           0       -2.178929    1.274304    1.394779
     14          6           0        2.813128    0.182098    0.933497
     15          6           0        3.580265    0.374223   -0.377302
     16          7           0        3.486301   -0.812409   -1.236397
     17          1           0        1.452271   -0.961694   -0.908551
     18          1           0       -1.047108   -1.131690    0.548467
     19          1           0       -2.141112   -3.062369   -2.082149
     20          1           0       -1.895938    0.295008   -1.825834
     21          1           0       -0.669735    1.256723   -1.034162
     22          1           0       -4.408326    1.028530   -0.934148
     23          1           0       -3.402849    1.981303    3.000726
     24          1           0       -1.259770    1.170188    1.814192
     25          1           0        3.014621    1.014730    1.605239
     26          1           0        3.176344   -0.717599    1.441229
     27          1           0        3.155375    1.215698   -0.927602
     28          1           0        4.612852    0.647332   -0.132061
     29          1           0        4.017270   -1.586576   -0.855600
     30          1           0        3.842245   -0.629786   -2.165528
 ---------------------------------------------------------------------

 SCF Done:  E(RB3LYP) =  -796.390510465     A.U. after    1 cycles

 Alpha  occ. eigenvalues --  -19.19427 -19.13886 -19.10490 -14.34719 -14.34594
 Alpha  occ. eigenvalues --  -14.32548 -14.27822 -10.32782 -10.28730 -10.24438
 Alpha  occ. eigenvalues --  -10.22362 -10.20813 -10.19865 -10.19531 -10.19283
 Alpha  occ. eigenvalues --  -10.16881  -1.13686  -1.05587  -1.04762  -1.00309
 Alpha  occ. eigenvalues --   -0.94551  -0.91464  -0.85926  -0.81198  -0.77694
 Alpha  occ. eigenvalues --   -0.74393  -0.68335  -0.66360  -0.63215  -0.60078
 Alpha  occ. eigenvalues --   -0.59547  -0.57899  -0.54680  -0.53909  -0.52682
 Alpha  occ. eigenvalues --   -0.51394  -0.49702  -0.48497  -0.48173  -0.47730
 Alpha  occ. eigenvalues --   -0.46461  -0.44607  -0.43310  -0.43155  -0.42296
 Alpha  occ. eigenvalues --   -0.41609  -0.40161  -0.39916  -0.39518  -0.39215
 Alpha  occ. eigenvalues --   -0.38557  -0.36656  -0.35242  -0.31069  -0.28512
 Alpha  occ. eigenvalues --   -0.28293  -0.27380  -0.27112  -0.25916  -0.21927
 Alpha virt. eigenvalues --   -0.02763  -0.02504  -0.01597  -0.00600  -0.00080
 Alpha virt. eigenvalues --    0.00587   0.00922   0.01748   0.01960   0.02633
 Alpha virt. eigenvalues --    0.03101   0.03635   0.03972   0.04530   0.04766

 Mulliken charges:
               1
     1  O   -0.450060
     2  C    0.066884
     3  N    0.061204
     4  C   -0.080532
     5  C    0.240526
     6  O   -0.184653
     7  O   -0.394376
     8  C   -0.176018
     9  C    0.433664
    10  C   -0.352501
    11  N   -0.296322
    12  C    0.105866
    13  N   -0.139334
    14  C   -0.055282
    15  C   -0.163655
    16  N   -0.181994
    17  H    0.248149
    18  H    0.101339
    19  H    0.239029
    20  H    0.066495
    21  H    0.051699
    22  H    0.058059
    23  H    0.097558
    24  H    0.282027
    25  H    0.039179
    26  H    0.054915
    27  H    0.054178
    28  H    0.058255
    29  H    0.101575
    30  H    0.114127
 Sum of Mulliken charges =   0.00000

 Dipole moment (field-independent basis, Debye):
    X=              6.6687    Y=             -2.1099    Z=             -2.3880  Tot=              7.3910
 Quadrupole moment (field-independent basis, Debye-Ang):
   XX=           -101.6847   YY=            -95.5190   ZZ=            -93.4774
   XY=             11.0824   XZ=              6.4632   YZ=             -1.5516

  Exact polarizability: 180.332 -11.345 123.870  -8.519  25.366 143.512
 Approx polarizability: 237.685 -12.453 181.056  -9.191  30.168 225.008

                      1                      2                      3
                      A                      A                      A
 Frequencies --     24.5638                46.2550                53.6905
 Red. masses --      4.8453                 6.7393                 7.1514
 Frc consts  --      0.0017                 0.0085                 0.0121
 IR Inten    --      0.4362                 1.8252                 2.6892

                      4                      5                      6
                      A                      A                      A
 Frequencies --     71.9814                80.2626                97.7891
 Red. masses --      3.4707                 4.5245                 4.5125
 Frc consts  --      0.0106                 0.0172                 0.0254
 IR Inten    --      0.2866                 0.5623                 5.6875

                      7                      8                      9
                      A                      A                      A
 Frequencies --    109.0071               121.9356               174.7486
 Red. masses --      6.3423                 6.0885                 2.7165
 Frc consts  --      0.0444                 0.0533                 0.0489
 IR Inten    --      6.8596                 4.5733                 6.8815

                     10                     11                     12
                      A                      A                      A
 Frequencies --    193.7910               233.9190               283.6237
 Red. masses --      5.5858                 3.4164                 3.6129
 Frc consts  --      0.1236                 0.1101                 0.1712
 IR Inten    --      2.3349                 4.6102                 5.0046

                     13                     14                     15
                      A                      A                      A
 Frequencies --    292.1101               302.8539               327.1679
 Red. masses --      1.2488                 3.8890                 4.0568
 Frc consts  --      0.0628                 0.2102                 0.2558
 IR Inten    --     10.1193                 3.9078                 0.4282

                     16                     17                     18
                      A                      A                      A
 Frequencies --    352.4119               415.6322               461.9368
 Red. masses --      4.7030                 3.5178                 2.5804
 Frc consts  --      0.3441                 0.3580                 0.3244
 IR Inten    --      3.9209                 7.7470                22.5468

                     19                     20                     21
                      A                      A                      A
 Frequencies --    515.9913               586.9380               609.2561
 Red. masses --      3.2249                 1.3845                 3.3998
 Frc consts  --      0.5059                 0.2810                 0.7435
 IR Inten    --     37.1567                86.2076                 5.1924

                     22                     23                     24
                      A                      A                      A
 Frequencies --    636.2293               650.8625               678.0439
 Red. masses --      4.0890                 3.5182                 3.3663
 Frc consts  --      0.9752                 0.8781                 0.9118
 IR Inten    --     27.1869                 3.2245                50.3940

                     25                     26                     27
                      A                      A                      A
 Frequencies --    698.2437               720.1921               770.0383
 Red. masses --      3.3727                 3.3981                 3.3748
 Frc consts  --      0.9688                 1.0385                 1.1790
 IR Inten    --     17.3088                 9.7397                 1.4813

                     28                     29                     30
                      A                      A                      A
 Frequencies --    783.9066               791.9740               830.8680
 Red. masses --      1.1098                 1.2268                 1.4327
 Frc consts  --      0.4018                 0.4533                 0.5828
 IR Inten    --     50.3477                33.3480                21.4319

                     31                     32                     33
                      A                      A                      A
 Frequencies --    834.1604               842.9106               860.3209
 Red. masses --      1.3274                 1.8236                 1.9931
 Frc consts  --      0.5442                 0.7634                 0.8691
 IR Inten    --     95.9967                12.5498                26.1841

                     34                     35                     36
                      A                      A                      A
 Frequencies --    897.7442               909.9054               939.6405
 Red. masses --      2.4282                 2.0520                 5.8918
 Frc consts  --      1.1530                 1.0010                 3.0649
 IR Inten    --     16.1981                 8.7238                16.4941

                     37                     38                     39
                      A                      A                      A
 Frequencies --    962.5745               981.0549              1006.1597
 Red. masses --      3.5145                 2.7658                 1.7426
 Frc consts  --      1.9186                 1.5684                 1.0394
 IR Inten    --      8.0417                 4.6700                 6.9876

                     40                     41                     42
                      A                      A                      A
 Frequencies --   1022.9192              1026.1068              1083.9494
 Red. masses --      3.6795                 2.8361                 2.6972
 Frc consts  --      2.2684                 1.7594                 1.8672
 IR Inten    --      0.8033                36.9368                 9.0402

                     43                     44                     45
                      A                      A                      A
 Frequencies --   1122.2490              1128.7639              1144.8462
 Red. masses --      3.3765                 1.8454                 1.9906
 Frc consts  --      2.5055                 1.3853                 1.5372
 IR Inten    --     62.9813                55.5096                 2.5746

                     46                     47                     48
                      A                      A                      A
 Frequencies --   1156.5757              1168.4904              1211.0424
 Red. masses --      1.3955                 2.5197                 1.2914
 Frc consts  --      1.0998                 2.0270                 1.1159
 IR Inten    --     28.7433               152.2783                 9.7350

                     49                     50                     51
                      A                      A                      A
 Frequencies --   1259.2116              1262.5159              1278.8154
 Red. masses --      1.5351                 2.1522                 1.3947
 Frc consts  --      1.4341                 2.0212                 1.3439
 IR Inten    --     17.4766                15.1663                 6.9651

                     52                     53                     54
                      A                      A                      A
 Frequencies --   1287.8809              1305.1515              1311.9237
 Red. masses --      1.2856                 1.4094                 1.3360
 Frc consts  --      1.2563                 1.4145                 1.3548
 IR Inten    --     12.5896                 1.7338                 2.5815

                     55                     56                     57
                      A                      A                      A
 Frequencies --   1327.6607              1354.9545              1371.8650
 Red. masses --      1.4677                 1.4664                 1.4051
 Frc consts  --      1.5243                 1.5862                 1.5580
 IR Inten    --     11.3370                27.7794                 5.9415

                     58                     59                     60
                      A                      A                      A
 Frequencies --   1384.8975              1406.2130              1421.6889
 Red. masses --      3.7263                 2.0808                 1.4531
 Frc consts  --      4.2107                 2.4243                 1.7304
 IR Inten    --     13.7245                62.0095                24.4620

                     61                     62                     63
                      A                      A                      A
 Frequencies --   1439.7165              1466.5586              1478.9023
 Red. masses --      2.3832                 1.0827                 1.1392
 Frc consts  --      2.9105                 1.3721                 1.4681
 IR Inten    --     76.5779                14.7920                13.9057

                     64                     65                     66
                      A                      A                      A
 Frequencies --   1501.0900              1514.5282              1559.5511
 Red. masses --      3.2270                 1.0924                 2.1214
 Frc consts  --      4.2841                 1.4763                 3.0399
 IR Inten    --     27.8863                 8.3903               319.2902

                     67                     68                     69
                      A                      A                      A
 Frequencies --   1606.4999              1657.4929              1694.6927
 Red. masses --      4.0718                 1.0901                 7.9249
 Frc consts  --      6.1915                 1.7645                13.4099
 IR Inten    --     23.7918                33.7365               342.3695

                     70                     71                     72
                      A                      A                      A
 Frequencies --   1804.9761              2986.6167              3022.2792
 Red. masses --      9.7786                 1.0719                 1.0709
 Frc consts  --     18.7703                 5.6335                 5.7633
 IR Inten    --    307.9388                72.4666                 5.4880

                     73                     74                     75
                      A                      A                      A
 Frequencies --   3039.6546              3061.2155              3072.9709
 Red. masses --      1.0663                 1.0909                 1.0839
 Frc consts  --      5.8045                 6.0232                 6.0308
 IR Inten    --     19.6354                24.3835                10.5378

                     76                     77                     78
                      A                      A                      A
 Frequencies --   3094.0762              3104.8167              3234.2458
 Red. masses --      1.0965                 1.0917                 1.0957
 Frc consts  --      6.1848                 6.2006                 6.7528
 IR Inten    --      8.9275                 7.5268                 7.9397

                     79                     80                     81
                      A                      A                      A
 Frequencies --   3244.2198              3406.6015              3486.5113
 Red. masses --      1.0974                 1.0812                 1.0852
 Frc consts  --      6.8049                 7.3928                 7.7721
 IR Inten    --      1.1031               354.0510               409.3552

                     82                     83                     84
                      A                      A                      A
 Frequencies --   3506.7034              3586.5551              3755.1808
 Red. masses --      1.0500                 1.0933                 1.0643
 Frc consts  --      7.6071                 8.2859                 8.8428
 IR Inten    --      0.6878                 6.5071                89.5837

 - Thermochemistry -
 -------------------
 Temperature   298.150 Kelvin.  Pressure   1.00000 Atm.
 Atom     1 has atomic number  8 and mass  15.99491

 Molecular mass:   226.10659 amu.
 Principal axes and moments of inertia in atomic units:
                           1         2         3
     Eigenvalues --  2360.194335420.543267254.78218
           X            0.94428   0.32632  -0.04305
           Y           -0.26350   0.67106  -0.69300
           Z           -0.19725   0.66573   0.71966
 This molecule is an asymmetric top.
 Rotational symmetry number  1.
 Warning -- assumption of classical behavior for rotation
           may cause significant error
 Rotational temperatures (Kelvin)      0.03670     0.01598     0.01194
 Rotational constants (GHZ):           0.76466     0.33294     0.24877
 Zero-point vibrational energy     643077.0 (Joules/Mol)
                                  153.69908 (Kcal/Mol)
 Warning -- explicit consideration of  21 degrees of freedom as
           vibrations may cause significant error
 Vibrational temperatures:     35.34    66.55    77.25   103.57   115.48
          (Kelvin)            140.70   156.84   175.44   251.42   278.82
                              336.56   408.07   420.28   435.74   470.72
                              507.04   598.00   664.62   742.40   844.47
                              876.58   915.39   936.44   975.55  1004.62
                             1036.19  1107.91  1127.87  1139.47  1195.43
                             1200.17  1212.76  1237.81  1291.65  1309.15
                             1351.93  1384.93  1411.52  1447.64  1471.75
                             1476.34  1559.56  1614.66  1624.04  1647.18
                             1664.05  1681.20  1742.42  1811.72  1816.48
                             1839.93  1852.97  1877.82  1887.56  1910.21
                             1949.47  1973.81  1992.56  2023.22  2045.49
                             2071.43  2110.05  2127.81  2159.73  2179.07
                             2243.84  2311.39  2384.76  2438.28  2596.95
                             4297.07  4348.38  4373.38  4404.40  4421.31
                             4451.68  4467.13  4653.35  4667.70  4901.33
                             5016.31  5045.36  5160.25  5402.86

 Zero-point correction=                           0.244935 (Hartree/Particle)
 Thermal correction to Energy=                    0.260619
 Thermal correction to Enthalpy=                  0.261563
 Thermal correction to Gibbs Free Energy=         0.199865
 Sum of electronic and zero-point Energies=           -796.145575
 Sum of electronic and thermal Energies=              -796.129891
 Sum of electronic and thermal Enthalpies=            -796.128947
 Sum of electronic and thermal Free Energies=         -796.190646

                     E (Thermal)             CV                S
                      KCal/Mol        Cal/Mol-Kelvin    Cal/Mol-Kelvin
 Total                  163.541             57.523            129.856
 Electronic               0.000              0.000              0.000
 Translational            0.889              2.981             42.150
 Rotational               0.889              2.981             32.895
 Vibrational            161.764             51.562             54.811
 Vibration     1          0.593              1.985              6.226
 Vibration     2          0.595              1.979              4.971
 Vibration     3          0.596              1.976              4.677
 Vibration     4          0.598              1.967              4.098
 Vibration     5          0.600              1.963              3.884
 Vibration     6          0.603              1.951              3.498
 Vibration     7          0.606              1.942              3.287
 Vibration     8          0.609              1.931              3.069
 Vibration     9          0.627              1.874              2.384
 Vibration    10          0.635              1.849              2.191
 Vibration    11          0.654              1.789              1.849
 Vibration    12          0.682              1.704              1.512
 Vibration    13          0.687              1.688              1.462
 Vibration    14          0.694              1.668              1.401
 Vibration    15          0.711              1.621              1.274
 Vibration    16          0.729              1.570              1.155
 Vibration    17          0.779              1.436              0.907
 Vibration    18          0.820              1.334              0.760
 Vibration    19          0.871              1.215              0.619
 Vibration    20          0.944              1.060              0.473
 Vibration    21          0.968              1.012              0.434

 Optimization completed.
    -- Stationary point found.
 Normal termination of Gaussian 09 at Thu Jul 29 11:15:11 2021.
