 Gaussian 09, Revision D.01,
 Gaussian 09:  ES64L-G09RevD.01 24-Apr-2013

 ----------------------------------------------------------------------
 # B3LYP/6-311++G(2df,2pd) guess=read geom=checkpoint opt=readfc freq=n
 oraman nosymm integral(ultrafinegrid)
 ----------------------------------------------------------------------

 ------------------------------------------------------------
 Candidate Structure: Conf:591 OPT and FREQ calc in gas phase
 ------------------------------------------------------------
 Structure from the checkpoint file:  "conf-591.chk"
 Charge =  0 Multiplicity = 1

 SCF Done:  E(RB3LYP) =  -796.386621334     A.U. after   13 cycles
 SCF Done:  E(RB3LYP) =  -796.387423178     A.U. after   12 cycles
 SCF Done:  E(RB3LYP) =  -796.387460995     A.U. after   11 cycles
 SCF Done:  E(RB3LYP) =  -796.387462832     A.U. after   11 cycles
 SCF Done:  E(RB3LYP) =  -796.387463056     A.U. after   10 cycles
 Optimization completed.
    -- Stationary point found.
 Normal termination of Gaussian 09 at Thu Jul 29 04:16:46 2021.

 ----------------------------------------------------------------------
 #N Geom=AllCheck Guess=TCheck SCRF=Check GenChk RB3LYP/6-311++G(2df,2p
 d) Freq
 ----------------------------------------------------------------------

 Structure from the checkpoint file:  "conf-591.chk"
 ------------------------------------------------------------
 Candidate Structure: Conf:591 OPT and FREQ calc in gas phase
 ------------------------------------------------------------
 Charge =  0 Multiplicity = 1

                          Input orientation:
 ---------------------------------------------------------------------
 Center     Atomic      Atomic             Coordinates (Angstroms)
 Number     Number       Type             X           Y           Z
 ---------------------------------------------------------------------
      1          8           0       -0.831963    0.236817   -1.021105
      2          6           0       -1.275499    0.096348    0.116926
      3          7           0       -0.485955   -0.242354    1.161763
      4          6           0        0.932792   -0.508397    1.029329
      5          6           0        1.366578   -1.257235    2.274407
      6          8           0        2.606941   -1.753061    2.147189
      7          8           0        0.698970   -1.382499    3.270411
      8          6           0        1.805405    0.787685    0.825535
      9          6           0        2.550250    0.837839   -0.462170
     10          6           0        3.884883    0.963757   -0.752468
     11          7           0        4.087221    0.985209   -2.110730
     12          6           0        2.890688    0.868946   -2.638752
     13          7           0        1.924204    0.780123   -1.687299
     14          6           0       -2.744762    0.295142    0.427106
     15          6           0       -3.639065   -0.599072   -0.438086
     16          7           0       -5.046616   -0.333738   -0.135723
     17          1           0       -0.883743   -0.391838    2.076813
     18          1           0        1.095358   -1.163095    0.172872
     19          1           0        2.839460   -2.192210    2.978502
     20          1           0        2.527627    0.883074    1.634881
     21          1           0        1.123601    1.635545    0.914951
     22          1           0        4.704496    1.042043   -0.057390
     23          1           0        2.667854    0.842872   -3.692451
     24          1           0        0.924942    0.645768   -1.802076
     25          1           0       -2.964393    0.120540    1.480391
     26          1           0       -2.975347    1.342588    0.214572
     27          1           0       -3.439375   -1.645447   -0.198369
     28          1           0       -3.369643   -0.452169   -1.488360
     29          1           0       -5.646748   -1.018473   -0.576968
     30          1           0       -5.328138    0.575432   -0.483059
 ---------------------------------------------------------------------

 SCF Done:  E(RB3LYP) =  -796.387463056     A.U. after    1 cycles

 Alpha  occ. eigenvalues --  -19.20450 -19.14998 -19.11383 -14.36476 -14.35182
 Alpha  occ. eigenvalues --  -14.30799 -14.28321 -10.33870 -10.29655 -10.25454
 Alpha  occ. eigenvalues --  -10.21340 -10.21065 -10.20564 -10.19845 -10.19398
 Alpha  occ. eigenvalues --  -10.17418  -1.14786  -1.06641  -1.05851  -1.00862
 Alpha  occ. eigenvalues --   -0.95718  -0.90031  -0.86486  -0.82021  -0.77701
 Alpha  occ. eigenvalues --   -0.74955  -0.69072  -0.66560  -0.62733  -0.61371
 Alpha  occ. eigenvalues --   -0.60463  -0.58507  -0.54977  -0.54711  -0.52580
 Alpha  occ. eigenvalues --   -0.51042  -0.50844  -0.49713  -0.49023  -0.47065
 Alpha  occ. eigenvalues --   -0.46314  -0.45462  -0.44157  -0.43651  -0.42417
 Alpha  occ. eigenvalues --   -0.41582  -0.40512  -0.40255  -0.39996  -0.39508
 Alpha  occ. eigenvalues --   -0.38627  -0.36331  -0.36161  -0.32223  -0.29507
 Alpha  occ. eigenvalues --   -0.29008  -0.27698  -0.26485  -0.25777  -0.22496
 Alpha virt. eigenvalues --   -0.03539  -0.02425  -0.01708  -0.00994  -0.00190
 Alpha virt. eigenvalues --    0.00276   0.00665   0.01391   0.01681   0.02636
 Alpha virt. eigenvalues --    0.02771   0.03220   0.03434   0.04450   0.04823

 Mulliken charges:
               1
     1  O   -0.437285
     2  C   -0.134627
     3  N    0.133382
     4  C   -0.110506
     5  C    0.217092
     6  O   -0.177868
     7  O   -0.401605
     8  C    0.102382
     9  C    0.210204
    10  C   -0.309266
    11  N   -0.302514
    12  C    0.096544
    13  N   -0.137089
    14  C    0.183387
    15  C   -0.197918
    16  N   -0.172968
    17  H    0.135078
    18  H    0.090968
    19  H    0.238299
    20  H    0.077375
    21  H    0.043441
    22  H    0.059792
    23  H    0.098000
    24  H    0.277607
    25  H    0.058331
    26  H    0.042182
    27  H    0.040373
    28  H    0.068283
    29  H    0.104960
    30  H    0.103966
 Sum of Mulliken charges =   0.00000

 Dipole moment (field-independent basis, Debye):
    X=             -3.7461    Y=             -1.2368    Z=              2.2830  Tot=              4.5579
 Quadrupole moment (field-independent basis, Debye-Ang):
   XX=           -105.9938   YY=            -92.7248   ZZ=            -98.4604
   XY=             -7.8289   XZ=             22.7978   YZ=              1.9350

  Exact polarizability: 181.986   3.280 109.850  -7.297 -13.297 158.820
 Approx polarizability: 234.670   0.083 166.076 -10.016 -10.578 242.288

                      1                      2                      3
                      A                      A                      A
 Frequencies --     24.0671                38.5275                53.7474
 Red. masses --      3.4507                 5.7874                 4.6097
 Frc consts  --      0.0012                 0.0051                 0.0078
 IR Inten    --      1.0606                 1.6117                 1.2533

                      4                      5                      6
                      A                      A                      A
 Frequencies --     59.1687                75.5027                81.1383
 Red. masses --      8.4411                 2.5779                 4.1502
 Frc consts  --      0.0174                 0.0087                 0.0161
 IR Inten    --      1.3245                 1.7190                 0.8029

                      7                      8                      9
                      A                      A                      A
 Frequencies --     92.2647               127.2894               139.5752
 Red. masses --      6.5040                 5.7604                 4.2922
 Frc consts  --      0.0326                 0.0550                 0.0493
 IR Inten    --      8.8545                 3.9335                 9.1103

                     10                     11                     12
                      A                      A                      A
 Frequencies --    189.1936               222.7998               233.7233
 Red. masses --      4.8131                 1.7369                 2.1922
 Frc consts  --      0.1015                 0.0508                 0.0706
 IR Inten    --      2.0858                 8.1429                42.6382

                     13                     14                     15
                      A                      A                      A
 Frequencies --    281.0141               291.3362               314.9697
 Red. masses --      3.6682                 3.3299                 3.5855
 Frc consts  --      0.1707                 0.1665                 0.2096
 IR Inten    --     10.4993                 4.1488                 3.2824

                     16                     17                     18
                      A                      A                      A
 Frequencies --    354.8533               392.6111               426.6550
 Red. masses --      6.5223                 4.1957                 3.4641
 Frc consts  --      0.4839                 0.3810                 0.3715
 IR Inten    --      0.4987                 5.1558                 4.1966

                     19                     20                     21
                      A                      A                      A
 Frequencies --    535.3074               571.1823               589.0131
 Red. masses --      2.8326                 1.3793                 1.3423
 Frc consts  --      0.4782                 0.2651                 0.2744
 IR Inten    --     58.9485                38.2741                80.6465

                     22                     23                     24
                      A                      A                      A
 Frequencies --    634.5969               648.5011               653.5617
 Red. masses --      4.6595                 3.4881                 2.3545
 Frc consts  --      1.1056                 0.8643                 0.5926
 IR Inten    --     25.0396                 2.9794                 5.6628

                     25                     26                     27
                      A                      A                      A
 Frequencies --    677.2985               718.8872               757.4733
 Red. masses --      3.3277                 3.4996                 5.0739
 Frc consts  --      0.8994                 1.0656                 1.7152
 IR Inten    --     51.7688                14.2029                10.2892

                     28                     29                     30
                      A                      A                      A
 Frequencies --    774.2597               781.3659               795.5215
 Red. masses --      1.1555                 3.0291                 1.3063
 Frc consts  --      0.4081                 1.0896                 0.4871
 IR Inten    --     47.0091                 9.9569                27.7990

                     31                     32                     33
                      A                      A                      A
 Frequencies --    832.2768               833.2329               848.1052
 Red. masses --      1.4239                 1.3494                 1.5244
 Frc consts  --      0.5811                 0.5520                 0.6460
 IR Inten    --     22.0222               108.2995                16.4964

                     34                     35                     36
                      A                      A                      A
 Frequencies --    868.6700               939.2572               943.7623
 Red. masses --      2.2051                 5.8663                 3.7272
 Frc consts  --      0.9803                 3.0492                 1.9560
 IR Inten    --     21.3387                14.7598                 7.7524

                     37                     38                     39
                      A                      A                      A
 Frequencies --    972.7245               982.0755              1021.6243
 Red. masses --      2.9167                 2.8307                 3.3053
 Frc consts  --      1.6260                 1.6086                 2.0325
 IR Inten    --      1.6956                 4.5168                14.4382

                     40                     41                     42
                      A                      A                      A
 Frequencies --   1023.1639              1047.7605              1081.2636
 Red. masses --      3.7897                 2.2604                 2.7797
 Frc consts  --      2.3375                 1.4620                 1.9148
 IR Inten    --     11.5601                 2.9205                52.9128

                     43                     44                     45
                      A                      A                      A
 Frequencies --   1124.9884              1127.8008              1144.9233
 Red. masses --      2.8060                 1.8542                 2.0178
 Frc consts  --      2.0924                 1.3896                 1.5584
 IR Inten    --     38.8329                46.3364                 3.4647

                     46                     47                     48
                      A                      A                      A
 Frequencies --   1154.9898              1174.8995              1209.9331
 Red. masses --      1.3861                 2.5025                 1.2863
 Frc consts  --      1.0895                 2.0353                 1.1095
 IR Inten    --     51.4334               150.5769                 8.1966

                     49                     50                     51
                      A                      A                      A
 Frequencies --   1236.7181              1262.5382              1277.3781
 Red. masses --      1.5454                 2.2552                 1.4069
 Frc consts  --      1.3926                 2.1180                 1.3526
 IR Inten    --     24.1817                 9.1039                 8.9041

                     52                     53                     54
                      A                      A                      A
 Frequencies --   1288.5476              1299.8236              1315.9626
 Red. masses --      1.2850                 1.3403                 1.2307
 Frc consts  --      1.2571                 1.3342                 1.2557
 IR Inten    --      9.2671                 4.7478                 1.0140

                     55                     56                     57
                      A                      A                      A
 Frequencies --   1329.5643              1355.3760              1360.8156
 Red. masses --      1.3553                 1.4558                 1.4180
 Frc consts  --      1.4115                 1.5757                 1.5471
 IR Inten    --      4.4959                42.3689                 2.1325

                     58                     59                     60
                      A                      A                      A
 Frequencies --   1385.3495              1410.9283              1421.7750
 Red. masses --      3.7469                 2.3139                 1.3918
 Frc consts  --      4.2368                 2.7140                 1.6577
 IR Inten    --     14.9960               101.2542                37.5139

                     61                     62                     63
                      A                      A                      A
 Frequencies --   1438.9509              1478.4701              1482.7946
 Red. masses --      2.4225                 1.1371                 1.1115
 Frc consts  --      2.9553                 1.4644                 1.4399
 IR Inten    --     73.8734                13.5572                 9.8815

                     64                     65                     66
                      A                      A                      A
 Frequencies --   1501.1335              1521.9979              1534.2246
 Red. masses --      3.2173                 1.0864                 2.3551
 Frc consts  --      4.2715                 1.4828                 3.2662
 IR Inten    --     28.1099                 2.8704               317.4533

                     67                     68                     69
                      A                      A                      A
 Frequencies --   1606.5860              1659.6125              1701.7854
 Red. masses --      4.0896                 1.0900                 8.2281
 Frc consts  --      6.2193                 1.7688                14.0397
 IR Inten    --     15.9024                28.4893               245.0091

                     70                     71                     72
                      A                      A                      A
 Frequencies --   1798.0991              3007.7269              3034.0715
 Red. masses --      9.6626                 1.0644                 1.0672
 Frc consts  --     18.4065                 5.6732                 5.7884
 IR Inten    --    318.0436                27.5367                 6.9297

                     73                     74                     75
                      A                      A                      A
 Frequencies --   3041.9729              3054.8998              3071.7653
 Red. masses --      1.0663                 1.0919                 1.0839
 Frc consts  --      5.8134                 6.0039                 6.0256
 IR Inten    --     17.8390                18.9054                 8.4287

                     76                     77                     78
                      A                      A                      A
 Frequencies --   3091.1333              3096.7997              3234.8718
 Red. masses --      1.1019                 1.0967                 1.0957
 Frc consts  --      6.2031                 6.1968                 6.7558
 IR Inten    --     21.6158                 8.7318                 7.4611

                     79                     80                     81
                      A                      A                      A
 Frequencies --   3244.6766              3502.7599              3503.4813
 Red. masses --      1.0975                 1.0845                 1.0500
 Frc consts  --      6.8074                 7.8399                 7.5935
 IR Inten    --      0.9878               417.5628                 0.5310

                     82                     83                     84
                      A                      A                      A
 Frequencies --   3582.6635              3594.9045              3752.3973
 Red. masses --      1.0929                 1.0777                 1.0644
 Frc consts  --      8.2647                 8.2062                 8.8299
 IR Inten    --      3.0693                82.3657                98.5095

 - Thermochemistry -
 -------------------
 Temperature   298.150 Kelvin.  Pressure   1.00000 Atm.
 Atom     1 has atomic number  8 and mass  15.99491

 Molecular mass:   226.10659 amu.
 Principal axes and moments of inertia in atomic units:
                           1         2         3
     Eigenvalues --  2686.131655924.962518214.54206
           X            0.98396   0.17147  -0.04925
           Y            0.11723  -0.41335   0.90299
           Z           -0.13448   0.89428   0.42682
 This molecule is an asymmetric top.
 Rotational symmetry number  1.
 Warning -- assumption of classical behavior for rotation
           may cause significant error
 Rotational temperatures (Kelvin)      0.03224     0.01462     0.01054
 Rotational constants (GHZ):           0.67187     0.30460     0.21970
 Zero-point vibrational energy     642092.1 (Joules/Mol)
                                  153.46369 (Kcal/Mol)
 Warning -- explicit consideration of  21 degrees of freedom as
           vibrations may cause significant error
 Vibrational temperatures:     34.63    55.43    77.33    85.13   108.63
          (Kelvin)            116.74   132.75   183.14   200.82   272.21
                              320.56   336.28   404.32   419.17   453.17
                              510.55   564.88   613.86   770.19   821.80
                              847.46   913.04   933.05   940.33   974.48
                             1034.32  1089.83  1113.99  1124.21  1144.58
                             1197.46  1198.83  1220.23  1249.82  1351.38
                             1357.86  1399.53  1412.99  1469.89  1472.10
                             1507.49  1555.70  1618.61  1622.65  1647.29
                             1661.77  1690.42  1740.82  1779.36  1816.51
                             1837.86  1853.93  1870.15  1893.37  1912.94
                             1950.08  1957.91  1993.21  2030.01  2045.61
                             2070.33  2127.19  2133.41  2159.79  2189.81
                             2207.40  2311.52  2387.81  2448.49  2587.06
                             4327.44  4365.35  4376.72  4395.31  4419.58
                             4447.45  4455.60  4654.25  4668.36  5039.68
                             5040.72  5154.65  5172.26  5398.86

 Zero-point correction=                           0.244560 (Hartree/Particle)
 Thermal correction to Energy=                    0.260648
 Thermal correction to Enthalpy=                  0.261592
 Thermal correction to Gibbs Free Energy=         0.198339
 Sum of electronic and zero-point Energies=           -796.142903
 Sum of electronic and thermal Energies=              -796.126815
 Sum of electronic and thermal Enthalpies=            -796.125871
 Sum of electronic and thermal Free Energies=         -796.189124

                     E (Thermal)             CV                S
                      KCal/Mol        Cal/Mol-Kelvin    Cal/Mol-Kelvin
 Total                  163.559             58.134            133.127
 Electronic               0.000              0.000              0.000
 Translational            0.889              2.981             42.150
 Rotational               0.889              2.981             33.236
 Vibrational            161.781             52.173             57.742
 Vibration     1          0.593              1.985              6.267
 Vibration     2          0.594              1.981              5.333
 Vibration     3          0.596              1.976              4.675
 Vibration     4          0.597              1.974              4.485
 Vibration     5          0.599              1.965              4.005
 Vibration     6          0.600              1.962              3.863
 Vibration     7          0.602              1.955              3.611
 Vibration     8          0.611              1.926              2.987
 Vibration     9          0.615              1.914              2.810
 Vibration    10          0.633              1.855              2.236
 Vibration    11          0.648              1.806              1.936
 Vibration    12          0.654              1.789              1.850
 Vibration    13          0.681              1.709              1.527
 Vibration    14          0.687              1.690              1.466
 Vibration    15          0.702              1.645              1.336
 Vibration    16          0.731              1.565              1.145
 Vibration    17          0.760              1.486              0.990
 Vibration    18          0.788              1.412              0.870
 Vibration    19          0.890              1.172              0.575
 Vibration    20          0.927              1.094              0.502
 Vibration    21          0.946              1.055              0.469

 Optimization completed.
    -- Stationary point found.
 Normal termination of Gaussian 09 at Thu Jul 29 10:22:41 2021.
