 Gaussian 09, Revision D.01,
 Gaussian 09:  ES64L-G09RevD.01 24-Apr-2013

 ----------------------------------------------------------------------
 # B3LYP/6-311++G(2df,2pd) guess=read geom=checkpoint opt=readfc freq=n
 oraman nosymm integral(ultrafinegrid)
 ----------------------------------------------------------------------

 ------------------------------------------------------------
 Candidate Structure: Conf:609 OPT and FREQ calc in gas phase
 ------------------------------------------------------------
 Structure from the checkpoint file:  "conf-609.chk"
 Charge =  0 Multiplicity = 1

 SCF Done:  E(RB3LYP) =  -796.376051130     A.U. after   13 cycles
 SCF Done:  E(RB3LYP) =  -796.376925841     A.U. after   12 cycles
 SCF Done:  E(RB3LYP) =  -796.376955643     A.U. after   11 cycles
 SCF Done:  E(RB3LYP) =  -796.376956890     A.U. after   10 cycles
 SCF Done:  E(RB3LYP) =  -796.376956991     A.U. after    8 cycles
 SCF Done:  E(RB3LYP) =  -796.376957036     A.U. after    8 cycles
 Optimization completed.
    -- Stationary point found.
 Normal termination of Gaussian 09 at Thu Jul 29 04:34:33 2021.

 ----------------------------------------------------------------------
 #N Geom=AllCheck Guess=TCheck SCRF=Check GenChk RB3LYP/6-311++G(2df,2p
 d) Freq
 ----------------------------------------------------------------------

 Structure from the checkpoint file:  "conf-609.chk"
 ------------------------------------------------------------
 Candidate Structure: Conf:609 OPT and FREQ calc in gas phase
 ------------------------------------------------------------
 Charge =  0 Multiplicity = 1

                          Input orientation:
 ---------------------------------------------------------------------
 Center     Atomic      Atomic             Coordinates (Angstroms)
 Number     Number       Type             X           Y           Z
 ---------------------------------------------------------------------
      1          8           0        1.436830    1.082065   -0.658028
      2          6           0        1.635968    0.276620    0.237251
      3          7           0        0.627595   -0.510702    0.715523
      4          6           0       -0.689000   -0.504040    0.096461
      5          6           0       -0.535261   -0.868528   -1.389048
      6          8           0       -1.373046   -0.192383   -2.211821
      7          8           0        0.213799   -1.713017   -1.793900
      8          6           0       -1.483815    0.791982    0.405413
      9          6           0       -2.967512    0.633850    0.447948
     10          6           0       -3.840750    0.608298    1.505978
     11          7           0       -5.136485    0.456949    1.074555
     12          6           0       -5.059466    0.390990   -0.231743
     13          7           0       -3.772018    0.495200   -0.663427
     14          6           0        3.000157    0.088746    0.869242
     15          6           0        4.050659   -0.340650   -0.177979
     16          7           0        5.415130   -0.463421    0.316755
     17          1           0        0.855460   -1.265699    1.337792
     18          1           0       -1.235688   -1.342307    0.533154
     19          1           0       -1.181121   -0.499005   -3.110642
     20          1           0       -1.168386    1.115493    1.396279
     21          1           0       -1.180144    1.573955   -0.288660
     22          1           0       -3.603316    0.704244    2.552722
     23          1           0       -5.888476    0.270150   -0.909140
     24          1           0       -3.435948    0.446762   -1.610118
     25          1           0        3.293875    1.050682    1.294920
     26          1           0        2.966529   -0.636007    1.686058
     27          1           0        3.757745   -1.299247   -0.609922
     28          1           0        4.039417    0.382436   -0.992351
     29          1           0        5.491418   -1.149545    1.056854
     30          1           0        5.765919    0.416138    0.674324
 ---------------------------------------------------------------------

 SCF Done:  E(RB3LYP) =  -796.376957037     A.U. after    1 cycles

 Alpha  occ. eigenvalues --  -19.19997 -19.13589 -19.10523 -14.36821 -14.36117
 Alpha  occ. eigenvalues --  -14.30353 -14.29326 -10.32915 -10.28717 -10.25412
 Alpha  occ. eigenvalues --  -10.22401 -10.20788 -10.20441 -10.19800 -10.19051
 Alpha  occ. eigenvalues --  -10.18222  -1.13868  -1.06042  -1.04728  -1.02017
 Alpha  occ. eigenvalues --   -0.95069  -0.89587  -0.87589  -0.81819  -0.77359
 Alpha  occ. eigenvalues --   -0.74560  -0.68932  -0.66243  -0.63064  -0.61929
 Alpha  occ. eigenvalues --   -0.60116  -0.59501  -0.55709  -0.53428  -0.52293
 Alpha  occ. eigenvalues --   -0.51578  -0.51306  -0.49203  -0.47370  -0.46296
 Alpha  occ. eigenvalues --   -0.45803  -0.44553  -0.44137  -0.43139  -0.42618
 Alpha  occ. eigenvalues --   -0.41812  -0.41312  -0.40517  -0.40103  -0.39345
 Alpha  occ. eigenvalues --   -0.38258  -0.35800  -0.35068  -0.30813  -0.29238
 Alpha  occ. eigenvalues --   -0.28746  -0.28193  -0.27423  -0.25145  -0.23337
 Alpha virt. eigenvalues --   -0.03465  -0.02364  -0.01939  -0.00593  -0.00414
 Alpha virt. eigenvalues --    0.00416   0.00790   0.01177   0.01697   0.02038
 Alpha virt. eigenvalues --    0.02170   0.03182   0.03593   0.04334   0.04463

 Mulliken charges:
               1
     1  O   -0.359521
     2  C   -0.176902
     3  N    0.147235
     4  C   -0.015526
     5  C    0.120186
     6  O   -0.257755
     7  O   -0.359166
     8  C    0.043015
     9  C    0.307262
    10  C   -0.435263
    11  N   -0.289782
    12  C    0.112343
    13  N   -0.049808
    14  C    0.213288
    15  C   -0.197708
    16  N   -0.181077
    17  H    0.144994
    18  H    0.068974
    19  H    0.257855
    20  H    0.054013
    21  H    0.116997
    22  H    0.063376
    23  H    0.097062
    24  H    0.163469
    25  H    0.046508
    26  H    0.004861
    27  H    0.060624
    28  H    0.081432
    29  H    0.106924
    30  H    0.112091
 Sum of Mulliken charges =   0.00000

 Dipole moment (field-independent basis, Debye):
    X=              1.4827    Y=             -1.0880    Z=              0.4435  Tot=              1.8918
 Quadrupole moment (field-independent basis, Debye-Ang):
   XX=           -117.7523   YY=            -99.3710   ZZ=            -86.2293
   XY=              3.9065   XZ=             27.9994   YZ=             -3.6944

  Exact polarizability: 198.085  -5.237 112.552   1.354   2.230 139.696
 Approx polarizability: 236.942  -1.816 183.127  -0.403  -7.114 223.053

                      1                      2                      3
                      A                      A                      A
 Frequencies --     22.6352                27.9465                41.3050
 Red. masses --      4.2760                 5.0938                 5.2638
 Frc consts  --      0.0013                 0.0023                 0.0053
 IR Inten    --      0.8165                 8.6692                 7.4374

                      4                      5                      6
                      A                      A                      A
 Frequencies --     54.1758                71.2392                87.3629
 Red. masses --      4.6187                 2.8699                 9.6799
 Frc consts  --      0.0080                 0.0086                 0.0435
 IR Inten    --      1.9968                 2.5985                 2.3586

                      7                      8                      9
                      A                      A                      A
 Frequencies --     91.5240               121.3637               140.4562
 Red. masses --      2.6718                 5.9868                 6.4612
 Frc consts  --      0.0132                 0.0520                 0.0751
 IR Inten    --      2.4905                 2.2351                 4.8897

                     10                     11                     12
                      A                      A                      A
 Frequencies --    191.0334               221.6207               276.9900
 Red. masses --      4.3755                 5.2652                 2.3173
 Frc consts  --      0.0941                 0.1524                 0.1048
 IR Inten    --      8.8020                 2.7847                20.5166

                     13                     14                     15
                      A                      A                      A
 Frequencies --    286.6003               307.0158               337.8872
 Red. masses --      1.4106                 3.5268                 3.6908
 Frc consts  --      0.0683                 0.1959                 0.2483
 IR Inten    --     24.5899                 6.9505                 1.3872

                     16                     17                     18
                      A                      A                      A
 Frequencies --    366.2752               386.9306               424.8796
 Red. masses --      3.8698                 3.5775                 1.2498
 Frc consts  --      0.3059                 0.3156                 0.1329
 IR Inten    --      1.1782                11.6106                60.1238

                     19                     20                     21
                      A                      A                      A
 Frequencies --    441.7739               521.4814               546.7385
 Red. masses --      3.7859                 3.6172                 2.7354
 Frc consts  --      0.4353                 0.5796                 0.4818
 IR Inten    --      0.4321                30.9572                26.2093

                     22                     23                     24
                      A                      A                      A
 Frequencies --    590.7751               609.2833               669.9635
 Red. masses --      1.5086                 1.9794                 2.3871
 Frc consts  --      0.3102                 0.4329                 0.6313
 IR Inten    --     35.4193                83.1023                50.7349

                     25                     26                     27
                      A                      A                      A
 Frequencies --    678.9896               688.9609               730.0885
 Red. masses --      3.0477                 2.1523                 3.8374
 Frc consts  --      0.8279                 0.6019                 1.2051
 IR Inten    --     37.2384                 0.4504                23.5863

                     28                     29                     30
                      A                      A                      A
 Frequencies --    740.8092               767.1611               777.8409
 Red. masses --      4.7751                 1.6115                 2.0966
 Frc consts  --      1.5440                 0.5588                 0.7474
 IR Inten    --      3.7030                 4.0033                 2.0888

                     31                     32                     33
                      A                      A                      A
 Frequencies --    798.5743               824.4905               846.1770
 Red. masses --      1.4734                 1.4275                 2.4388
 Frc consts  --      0.5536                 0.5718                 1.0288
 IR Inten    --    207.0037                19.9855                20.9248

                     34                     35                     36
                      A                      A                      A
 Frequencies --    860.6942               910.3249               935.7768
 Red. masses --      1.8003                 2.6099                 5.7367
 Frc consts  --      0.7858                 1.2743                 2.9598
 IR Inten    --     10.2522                 0.2700                13.6329

                     37                     38                     39
                      A                      A                      A
 Frequencies --    966.9875               987.6975              1013.4422
 Red. masses --      1.6885                 2.2046                 5.0379
 Frc consts  --      0.9302                 1.2672                 3.0486
 IR Inten    --      7.5950                12.4298                62.5875

                     40                     41                     42
                      A                      A                      A
 Frequencies --   1027.1732              1046.1583              1083.1985
 Red. masses --      3.7872                 4.8138                 2.1637
 Frc consts  --      2.3543                 3.1041                 1.4957
 IR Inten    --     18.4490                 3.6406                14.6962

                     43                     44                     45
                      A                      A                      A
 Frequencies --   1095.8210              1110.5647              1135.0580
 Red. masses --      3.5175                 1.5908                 1.6947
 Frc consts  --      2.4887                 1.1560                 1.2864
 IR Inten    --     30.5578                41.8944                60.1046

                     46                     47                     48
                      A                      A                      A
 Frequencies --   1142.4652              1155.2372              1199.0981
 Red. masses --      2.1910                 2.2406                 1.4929
 Frc consts  --      1.6849                 1.7618                 1.2648
 IR Inten    --     43.4788               151.2457                33.5451

                     49                     50                     51
                      A                      A                      A
 Frequencies --   1247.3344              1259.0975              1279.6281
 Red. masses --      1.8248                 2.2472                 1.3791
 Frc consts  --      1.6728                 2.0990                 1.3305
 IR Inten    --     63.6897                26.9790                 4.6438

                     52                     53                     54
                      A                      A                      A
 Frequencies --   1292.4774              1309.0482              1329.4908
 Red. masses --      1.3185                 1.2753                 1.3741
 Frc consts  --      1.2977                 1.2876                 1.4310
 IR Inten    --      4.1848                 1.9896                 7.8969

                     55                     56                     57
                      A                      A                      A
 Frequencies --   1335.3353              1349.3234              1376.6134
 Red. masses --      1.4771                 1.8156                 1.7014
 Frc consts  --      1.5518                 1.9476                 1.8997
 IR Inten    --     45.3315                 5.5507                 5.1460

                     58                     59                     60
                      A                      A                      A
 Frequencies --   1383.1105              1391.4258              1392.6873
 Red. masses --      1.1987                 1.2273                 2.9584
 Frc consts  --      1.3510                 1.4000                 3.3807
 IR Inten    --      9.7624                19.2312                12.4484

                     61                     62                     63
                      A                      A                      A
 Frequencies --   1423.6612              1479.5941              1488.3599
 Red. masses --      2.8145                 1.1089                 1.1551
 Frc consts  --      3.3609                 1.4303                 1.5076
 IR Inten    --     23.2211                 3.5472                12.6599

                     64                     65                     66
                      A                      A                      A
 Frequencies --   1498.8592              1504.3316              1523.1395
 Red. masses --      3.0947                 1.0885                 1.8901
 Frc consts  --      4.0962                 1.4513                 2.5836
 IR Inten    --     38.1477                 5.0385               219.3197

                     67                     68                     69
                      A                      A                      A
 Frequencies --   1602.3374              1662.0985              1731.5943
 Red. masses --      4.2585                 1.0911                 9.0658
 Frc consts  --      6.4418                 1.7760                16.0158
 IR Inten    --      7.5126                28.1439               190.6164

                     70                     71                     72
                      A                      A                      A
 Frequencies --   1817.7637              3029.3211              3047.1214
 Red. masses --     10.1754                 1.0586                 1.0678
 Frc consts  --     19.8097                 5.7238                 5.8415
 IR Inten    --    301.2388                13.3969                19.8721

                     73                     74                     75
                      A                      A                      A
 Frequencies --   3056.6849              3070.1991              3072.2468
 Red. masses --      1.0817                 1.0976                 1.0619
 Frc consts  --      5.9549                 6.0957                 5.9051
 IR Inten    --      2.3174                 8.3784                10.0594

                     76                     77                     78
                      A                      A                      A
 Frequencies --   3101.6341              3111.9273              3233.9443
 Red. masses --      1.1040                 1.1035                 1.0957
 Frc consts  --      6.2577                 6.2960                 6.7519
 IR Inten    --     18.1031                 2.9034                 6.9570

                     79                     80                     81
                      A                      A                      A
 Frequencies --   3244.1004              3505.4096              3585.1729
 Red. masses --      1.0975                 1.0481                 1.0944
 Frc consts  --      6.8054                 7.5883                 8.2877
 IR Inten    --      1.0915                 1.8273                 2.1316

                     82                     83                     84
                      A                      A                      A
 Frequencies --   3648.6069              3650.3354              3743.6341
 Red. masses --      1.0784                 1.0810                 1.0642
 Frc consts  --      8.4586                 8.4867                 8.7871
 IR Inten    --     28.7475               105.5316                82.5476

 - Thermochemistry -
 -------------------
 Temperature   298.150 Kelvin.  Pressure   1.00000 Atm.
 Atom     1 has atomic number  8 and mass  15.99491

 Molecular mass:   226.10659 amu.
 Principal axes and moments of inertia in atomic units:
                           1         2         3
     Eigenvalues --  1322.795758023.588388763.71985
           X            0.99614   0.04661   0.07444
           Y           -0.08643   0.36974   0.92511
           Z           -0.01560   0.92797  -0.37234
 This molecule is an asymmetric top.
 Rotational symmetry number  1.
 Warning -- assumption of classical behavior for rotation
           may cause significant error
 Rotational temperatures (Kelvin)      0.06548     0.01079     0.00988
 Rotational constants (GHZ):           1.36434     0.22493     0.20593
 Zero-point vibrational energy     640825.7 (Joules/Mol)
                                  153.16102 (Kcal/Mol)
 Warning -- explicit consideration of  23 degrees of freedom as
           vibrations may cause significant error
 Vibrational temperatures:     32.57    40.21    59.43    77.95   102.50
          (Kelvin)            125.70   131.68   174.62   202.08   274.85
                              318.86   398.53   412.35   441.73   486.14
                              526.99   556.71   611.31   635.61   750.29
                              786.63   849.99   876.62   963.93   976.91
                              991.26  1050.43  1065.86  1103.77  1119.14
                             1148.97  1186.26  1217.46  1238.35  1309.75
                             1346.37  1391.28  1421.07  1458.12  1477.87
                             1505.19  1558.48  1576.64  1597.85  1633.09
                             1643.75  1662.13  1725.23  1794.63  1811.56
                             1841.10  1859.58  1883.43  1912.84  1921.25
                             1941.37  1980.64  1989.98  2001.95  2003.76
                             2048.33  2128.80  2141.42  2156.52  2164.39
                             2191.46  2305.40  2391.39  2491.37  2615.35
                             4358.51  4384.12  4397.88  4417.33  4420.27
                             4462.55  4477.36  4652.92  4667.53  5043.50
                             5158.26  5249.53  5252.01  5386.25

 Zero-point correction=                           0.244078 (Hartree/Particle)
 Thermal correction to Energy=                    0.260351
 Thermal correction to Enthalpy=                  0.261295
 Thermal correction to Gibbs Free Energy=         0.197396
 Sum of electronic and zero-point Energies=           -796.132879
 Sum of electronic and thermal Energies=              -796.116606
 Sum of electronic and thermal Enthalpies=            -796.115662
 Sum of electronic and thermal Free Energies=         -796.179561

                     E (Thermal)             CV                S
                      KCal/Mol        Cal/Mol-Kelvin    Cal/Mol-Kelvin
 Total                  163.373             58.956            134.487
 Electronic               0.000              0.000              0.000
 Translational            0.889              2.981             42.150
 Rotational               0.889              2.981             32.897
 Vibrational            161.595             52.994             59.439
 Vibration     1          0.593              1.985              6.388
 Vibration     2          0.593              1.984              5.970
 Vibration     3          0.594              1.981              5.196
 Vibration     4          0.596              1.976              4.659
 Vibration     5          0.598              1.968              4.119
 Vibration     6          0.601              1.958              3.718
 Vibration     7          0.602              1.955              3.627
 Vibration     8          0.609              1.931              3.079
 Vibration     9          0.615              1.913              2.798
 Vibration    10          0.634              1.852              2.218
 Vibration    11          0.648              1.808              1.946
 Vibration    12          0.678              1.716              1.552
 Vibration    13          0.684              1.699              1.494
 Vibration    14          0.697              1.660              1.378
 Vibration    15          0.718              1.600              1.222
 Vibration    16          0.739              1.542              1.095
 Vibration    17          0.755              1.498              1.012
 Vibration    18          0.787              1.416              0.876
 Vibration    19          0.802              1.379              0.821
 Vibration    20          0.876              1.202              0.607
 Vibration    21          0.902              1.147              0.551
 Vibration    22          0.948              1.051              0.466
 Vibration    23          0.968              1.012              0.434

 Optimization completed.
    -- Stationary point found.
 Normal termination of Gaussian 09 at Thu Jul 29 10:55:49 2021.
