 Gaussian 09, Revision D.01,
 Gaussian 09:  ES64L-G09RevD.01 24-Apr-2013

 ----------------------------------------------------------------------
 # B3LYP/6-311++G(2df,2pd) guess=read geom=checkpoint opt=readfc freq=n
 oraman nosymm integral(ultrafinegrid)
 ----------------------------------------------------------------------

 ------------------------------------------------------------
 Candidate Structure: Conf:490 OPT and FREQ calc in gas phase
 ------------------------------------------------------------
 Structure from the checkpoint file:  "conf-490.chk"
 Charge =  0 Multiplicity = 1

 SCF Done:  E(RB3LYP) =  -796.380246431     A.U. after   14 cycles
 SCF Done:  E(RB3LYP) =  -796.381081909     A.U. after   13 cycles
 SCF Done:  E(RB3LYP) =  -796.381099555     A.U. after   10 cycles
 SCF Done:  E(RB3LYP) =  -796.381099942     A.U. after    9 cycles
 SCF Done:  E(RB3LYP) =  -796.381099953     A.U. after    8 cycles
 Optimization completed.
    -- Stationary point found.
 Normal termination of Gaussian 09 at Thu Jul 29 04:15:06 2021.

 ----------------------------------------------------------------------
 #N Geom=AllCheck Guess=TCheck SCRF=Check GenChk RB3LYP/6-311++G(2df,2p
 d) Freq
 ----------------------------------------------------------------------

 Structure from the checkpoint file:  "conf-490.chk"
 ------------------------------------------------------------
 Candidate Structure: Conf:490 OPT and FREQ calc in gas phase
 ------------------------------------------------------------
 Charge =  0 Multiplicity = 1

                          Input orientation:
 ---------------------------------------------------------------------
 Center     Atomic      Atomic             Coordinates (Angstroms)
 Number     Number       Type             X           Y           Z
 ---------------------------------------------------------------------
      1          8           0        0.874574    0.574327   -2.310274
      2          6           0        1.562847    0.183934   -1.375777
      3          7           0        1.070104    0.042904   -0.118988
      4          6           0       -0.282908    0.429997    0.195323
      5          6           0       -0.371107    0.752301    1.687223
      6          8           0       -1.502683    1.361429    2.088224
      7          8           0        0.490723    0.481143    2.477442
      8          6           0       -1.300945   -0.673045   -0.225968
      9          6           0       -2.736735   -0.281149   -0.089634
     10          6           0       -3.483960    0.720544   -0.663050
     11          7           0       -4.782505    0.687156   -0.208845
     12          6           0       -4.834539   -0.317736    0.627661
     13          7           0       -3.624628   -0.936316    0.739009
     14          6           0        3.028383   -0.189896   -1.573320
     15          6           0        3.992450    0.171566   -0.439671
     16          7           0        3.739115   -0.635512    0.761007
     17          1           0        1.698656   -0.242077    0.629404
     18          1           0       -0.525938    1.329401   -0.375428
     19          1           0       -2.127309    1.459548    1.351914
     20          1           0       -1.073828   -0.900069   -1.267184
     21          1           0       -1.096444   -1.575167    0.353827
     22          1           0       -3.162702    1.443415   -1.394626
     23          1           0       -5.702526   -0.641990    1.176953
     24          1           0       -3.407531   -1.718583    1.333100
     25          1           0        3.075544   -1.267369   -1.762777
     26          1           0        3.338351    0.298569   -2.495644
     27          1           0        5.017828    0.072988   -0.813813
     28          1           0        3.856944    1.219842   -0.168102
     29          1           0        4.215451   -0.260693    1.570847
     30          1           0        4.055128   -1.589580    0.635776
 ---------------------------------------------------------------------

 SCF Done:  E(RB3LYP) =  -796.381099953     A.U. after    1 cycles

 Alpha  occ. eigenvalues --  -19.18037 -19.12398 -19.09054 -14.38691 -14.33684
 Alpha  occ. eigenvalues --  -14.31844 -14.30792 -10.31656 -10.27412 -10.24306
 Alpha  occ. eigenvalues --  -10.23824 -10.22524 -10.21600 -10.20801 -10.19724
 Alpha  occ. eigenvalues --  -10.18645  -1.11980  -1.04429  -1.03903  -1.03568
 Alpha  occ. eigenvalues --   -0.93624  -0.90737  -0.89130  -0.81886  -0.77640
 Alpha  occ. eigenvalues --   -0.74657  -0.68998  -0.64864  -0.63460  -0.63058
 Alpha  occ. eigenvalues --   -0.61134  -0.58757  -0.57270  -0.55083  -0.52374
 Alpha  occ. eigenvalues --   -0.50533  -0.48839  -0.48295  -0.47131  -0.46910
 Alpha  occ. eigenvalues --   -0.45973  -0.45146  -0.44321  -0.44013  -0.42651
 Alpha  occ. eigenvalues --   -0.42320  -0.41083  -0.40517  -0.40097  -0.38935
 Alpha  occ. eigenvalues --   -0.38045  -0.35817  -0.33979  -0.30562  -0.29724
 Alpha  occ. eigenvalues --   -0.28782  -0.27508  -0.27247  -0.25989  -0.24665
 Alpha virt. eigenvalues --   -0.02528  -0.01980  -0.01667  -0.00243   0.00004
 Alpha virt. eigenvalues --    0.00437   0.00770   0.01108   0.01545   0.01954
 Alpha virt. eigenvalues --    0.02659   0.03138   0.03652   0.04074   0.04306

 Mulliken charges:
               1
     1  O   -0.416439
     2  C    0.037953
     3  N   -0.006995
     4  C    0.051098
     5  C    0.019672
     6  O   -0.192954
     7  O   -0.341254
     8  C   -0.067075
     9  C    0.078970
    10  C   -0.272635
    11  N   -0.258033
    12  C    0.110173
    13  N    0.051020
    14  C   -0.022368
    15  C   -0.122801
    16  N   -0.196711
    17  H    0.262394
    18  H    0.126314
    19  H    0.261134
    20  H    0.120501
    21  H    0.030951
    22  H    0.098622
    23  H    0.100883
    24  H    0.133176
    25  H    0.037191
    26  H    0.047060
    27  H    0.058908
    28  H    0.056430
    29  H    0.117519
    30  H    0.097295
 Sum of Mulliken charges =   0.00000

 Dipole moment (field-independent basis, Debye):
    X=              3.0082    Y=             -4.0034    Z=              1.1718  Tot=              5.1429
 Quadrupole moment (field-independent basis, Debye-Ang):
   XX=            -84.6718   YY=            -90.0288   ZZ=           -112.2508
   XY=              8.6670   XZ=             -7.5202   YZ=             -3.5660

  Exact polarizability: 191.164  -7.107 116.094  -5.653  -8.421 137.479
 Approx polarizability: 237.812 -15.716 192.299   1.487 -23.698 213.037

                      1                      2                      3
                      A                      A                      A
 Frequencies --     22.5107                33.9538                46.7490
 Red. masses --      4.5311                 4.9967                 4.8292
 Frc consts  --      0.0014                 0.0034                 0.0062
 IR Inten    --      1.0894                 7.4965                 2.2339

                      4                      5                      6
                      A                      A                      A
 Frequencies --     59.5977                80.8724                83.9549
 Red. masses --      4.2417                 5.1952                 5.8536
 Frc consts  --      0.0089                 0.0200                 0.0243
 IR Inten    --      5.5066                 3.4978                 2.8234

                      7                      8                      9
                      A                      A                      A
 Frequencies --     99.6776               116.3292               173.3185
 Red. masses --      6.9808                 4.2202                 5.1219
 Frc consts  --      0.0409                 0.0336                 0.0907
 IR Inten    --      8.2896                 4.2715                 9.7842

                     10                     11                     12
                      A                      A                      A
 Frequencies --    194.5095               221.7827               280.4569
 Red. masses --      2.3208                 4.9603                 1.2216
 Frc consts  --      0.0517                 0.1438                 0.0566
 IR Inten    --      6.8022                 4.2822                10.9568

                     13                     14                     15
                      A                      A                      A
 Frequencies --    287.5489               329.6433               341.5863
 Red. masses --      7.8744                 2.2461                 4.1498
 Frc consts  --      0.3836                 0.1438                 0.2853
 IR Inten    --      0.5722                 6.7484                 7.1683

                     16                     17                     18
                      A                      A                      A
 Frequencies --    345.0879               394.9024               471.0970
 Red. masses --      6.2868                 4.3152                 2.7681
 Frc consts  --      0.4411                 0.3965                 0.3620
 IR Inten    --      6.5532                15.5357                11.3625

                     19                     20                     21
                      A                      A                      A
 Frequencies --    508.4021               550.9777               594.2766
 Red. masses --      3.1388                 1.3699                 1.3316
 Frc consts  --      0.4780                 0.2450                 0.2771
 IR Inten    --     25.7994                82.6543                84.1694

                     22                     23                     24
                      A                      A                      A
 Frequencies --    600.9323               642.1316               670.2633
 Red. masses --      3.8513                 3.2239                 3.0281
 Frc consts  --      0.8194                 0.7832                 0.8015
 IR Inten    --      0.4816                 2.8167                14.4180

                     25                     26                     27
                      A                      A                      A
 Frequencies --    682.1828               693.0680               736.1179
 Red. masses --      2.9496                 2.8366                 3.1900
 Frc consts  --      0.8088                 0.8028                 1.0184
 IR Inten    --      8.7850                36.2680                 7.4620

                     28                     29                     30
                      A                      A                      A
 Frequencies --    755.8448               784.2579               812.3477
 Red. masses --      2.3301                 1.6322                 2.4255
 Frc consts  --      0.7843                 0.5915                 0.9431
 IR Inten    --      7.6334                21.4633                20.5210

                     31                     32                     33
                      A                      A                      A
 Frequencies --    827.4391               831.6575               866.4029
 Red. masses --      1.4532                 1.4736                 1.4469
 Frc consts  --      0.5862                 0.6005                 0.6399
 IR Inten    --     81.4094                27.2867                24.5867

                     34                     35                     36
                      A                      A                      A
 Frequencies --    889.0908               914.9546               935.6229
 Red. masses --      2.6919                 2.1029                 5.8356
 Frc consts  --      1.2537                 1.0372                 3.0098
 IR Inten    --     11.0079                11.1145                10.3368

                     37                     38                     39
                      A                      A                      A
 Frequencies --    973.9535              1000.8426              1010.1113
 Red. masses --      2.1854                 1.6698                 3.5579
 Frc consts  --      1.2214                 0.9855                 2.1388
 IR Inten    --     13.3310                22.3857                 3.4100

                     40                     41                     42
                      A                      A                      A
 Frequencies --   1025.3673              1033.2124              1081.4593
 Red. masses --      4.4221                 2.8713                 2.6698
 Frc consts  --      2.7393                 1.8059                 1.8397
 IR Inten    --      6.9261                 5.7630                 8.7580

                     43                     44                     45
                      A                      A                      A
 Frequencies --   1108.4689              1138.2884              1140.2825
 Red. masses --      1.6539                 2.9044                 2.3309
 Frc consts  --      1.1973                 2.2173                 1.7857
 IR Inten    --     14.3447                25.9921                 7.3724

                     46                     47                     48
                      A                      A                      A
 Frequencies --   1158.4143              1165.3073              1197.4589
 Red. masses --      1.5458                 1.4785                 2.3029
 Frc consts  --      1.2222                 1.1829                 1.9456
 IR Inten    --     16.4204                 9.2233                18.3089

                     49                     50                     51
                      A                      A                      A
 Frequencies --   1243.4729              1251.9468              1282.8357
 Red. masses --      1.6434                 1.8885                 1.4242
 Frc consts  --      1.4972                 1.7440                 1.3809
 IR Inten    --     29.3156                26.6161                 1.4079

                     52                     53                     54
                      A                      A                      A
 Frequencies --   1294.7587              1312.9777              1314.2824
 Red. masses --      1.3078                 1.4111                 1.3512
 Frc consts  --      1.2917                 1.4333                 1.3752
 IR Inten    --      2.4894                99.1706                11.5283

                     55                     56                     57
                      A                      A                      A
 Frequencies --   1320.9276              1358.6059              1369.4158
 Red. masses --      1.5334                 1.3515                 1.3715
 Frc consts  --      1.5764                 1.4698                 1.5153
 IR Inten    --     54.3987                83.6904                11.7266

                     58                     59                     60
                      A                      A                      A
 Frequencies --   1393.1212              1402.3050              1418.7822
 Red. masses --      2.2589                 1.9367                 1.3952
 Frc consts  --      2.5830                 2.2439                 1.6547
 IR Inten    --     55.7956                48.7468                17.2220

                     61                     62                     63
                      A                      A                      A
 Frequencies --   1426.4694              1465.6621              1485.0229
 Red. masses --      3.0384                 1.0833                 1.6033
 Frc consts  --      3.6426                 1.3711                 2.0832
 IR Inten    --     20.7963                15.2238                15.2793

                     64                     65                     66
                      A                      A                      A
 Frequencies --   1492.9940              1512.7212              1540.6506
 Red. masses --      1.8886                 1.1074                 1.9897
 Frc consts  --      2.4803                 1.4930                 2.7825
 IR Inten    --     15.0190                18.0791               353.6636

                     67                     68                     69
                      A                      A                      A
 Frequencies --   1594.9834              1656.6966              1714.1513
 Red. masses --      3.9736                 1.0904                 8.9640
 Frc consts  --      5.9559                 1.7633                15.5185
 IR Inten    --      9.5635                33.7492               324.4726

                     70                     71                     72
                      A                      A                      A
 Frequencies --   1827.5037              2985.2569              3021.7111
 Red. masses --      9.8545                 1.0722                 1.0706
 Frc consts  --     19.3911                 5.6298                 5.7597
 IR Inten    --    294.6474                78.0034                 7.2221

                     73                     74                     75
                      A                      A                      A
 Frequencies --   3039.8832              3051.9826              3063.8512
 Red. masses --      1.0736                 1.0704                 1.0908
 Frc consts  --      5.8454                 5.8742                 6.0331
 IR Inten    --      6.9698                20.8887                23.1405

                     76                     77                     78
                      A                      A                      A
 Frequencies --   3094.3074              3103.6574              3238.5524
 Red. masses --      1.1027                 1.0919                 1.0959
 Frc consts  --      6.2208                 6.1968                 6.7723
 IR Inten    --      1.7512                 9.1041                 3.2738

                     79                     80                     81
                      A                      A                      A
 Frequencies --   3248.5887              3431.6205              3507.7459
 Red. masses --      1.0980                 1.0811                 1.0498
 Frc consts  --      6.8270                 7.5006                 7.6105
 IR Inten    --      1.1971               296.6346                 0.4999

                     82                     83                     84
                      A                      A                      A
 Frequencies --   3588.3574              3645.3043              3673.7361
 Red. masses --      1.0935                 1.0812                 1.0666
 Frc consts  --      8.2959                 8.4650                 8.4816
 IR Inten    --      6.3999                52.9025               233.3119

 - Thermochemistry -
 -------------------
 Temperature   298.150 Kelvin.  Pressure   1.00000 Atm.
 Atom     1 has atomic number  8 and mass  15.99491

 Molecular mass:   226.10659 amu.
 Principal axes and moments of inertia in atomic units:
                           1         2         3
     Eigenvalues --  1672.415266695.984047667.98375
           X            0.99256   0.12136   0.01008
           Y           -0.02047   0.08468   0.99620
           Z           -0.12004   0.98899  -0.08653
 This molecule is an asymmetric top.
 Rotational symmetry number  1.
 Warning -- assumption of classical behavior for rotation
           may cause significant error
 Rotational temperatures (Kelvin)      0.05179     0.01294     0.01130
 Rotational constants (GHZ):           1.07912     0.26953     0.23536
 Zero-point vibrational energy     641722.1 (Joules/Mol)
                                  153.37526 (Kcal/Mol)
 Warning -- explicit consideration of  22 degrees of freedom as
           vibrations may cause significant error
 Vibrational temperatures:     32.39    48.85    67.26    85.75   116.36
          (Kelvin)            120.79   143.41   167.37   249.37   279.86
                              319.10   403.51   413.72   474.28   491.47
                              496.50   568.18   677.80   731.48   792.73
                              855.03   864.61   923.88   964.36   981.51
                              997.17  1059.11  1087.49  1128.37  1168.79
                             1190.50  1196.57  1246.56  1279.20  1316.41
                             1346.15  1401.30  1439.99  1453.32  1475.27
                             1486.56  1555.98  1594.84  1637.74  1640.61
                             1666.70  1676.62  1722.87  1789.08  1801.27
                             1845.71  1862.87  1889.08  1890.96  1900.52
                             1954.73  1970.28  2004.39  2017.60  2041.31
                             2052.37  2108.76  2136.61  2148.08  2176.47
                             2216.65  2294.82  2383.61  2466.28  2629.37
                             4295.11  4347.56  4373.71  4391.12  4408.19
                             4452.01  4465.47  4659.55  4673.99  4937.33
                             5046.86  5162.84  5244.77  5285.68

 Zero-point correction=                           0.244419 (Hartree/Particle)
 Thermal correction to Energy=                    0.260336
 Thermal correction to Enthalpy=                  0.261281
 Thermal correction to Gibbs Free Energy=         0.198511
 Sum of electronic and zero-point Energies=           -796.136681
 Sum of electronic and thermal Energies=              -796.120764
 Sum of electronic and thermal Enthalpies=            -796.119819
 Sum of electronic and thermal Free Energies=         -796.182589

                     E (Thermal)             CV                S
                      KCal/Mol        Cal/Mol-Kelvin    Cal/Mol-Kelvin
 Total                  163.364             58.030            132.109
 Electronic               0.000              0.000              0.000
 Translational            0.889              2.981             42.150
 Rotational               0.889              2.981             32.818
 Vibrational            161.586             52.069             57.142
 Vibration     1          0.593              1.985              6.399
 Vibration     2          0.594              1.983              5.584
 Vibration     3          0.595              1.979              4.950
 Vibration     4          0.597              1.974              4.470
 Vibration     5          0.600              1.962              3.870
 Vibration     6          0.601              1.960              3.796
 Vibration     7          0.604              1.949              3.461
 Vibration     8          0.608              1.936              3.160
 Vibration     9          0.627              1.875              2.399
 Vibration    10          0.635              1.848              2.184
 Vibration    11          0.648              1.808              1.944
 Vibration    12          0.680              1.710              1.531
 Vibration    13          0.685              1.697              1.488
 Vibration    14          0.712              1.616              1.262
 Vibration    15          0.721              1.592              1.205
 Vibration    16          0.723              1.585              1.189
 Vibration    17          0.762              1.481              0.982
 Vibration    18          0.828              1.314              0.734
 Vibration    19          0.864              1.231              0.637
 Vibration    20          0.906              1.138              0.542
 Vibration    21          0.952              1.044              0.460
 Vibration    22          0.959              1.030              0.448

 Optimization completed.
    -- Stationary point found.
 Normal termination of Gaussian 09 at Thu Jul 29 10:43:39 2021.
