 Gaussian 09, Revision D.01,
 Gaussian 09:  ES64L-G09RevD.01 24-Apr-2013

 ----------------------------------------------------------------------
 # B3LYP/6-311++G(2df,2pd) guess=read geom=checkpoint opt=readfc freq=n
 oraman nosymm integral(ultrafinegrid)
 ----------------------------------------------------------------------

 ------------------------------------------------------------
 Candidate Structure: Conf:455 OPT and FREQ calc in gas phase
 ------------------------------------------------------------
 Structure from the checkpoint file:  "conf-455.chk"
 Charge =  0 Multiplicity = 1

 SCF Done:  E(RB3LYP) =  -796.369696624     A.U. after   13 cycles
 SCF Done:  E(RB3LYP) =  -796.370563644     A.U. after   12 cycles
 SCF Done:  E(RB3LYP) =  -796.370621503     A.U. after   12 cycles
 SCF Done:  E(RB3LYP) =  -796.370639040     A.U. after   11 cycles
 SCF Done:  E(RB3LYP) =  -796.370644785     A.U. after   10 cycles
 SCF Done:  E(RB3LYP) =  -796.370646134     A.U. after   10 cycles
 SCF Done:  E(RB3LYP) =  -796.370646353     A.U. after    8 cycles
 SCF Done:  E(RB3LYP) =  -796.370646379     A.U. after    8 cycles
 Optimization completed.
    -- Stationary point found.
 Normal termination of Gaussian 09 at Thu Jul 29 06:02:41 2021.

 ----------------------------------------------------------------------
 #N Geom=AllCheck Guess=TCheck SCRF=Check GenChk RB3LYP/6-311++G(2df,2p
 d) Freq
 ----------------------------------------------------------------------

 Structure from the checkpoint file:  "conf-455.chk"
 ------------------------------------------------------------
 Candidate Structure: Conf:455 OPT and FREQ calc in gas phase
 ------------------------------------------------------------
 Charge =  0 Multiplicity = 1

                          Input orientation:
 ---------------------------------------------------------------------
 Center     Atomic      Atomic             Coordinates (Angstroms)
 Number     Number       Type             X           Y           Z
 ---------------------------------------------------------------------
      1          8           0        0.380588   -0.632957   -1.213967
      2          6           0        1.022692   -0.370965   -0.203987
      3          7           0        0.542834   -0.608723    1.049236
      4          6           0       -0.572111   -1.487742    1.351407
      5          6           0       -0.120879   -2.962818    1.217779
      6          8           0       -1.095212   -3.897961    1.282826
      7          8           0        1.024725   -3.290877    1.125018
      8          6           0       -1.893927   -1.178496    0.593631
      9          6           0       -2.283729    0.260067    0.554189
     10          6           0       -3.092666    1.025105    1.355507
     11          7           0       -3.162455    2.314553    0.888729
     12          6           0       -2.409632    2.334824   -0.185805
     13          7           0       -1.857780    1.117344   -0.434907
     14          6           0        2.392823    0.276668   -0.275082
     15          6           0        2.426480    1.481954   -1.233613
     16          7           0        3.735219    2.088415   -1.436512
     17          1           0        1.192041   -0.467827    1.804277
     18          1           0       -0.777783   -1.344340    2.415450
     19          1           0       -1.972944   -3.500510    1.293239
     20          1           0       -2.700979   -1.709807    1.106010
     21          1           0       -1.829045   -1.572153   -0.418658
     22          1           0       -3.636144    0.714682    2.233026
     23          1           0       -2.234102    3.189885   -0.817078
     24          1           0       -1.216434    0.857989   -1.170571
     25          1           0        2.742690    0.574559    0.715743
     26          1           0        3.077773   -0.493367   -0.640419
     27          1           0        2.037409    1.166872   -2.200755
     28          1           0        1.751669    2.255895   -0.861167
     29          1           0        4.138330    2.422322   -0.570265
     30          1           0        4.390457    1.437309   -1.850328
 ---------------------------------------------------------------------

 SCF Done:  E(RB3LYP) =  -796.370646379     A.U. after    1 cycles

 Alpha  occ. eigenvalues --  -19.19584 -19.13322 -19.11488 -14.36937 -14.36827
 Alpha  occ. eigenvalues --  -14.30755 -14.29659 -10.32646 -10.29822 -10.26376
 Alpha  occ. eigenvalues --  -10.22676 -10.21882 -10.21372 -10.21018 -10.19560
 Alpha  occ. eigenvalues --  -10.18781  -1.13184  -1.06825  -1.05098  -1.02343
 Alpha  occ. eigenvalues --   -0.95988  -0.90053  -0.87889  -0.82754  -0.77923
 Alpha  occ. eigenvalues --   -0.75023  -0.69569  -0.65842  -0.64038  -0.62123
 Alpha  occ. eigenvalues --   -0.61062  -0.59991  -0.57129  -0.54511  -0.54396
 Alpha  occ. eigenvalues --   -0.52387  -0.50090  -0.48415  -0.47525  -0.46823
 Alpha  occ. eigenvalues --   -0.46364  -0.44902  -0.44601  -0.43628  -0.43077
 Alpha  occ. eigenvalues --   -0.42603  -0.41793  -0.41606  -0.40790  -0.40011
 Alpha  occ. eigenvalues --   -0.38720  -0.36271  -0.35010  -0.31090  -0.29867
 Alpha  occ. eigenvalues --   -0.29205  -0.28791  -0.27728  -0.25597  -0.23866
 Alpha virt. eigenvalues --   -0.03743  -0.02495  -0.02170  -0.01398  -0.00743
 Alpha virt. eigenvalues --   -0.00078   0.00761   0.00993   0.01357   0.01881
 Alpha virt. eigenvalues --    0.02873   0.03228   0.03442   0.04014   0.04409

 Mulliken charges:
               1
     1  O   -0.382011
     2  C   -0.426502
     3  N    0.145331
     4  C    0.272655
     5  C    0.097382
     6  O   -0.173177
     7  O   -0.327747
     8  C   -0.132704
     9  C    0.242000
    10  C   -0.424915
    11  N   -0.285250
    12  C    0.080592
    13  N    0.049171
    14  C    0.360646
    15  C   -0.280847
    16  N   -0.165129
    17  H    0.159300
    18  H    0.080401
    19  H    0.183330
    20  H    0.026023
    21  H    0.123122
    22  H    0.066100
    23  H    0.101140
    24  H    0.169360
    25  H    0.002206
    26  H    0.058792
    27  H    0.089348
    28  H    0.066244
    29  H    0.110717
    30  H    0.114422
 Sum of Mulliken charges =   0.00000

 Dipole moment (field-independent basis, Debye):
    X=              1.1436    Y=             -0.4006    Z=              1.7293  Tot=              2.1116
 Quadrupole moment (field-independent basis, Debye-Ang):
   XX=            -95.0696   YY=           -117.5574   ZZ=            -93.1496
   XY=             17.4688   XZ=              3.4845   YZ=             -3.0886

  Exact polarizability: 155.798  -2.548 158.832 -16.783 -14.801 126.958
 Approx polarizability: 214.359  -6.151 218.156 -18.730  -7.725 212.021

                      1                      2                      3
                      A                      A                      A
 Frequencies --     17.8793                22.4927                45.2857
 Red. masses --      5.0801                 4.9100                 3.3966
 Frc consts  --      0.0010                 0.0015                 0.0041
 IR Inten    --      1.3764                 2.6154                 9.2874

                      4                      5                      6
                      A                      A                      A
 Frequencies --     62.9603                72.8448                87.6289
 Red. masses --      3.4552                 4.5981                 3.1439
 Frc consts  --      0.0081                 0.0144                 0.0142
 IR Inten    --      3.0939                 6.5221                 0.7347

                      7                      8                      9
                      A                      A                      A
 Frequencies --     89.4120               113.3801               155.2273
 Red. masses --      5.1376                 5.6715                 4.6579
 Frc consts  --      0.0242                 0.0430                 0.0661
 IR Inten    --      2.9522                11.5384                 9.5643

                     10                     11                     12
                      A                      A                      A
 Frequencies --    196.9279               213.0318               279.8464
 Red. masses --      5.7634                 5.5116                 1.3524
 Frc consts  --      0.1317                 0.1474                 0.0624
 IR Inten    --      3.4597                11.3296                34.4835

                     13                     14                     15
                      A                      A                      A
 Frequencies --    282.4005               326.0206               342.5617
 Red. masses --      2.9416                 3.8759                 2.8411
 Frc consts  --      0.1382                 0.2427                 0.1964
 IR Inten    --      6.5079                 2.2442                13.0367

                     16                     17                     18
                      A                      A                      A
 Frequencies --    343.1309               397.6524               407.4133
 Red. masses --      4.2451                 3.5628                 2.8334
 Frc consts  --      0.2945                 0.3319                 0.2771
 IR Inten    --     10.0216                15.0857                19.1299

                     19                     20                     21
                      A                      A                      A
 Frequencies --    476.8041               525.3319               538.0324
 Red. masses --      1.3109                 4.2124                 1.3375
 Frc consts  --      0.1756                 0.6849                 0.2281
 IR Inten    --     55.7358                 7.8968                56.2817

                     22                     23                     24
                      A                      A                      A
 Frequencies --    599.7542               634.8882               660.6447
 Red. masses --      3.7327                 2.6803                 3.3398
 Frc consts  --      0.7911                 0.6366                 0.8588
 IR Inten    --      6.8433                40.1068                16.3441

                     25                     26                     27
                      A                      A                      A
 Frequencies --    677.2482               708.1985               722.1935
 Red. masses --      3.7879                 3.8404                 1.3050
 Frc consts  --      1.0236                 1.1348                 0.4010
 IR Inten    --     36.4357                 2.2985                50.4603

                     28                     29                     30
                      A                      A                      A
 Frequencies --    757.5363               763.7494               786.8850
 Red. masses --      5.2676                 1.4500                 2.1847
 Frc consts  --      1.7810                 0.4983                 0.7970
 IR Inten    --      9.6905                 5.2524                17.6841

                     31                     32                     33
                      A                      A                      A
 Frequencies --    801.9830               831.6287               840.9107
 Red. masses --      1.5647                 1.4485                 2.0794
 Frc consts  --      0.5929                 0.5902                 0.8663
 IR Inten    --    195.9768                16.8807                19.0282

                     34                     35                     36
                      A                      A                      A
 Frequencies --    866.7627               920.4294               926.3215
 Red. masses --      2.0833                 3.0203                 4.1966
 Frc consts  --      0.9222                 1.5076                 2.1217
 IR Inten    --      5.0740                 7.2137                 6.0025

                     37                     38                     39
                      A                      A                      A
 Frequencies --    941.8411               977.1833              1023.3405
 Red. masses --      5.3428                 1.3989                 4.6338
 Frc consts  --      2.7924                 0.7870                 2.8591
 IR Inten    --     11.0163                 0.6962                35.2493

                     40                     41                     42
                      A                      A                      A
 Frequencies --   1027.6704              1040.8153              1090.4694
 Red. masses --      3.8115                 3.0134                 3.0055
 Frc consts  --      2.3717                 1.9233                 2.1057
 IR Inten    --     19.6178                 6.3917                31.4911

                     43                     44                     45
                      A                      A                      A
 Frequencies --   1108.8685              1115.8070              1144.0359
 Red. masses --      2.3586                 1.6176                 2.1565
 Frc consts  --      1.7087                 1.1866                 1.6629
 IR Inten    --      5.8713                30.1199                11.0065

                     46                     47                     48
                      A                      A                      A
 Frequencies --   1150.0099              1168.7529              1207.1959
 Red. masses --      1.8751                 2.1222                 1.4825
 Frc consts  --      1.4611                 1.7080                 1.2729
 IR Inten    --     20.6615                 3.2528                 6.8532

                     49                     50                     51
                      A                      A                      A
 Frequencies --   1248.8003              1263.7274              1278.3667
 Red. masses --      1.8706                 2.1603                 1.4767
 Frc consts  --      1.7188                 2.0326                 1.4218
 IR Inten    --    178.3956                22.9826                38.9336

                     52                     53                     54
                      A                      A                      A
 Frequencies --   1292.4953              1294.4278              1306.8450
 Red. masses --      1.7605                 1.3287                 1.3674
 Frc consts  --      1.7328                 1.3117                 1.3760
 IR Inten    --    310.1207                 2.5689                26.4278

                     55                     56                     57
                      A                      A                      A
 Frequencies --   1351.9589              1364.5248              1385.1595
 Red. masses --      1.4521                 1.4080                 1.1967
 Frc consts  --      1.5638                 1.5446                 1.3528
 IR Inten    --     13.5800                13.3391                 7.4121

                     58                     59                     60
                      A                      A                      A
 Frequencies --   1386.1840              1393.5922              1399.5395
 Red. masses --      1.4142                 1.3246                 2.6286
 Frc consts  --      1.6010                 1.5156                 3.0335
 IR Inten    --     12.3876                33.4818                18.4022

                     61                     62                     63
                      A                      A                      A
 Frequencies --   1431.9280              1469.3983              1476.9675
 Red. masses --      2.9289                 1.1085                 1.1210
 Frc consts  --      3.5383                 1.4101                 1.4408
 IR Inten    --     23.0421                 7.5391                14.0813

                     64                     65                     66
                      A                      A                      A
 Frequencies --   1497.9684              1505.0067              1548.1616
 Red. masses --      3.3262                 1.0877                 1.7591
 Frc consts  --      4.3975                 1.4516                 2.4841
 IR Inten    --     29.7041                 3.2133               188.7501

                     67                     68                     69
                      A                      A                      A
 Frequencies --   1602.2249              1662.7730              1720.6944
 Red. masses --      4.2299                 1.0917                 7.5640
 Frc consts  --      6.3977                 1.7783                13.1950
 IR Inten    --      7.4905                29.8499               177.4736

                     70                     71                     72
                      A                      A                      A
 Frequencies --   1842.2754              3019.8740              3027.1997
 Red. masses --     10.9274                 1.0704                 1.0592
 Frc consts  --     21.8512                 5.7516                 5.7188
 IR Inten    --    270.6842                35.6801                 4.8394

                     73                     74                     75
                      A                      A                      A
 Frequencies --   3038.4478              3039.2667              3065.9231
 Red. masses --      1.0678                 1.0815                 1.0989
 Frc consts  --      5.8084                 5.8861                 6.0858
 IR Inten    --     32.2036                12.9905                 7.3244

                     76                     77                     78
                      A                      A                      A
 Frequencies --   3098.9826              3105.9317              3230.5768
 Red. masses --      1.1012                 1.0933                 1.0960
 Frc consts  --      6.2312                 6.2143                 6.7396
 IR Inten    --     16.6704                 2.8180                 6.7493

                     79                     80                     81
                      A                      A                      A
 Frequencies --   3246.4074              3506.0022              3585.6220
 Red. masses --      1.0974                 1.0482                 1.0944
 Frc consts  --      6.8141                 7.5913                 8.2897
 IR Inten    --      1.0295                 1.6927                 4.9176

                     82                     83                     84
                      A                      A                      A
 Frequencies --   3586.2908              3633.3055              3807.4109
 Red. masses --      1.0828                 1.0772                 1.0656
 Frc consts  --      8.2048                 8.3786                 9.1011
 IR Inten    --    146.8188                32.9027                63.4591

 - Thermochemistry -
 -------------------
 Temperature   298.150 Kelvin.  Pressure   1.00000 Atm.
 Atom     1 has atomic number  8 and mass  15.99491

 Molecular mass:   226.10659 amu.
 Principal axes and moments of inertia in atomic units:
                           1         2         3
     Eigenvalues --  3590.776674040.189997059.22397
           X            0.85946  -0.43382   0.27042
           Y            0.35524   0.88723   0.29431
           Z           -0.36760  -0.15688   0.91665
 This molecule is an asymmetric top.
 Rotational symmetry number  1.
 Warning -- assumption of classical behavior for rotation
           may cause significant error
 Rotational temperatures (Kelvin)      0.02412     0.02144     0.01227
 Rotational constants (GHZ):           0.50260     0.44670     0.25566
 Zero-point vibrational energy     641232.2 (Joules/Mol)
                                  153.25817 (Kcal/Mol)
 Warning -- explicit consideration of  22 degrees of freedom as
           vibrations may cause significant error
 Vibrational temperatures:     25.72    32.36    65.16    90.59   104.81
          (Kelvin)            126.08   128.64   163.13   223.34   283.33
                              306.50   402.64   406.31   469.07   492.87
                              493.69   572.13   586.18   686.01   755.83
                              774.11   862.91   913.46   950.52   974.41
                             1018.94  1039.07  1089.92  1098.86  1132.15
                             1153.87  1196.53  1209.88  1247.08  1324.29
                             1332.77  1355.10  1405.95  1472.36  1478.59
                             1497.50  1568.94  1595.41  1605.40  1646.01
                             1654.61  1681.57  1736.88  1796.74  1818.22
                             1839.28  1859.61  1862.39  1880.26  1945.16
                             1963.24  1992.93  1994.41  2005.07  2013.62
                             2060.22  2114.13  2125.02  2155.24  2165.37
                             2227.46  2305.24  2392.36  2475.69  2650.62
                             4344.92  4355.46  4371.64  4372.82  4411.17
                             4458.74  4468.74  4648.07  4670.85  5044.35
                             5158.90  5159.87  5227.51  5478.01

 Zero-point correction=                           0.244232 (Hartree/Particle)
 Thermal correction to Energy=                    0.260443
 Thermal correction to Enthalpy=                  0.261388
 Thermal correction to Gibbs Free Energy=         0.197348
 Sum of electronic and zero-point Energies=           -796.126414
 Sum of electronic and thermal Energies=              -796.110203
 Sum of electronic and thermal Enthalpies=            -796.109259
 Sum of electronic and thermal Free Energies=         -796.173299

                     E (Thermal)             CV                S
                      KCal/Mol        Cal/Mol-Kelvin    Cal/Mol-Kelvin
 Total                  163.431             58.747            134.783
 Electronic               0.000              0.000              0.000
 Translational            0.889              2.981             42.150
 Rotational               0.889              2.981             32.993
 Vibrational            161.653             52.786             59.640
 Vibration     1          0.593              1.986              6.857
 Vibration     2          0.593              1.985              6.401
 Vibration     3          0.595              1.979              5.013
 Vibration     4          0.597              1.972              4.362
 Vibration     5          0.599              1.967              4.075
 Vibration     6          0.601              1.958              3.712
 Vibration     7          0.602              1.957              3.673
 Vibration     8          0.607              1.938              3.210
 Vibration     9          0.620              1.897              2.607
 Vibration    10          0.636              1.844              2.162
 Vibration    11          0.644              1.821              2.018
 Vibration    12          0.680              1.711              1.535
 Vibration    13          0.681              1.706              1.519
 Vibration    14          0.710              1.623              1.280
 Vibration    15          0.722              1.590              1.200
 Vibration    16          0.722              1.589              1.198
 Vibration    17          0.764              1.475              0.971
 Vibration    18          0.772              1.454              0.936
 Vibration    19          0.833              1.302              0.719
 Vibration    20          0.880              1.194              0.598
 Vibration    21          0.893              1.166              0.570
 Vibration    22          0.958              1.032              0.450

 Optimization completed.
    -- Stationary point found.
 Normal termination of Gaussian 09 at Thu Jul 29 13:14:43 2021.
