 Gaussian 09, Revision D.01,
 Gaussian 09:  ES64L-G09RevD.01 24-Apr-2013

 ----------------------------------------------------------------------
 # B3LYP/6-311++G(2df,2pd) guess=read geom=checkpoint opt=readfc freq=n
 oraman nosymm integral(ultrafinegrid)
 ----------------------------------------------------------------------

 ------------------------------------------------------------
 Candidate Structure: Conf:118 OPT and FREQ calc in gas phase
 ------------------------------------------------------------
 Structure from the checkpoint file:  "conf-118.chk"
 Charge =  0 Multiplicity = 1

 SCF Done:  E(RB3LYP) =  -796.390826479     A.U. after   13 cycles
 SCF Done:  E(RB3LYP) =  -796.391600372     A.U. after   11 cycles
 SCF Done:  E(RB3LYP) =  -796.391621121     A.U. after   11 cycles
 SCF Done:  E(RB3LYP) =  -796.391621562     A.U. after    9 cycles
 Optimization completed.
    -- Stationary point found.
 Normal termination of Gaussian 09 at Thu Jul 29 03:44:06 2021.

 ----------------------------------------------------------------------
 #N Geom=AllCheck Guess=TCheck SCRF=Check GenChk RB3LYP/6-311++G(2df,2p
 d) Freq
 ----------------------------------------------------------------------

 Structure from the checkpoint file:  "conf-118.chk"
 ------------------------------------------------------------
 Candidate Structure: Conf:118 OPT and FREQ calc in gas phase
 ------------------------------------------------------------
 Charge =  0 Multiplicity = 1

                          Input orientation:
 ---------------------------------------------------------------------
 Center     Atomic      Atomic             Coordinates (Angstroms)
 Number     Number       Type             X           Y           Z
 ---------------------------------------------------------------------
      1          8           0       -1.002988   -1.923508    1.777431
      2          6           0       -1.036923   -1.292218    0.715072
      3          7           0        0.067937   -0.697577    0.217213
      4          6           0        1.403802   -0.863780    0.787075
      5          6           0        1.576933   -0.072118    2.105162
      6          8           0        0.745991   -0.417036    3.077558
      7          8           0        2.422616    0.776778    2.258904
      8          6           0        2.470589   -0.516026   -0.266414
      9          6           0        2.288074    0.800086   -0.946994
     10          6           0        1.919360    1.119208   -2.231521
     11          7           0        1.879615    2.481489   -2.404913
     12          6           0        2.219045    2.985959   -1.242103
     13          7           0        2.478434    2.014729   -0.327141
     14          6           0       -2.320100   -1.134849   -0.064926
     15          6           0       -3.415601   -0.429737    0.768041
     16          7           0       -4.709721   -0.303413    0.117590
     17          1           0        0.001043   -0.120150   -0.608615
     18          1           0        1.511940   -1.917909    1.057442
     19          1           0        0.099139   -1.101936    2.761477
     20          1           0        2.451590   -1.293669   -1.030382
     21          1           0        3.444700   -0.568622    0.220506
     22          1           0        1.708205    0.440915   -3.042507
     23          1           0        2.292500    4.034877   -1.007793
     24          1           0        2.710065    2.111842    0.651714
     25          1           0       -2.661719   -2.140059   -0.321818
     26          1           0       -2.150780   -0.594445   -0.998230
     27          1           0       -3.545918   -0.976434    1.701004
     28          1           0       -3.072660    0.571237    1.037451
     29          1           0       -4.658596    0.230753   -0.740244
     30          1           0       -5.116477   -1.204380   -0.098553
 ---------------------------------------------------------------------

 SCF Done:  E(RB3LYP) =  -796.391621562     A.U. after    1 cycles

 Alpha  occ. eigenvalues --  -19.17102 -19.13009 -19.12911 -14.38049 -14.37198
 Alpha  occ. eigenvalues --  -14.31200 -14.30132 -10.32158 -10.30987 -10.25895
 Alpha  occ. eigenvalues --  -10.23159 -10.21788 -10.21637 -10.21406 -10.20418
 Alpha  occ. eigenvalues --  -10.19401  -1.12114  -1.07993  -1.03853  -1.02725
 Alpha  occ. eigenvalues --   -0.96924  -0.90573  -0.88271  -0.82899  -0.78541
 Alpha  occ. eigenvalues --   -0.75364  -0.69177  -0.66193  -0.63098  -0.62865
 Alpha  occ. eigenvalues --   -0.61701  -0.60479  -0.57145  -0.56067  -0.53368
 Alpha  occ. eigenvalues --   -0.52191  -0.51590  -0.48588  -0.47456  -0.47029
 Alpha  occ. eigenvalues --   -0.46316  -0.45705  -0.44925  -0.44279  -0.43337
 Alpha  occ. eigenvalues --   -0.42449  -0.42201  -0.41792  -0.40618  -0.39844
 Alpha  occ. eigenvalues --   -0.38745  -0.37034  -0.33901  -0.32712  -0.30522
 Alpha  occ. eigenvalues --   -0.29692  -0.28796  -0.28218  -0.26105  -0.24566
 Alpha virt. eigenvalues --   -0.03304  -0.02963  -0.01532  -0.01301  -0.00480
 Alpha virt. eigenvalues --   -0.00087   0.00393   0.00897   0.01203   0.01998
 Alpha virt. eigenvalues --    0.02535   0.03184   0.03571   0.03759   0.04787

 Mulliken charges:
               1
     1  O   -0.420821
     2  C   -0.291849
     3  N    0.108521
     4  C    0.118047
     5  C    0.117664
     6  O   -0.200496
     7  O   -0.382695
     8  C   -0.333716
     9  C    0.329873
    10  C   -0.367387
    11  N   -0.267188
    12  C    0.110737
    13  N   -0.015894
    14  C    0.432202
    15  C   -0.222739
    16  N   -0.171164
    17  H    0.102859
    18  H    0.110428
    19  H    0.247200
    20  H    0.075272
    21  H    0.082046
    22  H    0.072651
    23  H    0.103364
    24  H    0.185319
    25  H    0.059171
    26  H    0.048549
    27  H    0.079601
    28  H    0.067357
    29  H    0.108617
    30  H    0.114472
 Sum of Mulliken charges =   0.00000

 Dipole moment (field-independent basis, Debye):
    X=             -0.8071    Y=             -2.5511    Z=             -2.3216  Tot=              3.5425
 Quadrupole moment (field-independent basis, Debye-Ang):
   XX=            -97.5392   YY=            -95.3499   ZZ=           -116.5371
   XY=             -1.2375   XZ=              6.6504   YZ=              9.7564

  Exact polarizability: 155.408  16.052 143.746   1.436 -12.898 145.102
 Approx polarizability: 201.956  18.663 221.555   7.871 -13.476 222.687

                      1                      2                      3
                      A                      A                      A
 Frequencies --     23.4578                45.6217                58.3855
 Red. masses --      4.4061                 7.3012                 2.7943
 Frc consts  --      0.0014                 0.0090                 0.0056
 IR Inten    --      0.1296                 1.4424                 4.5980

                      4                      5                      6
                      A                      A                      A
 Frequencies --     76.0331                85.8034                93.0836
 Red. masses --      3.9386                 3.2682                 4.3917
 Frc consts  --      0.0134                 0.0142                 0.0224
 IR Inten    --      7.0003                 0.0853                 4.2256

                      7                      8                      9
                      A                      A                      A
 Frequencies --    130.5885               153.6920               195.0791
 Red. masses --      8.9348                 5.6829                 4.2645
 Frc consts  --      0.0898                 0.0791                 0.0956
 IR Inten    --     11.0946                 5.5885                11.2606

                     10                     11                     12
                      A                      A                      A
 Frequencies --    213.4209               229.9222               271.0097
 Red. masses --      4.7804                 6.9436                 6.6591
 Frc consts  --      0.1283                 0.2163                 0.2882
 IR Inten    --      4.4116                14.7737                 0.8962

                     13                     14                     15
                      A                      A                      A
 Frequencies --    287.0053               302.6803               345.4605
 Red. masses --      1.1078                 5.3378                 4.8162
 Frc consts  --      0.0538                 0.2881                 0.3387
 IR Inten    --     37.0820                 1.5276                 4.7197

                     16                     17                     18
                      A                      A                      A
 Frequencies --    363.0735               382.7037               440.6279
 Red. masses --      2.3806                 4.1051                 3.3879
 Frc consts  --      0.1849                 0.3542                 0.3875
 IR Inten    --      5.7345                 4.8896                23.9810

                     19                     20                     21
                      A                      A                      A
 Frequencies --    565.1167               576.0635               606.1803
 Red. masses --      1.4461                 3.6017                 3.6124
 Frc consts  --      0.2721                 0.7042                 0.7821
 IR Inten    --     35.5989                18.1096                 8.5539

                     22                     23                     24
                      A                      A                      A
 Frequencies --    633.9190               661.0906               672.7667
 Red. masses --      3.5445                 2.7789                 3.2053
 Frc consts  --      0.8392                 0.7156                 0.8548
 IR Inten    --      8.6025                 2.0483                44.4580

                     25                     26                     27
                      A                      A                      A
 Frequencies --    729.5359               739.2350               763.3441
 Red. masses --      1.5380                 2.2475                 4.2167
 Frc consts  --      0.4823                 0.7236                 1.4477
 IR Inten    --     19.1090                50.3777                10.2946

                     28                     29                     30
                      A                      A                      A
 Frequencies --    770.4906               783.4364               793.1172
 Red. masses --      1.4639                 2.1335                 2.2184
 Frc consts  --      0.5120                 0.7715                 0.8222
 IR Inten    --      3.6178                77.8901               157.2140

                     31                     32                     33
                      A                      A                      A
 Frequencies --    842.2398               849.5075               865.3241
 Red. masses --      1.4217                 1.9779                 1.8947
 Frc consts  --      0.5942                 0.8410                 0.8359
 IR Inten    --     20.7976                22.7059                10.7872

                     34                     35                     36
                      A                      A                      A
 Frequencies --    932.2141               937.6447               948.2780
 Red. masses --      1.4153                 5.4516                 1.8159
 Frc consts  --      0.7247                 2.8239                 0.9621
 IR Inten    --     58.5073                 8.0539                27.2323

                     37                     38                     39
                      A                      A                      A
 Frequencies --    975.8245               985.1239              1007.5973
 Red. masses --      1.3872                 4.3854                 4.3698
 Frc consts  --      0.7783                 2.5075                 2.6139
 IR Inten    --      1.1551                 5.7474                47.7978

                     40                     41                     42
                      A                      A                      A
 Frequencies --   1011.4342              1057.9773              1088.7152
 Red. masses --      4.3943                 2.4523                 2.4150
 Frc consts  --      2.6486                 1.6173                 1.6865
 IR Inten    --     15.4433                11.6923                 7.2252

                     43                     44                     45
                      A                      A                      A
 Frequencies --   1100.3372              1114.6455              1139.5877
 Red. masses --      3.7694                 1.6101                 1.4240
 Frc consts  --      2.6889                 1.1787                 1.0896
 IR Inten    --     21.6541                43.8309                 5.0371

                     46                     47                     48
                      A                      A                      A
 Frequencies --   1143.7461              1222.7380              1239.0896
 Red. masses --      2.1233                 1.6365                 2.4951
 Frc consts  --      1.6365                 1.4415                 2.2571
 IR Inten    --      7.2068                11.0935                47.8724

                     49                     50                     51
                      A                      A                      A
 Frequencies --   1252.8670              1262.2236              1290.6562
 Red. masses --      1.6018                 2.0826                 1.3186
 Frc consts  --      1.4814                 1.9549                 1.2942
 IR Inten    --     25.4957                 3.6527                 6.1310

                     52                     53                     54
                      A                      A                      A
 Frequencies --   1292.3591              1307.6803              1351.8280
 Red. masses --      1.3218                 1.5277                 1.6782
 Frc consts  --      1.3007                 1.5392                 1.8069
 IR Inten    --      1.1988                27.7793                14.4268

                     55                     56                     57
                      A                      A                      A
 Frequencies --   1369.9880              1382.7426              1384.9992
 Red. masses --      1.6252                 1.4796                 1.2001
 Frc consts  --      1.7972                 1.6667                 1.3563
 IR Inten    --     10.1070                 3.8479                11.5288

                     58                     59                     60
                      A                      A                      A
 Frequencies --   1391.7774              1393.7642              1423.6702
 Red. masses --      1.2151                 2.7409                 2.6860
 Frc consts  --      1.3867                 3.1371                 3.2075
 IR Inten    --     16.7260                26.3167                56.3106

                     61                     62                     63
                      A                      A                      A
 Frequencies --   1462.6094              1474.7128              1479.0110
 Red. masses --      1.3641                 1.1279                 1.1215
 Frc consts  --      1.7193                 1.4452                 1.4454
 IR Inten    --    209.9116                23.3131                 2.2709

                     64                     65                     66
                      A                      A                      A
 Frequencies --   1501.1802              1503.4557              1530.4637
 Red. masses --      3.3127                 1.0894                 2.3352
 Frc consts  --      4.3985                 1.4508                 3.2228
 IR Inten    --     19.5925                 6.1537               463.2314

                     67                     68                     69
                      A                      A                      A
 Frequencies --   1598.5050              1662.3108              1671.7078
 Red. masses --      4.2504                 1.1819                 4.7791
 Frc consts  --      6.3989                 1.9242                 7.8690
 IR Inten    --     12.3672                76.1094               174.3050

                     70                     71                     72
                      A                      A                      A
 Frequencies --   1798.9197              3033.0280              3034.0626
 Red. masses --      8.0613                 1.0819                 1.0592
 Frc consts  --     15.3702                 5.8640                 5.7449
 IR Inten    --    380.5262                 3.2850                 3.3519

                     73                     74                     75
                      A                      A                      A
 Frequencies --   3044.5681              3058.0545              3074.6611
 Red. masses --      1.0657                 1.0610                 1.1001
 Frc consts  --      5.8201                 5.8462                 6.1276
 IR Inten    --     26.3576                17.4817                 3.6291

                     76                     77                     78
                      A                      A                      A
 Frequencies --   3095.7418              3101.5955              3218.7484
 Red. masses --      1.1038                 1.1037                 1.0748
 Frc consts  --      6.2325                 6.2555                 6.5607
 IR Inten    --      4.5261                17.2965               748.3820

                     79                     80                     81
                      A                      A                      A
 Frequencies --   3228.6599              3247.0086              3509.7019
 Red. masses --      1.0960                 1.0975                 1.0481
 Frc consts  --      6.7312                 6.8174                 7.6066
 IR Inten    --      7.9726                 0.7533                 2.2225

                     82                     83                     84
                      A                      A                      A
 Frequencies --   3568.7024              3581.3383              3590.5816
 Red. masses --      1.0786                 1.0825                 1.0947
 Frc consts  --      8.0935                 8.1806                 8.3156
 IR Inten    --    105.2611               197.9235                 3.3304

 - Thermochemistry -
 -------------------
 Temperature   298.150 Kelvin.  Pressure   1.00000 Atm.
 Atom     1 has atomic number  8 and mass  15.99491

 Molecular mass:   226.10659 amu.
 Principal axes and moments of inertia in atomic units:
                           1         2         3
     Eigenvalues --  2653.609415509.356887041.21737
           X            0.86834   0.42707  -0.25219
           Y            0.42217  -0.36959   0.82775
           Z           -0.26030   0.82524   0.50123
 This molecule is an asymmetric top.
 Rotational symmetry number  1.
 Warning -- assumption of classical behavior for rotation
           may cause significant error
 Rotational temperatures (Kelvin)      0.03264     0.01572     0.01230
 Rotational constants (GHZ):           0.68011     0.32758     0.25631
 Zero-point vibrational energy     643757.5 (Joules/Mol)
                                  153.86174 (Kcal/Mol)
 Warning -- explicit consideration of  21 degrees of freedom as
           vibrations may cause significant error
 Vibrational temperatures:     33.75    65.64    84.00   109.39   123.45
          (Kelvin)            133.93   187.89   221.13   280.67   307.06
                              330.81   389.92   412.94   435.49   497.04
                              522.38   550.62   633.96   813.08   828.83
                              872.16   912.07   951.16   967.96  1049.64
                             1063.59  1098.28  1108.56  1127.19  1141.12
                             1211.79  1222.25  1245.01  1341.25  1349.06
                             1364.36  1403.99  1417.37  1449.71  1455.23
                             1522.19  1566.42  1583.14  1603.72  1639.61
                             1645.59  1759.25  1782.77  1802.59  1816.06
                             1856.96  1859.41  1881.46  1944.98  1971.10
                             1989.46  1992.70  2002.45  2005.31  2048.34
                             2104.37  2121.78  2127.96  2159.86  2163.13
                             2201.99  2299.89  2391.69  2405.21  2588.24
                             4363.85  4365.33  4380.45  4399.85  4423.75
                             4454.08  4462.50  4631.06  4645.32  4671.72
                             5049.67  5134.56  5152.74  5166.04

 Zero-point correction=                           0.245194 (Hartree/Particle)
 Thermal correction to Energy=                    0.260695
 Thermal correction to Enthalpy=                  0.261639
 Thermal correction to Gibbs Free Energy=         0.200526
 Sum of electronic and zero-point Energies=           -796.146427
 Sum of electronic and thermal Energies=              -796.130926
 Sum of electronic and thermal Enthalpies=            -796.129982
 Sum of electronic and thermal Free Energies=         -796.191096

                     E (Thermal)             CV                S
                      KCal/Mol        Cal/Mol-Kelvin    Cal/Mol-Kelvin
 Total                  163.589             57.214            128.624
 Electronic               0.000              0.000              0.000
 Translational            0.889              2.981             42.150
 Rotational               0.889              2.981             32.998
 Vibrational            161.811             51.253             53.476
 Vibration     1          0.593              1.985              6.318
 Vibration     2          0.595              1.979              4.999
 Vibration     3          0.596              1.974              4.511
 Vibration     4          0.599              1.965              3.991
 Vibration     5          0.601              1.959              3.754
 Vibration     6          0.602              1.954              3.594
 Vibration     7          0.612              1.923              2.937
 Vibration     8          0.619              1.899              2.626
 Vibration     9          0.636              1.847              2.179
 Vibration    10          0.644              1.820              2.014
 Vibration    11          0.652              1.795              1.880
 Vibration    12          0.675              1.727              1.590
 Vibration    13          0.684              1.698              1.492
 Vibration    14          0.694              1.669              1.402
 Vibration    15          0.724              1.585              1.187
 Vibration    16          0.737              1.548              1.109
 Vibration    17          0.752              1.507              1.028
 Vibration    18          0.801              1.382              0.825
 Vibration    19          0.921              1.107              0.514
 Vibration    20          0.932              1.083              0.493
 Vibration    21          0.965              1.019              0.439

 Optimization completed.
    -- Stationary point found.
 Normal termination of Gaussian 09 at Thu Jul 29 10:13:07 2021.
