 Gaussian 09, Revision D.01,
 Gaussian 09:  ES64L-G09RevD.01 24-Apr-2013

 ----------------------------------------------------------------------
 # B3LYP/6-311++G(2df,2pd) guess=read geom=checkpoint opt=readfc freq=n
 oraman nosymm integral(ultrafinegrid)
 ----------------------------------------------------------------------

 ------------------------------------------------------------
 Candidate Structure: Conf:273 OPT and FREQ calc in gas phase
 ------------------------------------------------------------
 Structure from the checkpoint file:  "conf-273.chk"
 Charge =  0 Multiplicity = 1

 SCF Done:  E(RB3LYP) =  -796.381167589     A.U. after   12 cycles
 SCF Done:  E(RB3LYP) =  -796.381990479     A.U. after   11 cycles
 SCF Done:  E(RB3LYP) =  -796.382012380     A.U. after   11 cycles
 SCF Done:  E(RB3LYP) =  -796.382013430     A.U. after    9 cycles
 SCF Done:  E(RB3LYP) =  -796.382013463     A.U. after    7 cycles
 Optimization completed.
    -- Stationary point found.
 Normal termination of Gaussian 09 at Thu Jul 29 04:02:07 2021.

 ----------------------------------------------------------------------
 #N Geom=AllCheck Guess=TCheck SCRF=Check GenChk RB3LYP/6-311++G(2df,2p
 d) Freq
 ----------------------------------------------------------------------

 Structure from the checkpoint file:  "conf-273.chk"
 ------------------------------------------------------------
 Candidate Structure: Conf:273 OPT and FREQ calc in gas phase
 ------------------------------------------------------------
 Charge =  0 Multiplicity = 1

                          Input orientation:
 ---------------------------------------------------------------------
 Center     Atomic      Atomic             Coordinates (Angstroms)
 Number     Number       Type             X           Y           Z
 ---------------------------------------------------------------------
      1          8           0        0.626516   -1.673069    1.660670
      2          6           0        0.864263   -0.646053    1.019422
      3          7           0        0.305928   -0.430147   -0.192920
      4          6           0       -0.784914   -1.246288   -0.738015
      5          6           0       -0.272686   -2.614266   -1.258584
      6          8           0        0.321385   -3.376786   -0.345969
      7          8           0       -0.423525   -2.970029   -2.397240
      8          6           0       -1.512879   -0.497875   -1.850200
      9          6           0       -2.174610    0.769180   -1.410265
     10          6           0       -2.446618    1.329955   -0.188805
     11          7           0       -3.126624    2.518212   -0.330945
     12          6           0       -3.271824    2.684931   -1.619275
     13          7           0       -2.710839    1.657749   -2.321154
     14          6           0        1.778548    0.433086    1.553625
     15          6           0        3.016746   -0.138962    2.244555
     16          7           0        3.796829    0.942518    2.844837
     17          1           0        0.493529    0.444777   -0.654119
     18          1           0       -1.476352   -1.462067    0.082143
     19          1           0        0.383017   -2.902266    0.521845
     20          1           0       -2.245006   -1.186695   -2.274546
     21          1           0       -0.804622   -0.303102   -2.661206
     22          1           0       -2.195697    0.948148    0.786077
     23          1           0       -3.761851    3.514257   -2.101579
     24          1           0       -2.707264    1.552693   -3.321554
     25          1           0        2.067244    1.120852    0.755315
     26          1           0        1.210274    1.016851    2.282360
     27          1           0        2.690590   -0.809713    3.037335
     28          1           0        3.582201   -0.747798    1.526975
     29          1           0        4.506685    0.576851    3.465657
     30          1           0        4.271519    1.495360    2.141602
 ---------------------------------------------------------------------

 SCF Done:  E(RB3LYP) =  -796.382013463     A.U. after    1 cycles

 Alpha  occ. eigenvalues --  -19.15961 -19.12723 -19.11490 -14.38520 -14.37764
 Alpha  occ. eigenvalues --  -14.30966 -14.30635 -10.30850 -10.30667 -10.25495
 Alpha  occ. eigenvalues --  -10.23765 -10.22441 -10.21269 -10.21177 -10.20080
 Alpha  occ. eigenvalues --  -10.19637  -1.10887  -1.07667  -1.03481  -1.02607
 Alpha  occ. eigenvalues --   -0.96608  -0.90230  -0.89046  -0.83001  -0.78502
 Alpha  occ. eigenvalues --   -0.75408  -0.69242  -0.65599  -0.63354  -0.62283
 Alpha  occ. eigenvalues --   -0.61472  -0.60520  -0.57234  -0.54453  -0.53881
 Alpha  occ. eigenvalues --   -0.52614  -0.51043  -0.48271  -0.47290  -0.46930
 Alpha  occ. eigenvalues --   -0.45881  -0.45247  -0.44570  -0.44014  -0.43819
 Alpha  occ. eigenvalues --   -0.42752  -0.42588  -0.41118  -0.40248  -0.38485
 Alpha  occ. eigenvalues --   -0.38201  -0.37023  -0.32603  -0.31882  -0.30346
 Alpha  occ. eigenvalues --   -0.29884  -0.28768  -0.27719  -0.26173  -0.24708
 Alpha virt. eigenvalues --   -0.02987  -0.02406  -0.01978  -0.01040  -0.00649
 Alpha virt. eigenvalues --   -0.00447   0.00235   0.00654   0.01392   0.01628
 Alpha virt. eigenvalues --    0.02336   0.03187   0.03884   0.03971   0.04063

 Mulliken charges:
               1
     1  O   -0.418674
     2  C   -0.038203
     3  N    0.136313
     4  C    0.242330
     5  C    0.121684
     6  O   -0.220490
     7  O   -0.366357
     8  C   -0.336186
     9  C    0.135346
    10  C   -0.268418
    11  N   -0.283480
    12  C    0.174434
    13  N   -0.017807
    14  C    0.069675
    15  C   -0.203742
    16  N   -0.164499
    17  H    0.135055
    18  H    0.078762
    19  H    0.251925
    20  H    0.089405
    21  H    0.102566
    22  H    0.106631
    23  H    0.114371
    24  H    0.131769
    25  H    0.009886
    26  H    0.090367
    27  H    0.066364
    28  H    0.052915
    29  H    0.114512
    30  H    0.093547
 Sum of Mulliken charges =   0.00000

 Dipole moment (field-independent basis, Debye):
    X=              1.7326    Y=              3.8169    Z=             -2.2609  Tot=              4.7626
 Quadrupole moment (field-independent basis, Debye-Ang):
   XX=            -85.9158   YY=           -118.6850   ZZ=            -93.0909
   XY=              5.3613   XZ=             13.2240   YZ=            -18.3405

  Exact polarizability: 137.422 -16.076 152.805  25.367   4.112 152.391
 Approx polarizability: 179.811 -16.270 216.083  14.158  -0.670 243.689

                      1                      2                      3
                      A                      A                      A
 Frequencies --     24.1553                30.8560                44.0107
 Red. masses --      4.1016                 3.3153                 3.2938
 Frc consts  --      0.0014                 0.0019                 0.0038
 IR Inten    --      0.5517                 2.2126                 5.8429

                      4                      5                      6
                      A                      A                      A
 Frequencies --     62.7238                72.1440                85.4744
 Red. masses --      6.0094                 3.8129                 3.6875
 Frc consts  --      0.0139                 0.0117                 0.0159
 IR Inten    --      4.5939                10.8920                 0.5935

                      7                      8                      9
                      A                      A                      A
 Frequencies --     87.4873               156.7358               174.6044
 Red. masses --      6.2052                 4.7346                 3.8982
 Frc consts  --      0.0280                 0.0685                 0.0700
 IR Inten    --      1.1984                13.6538                 3.2124

                     10                     11                     12
                      A                      A                      A
 Frequencies --    215.4264               221.1626               232.4532
 Red. masses --      6.6121                 1.9593                 1.9838
 Frc consts  --      0.1808                 0.0565                 0.0632
 IR Inten    --      7.1000                17.3460                17.6891

                     13                     14                     15
                      A                      A                      A
 Frequencies --    258.7208               283.6101               315.1399
 Red. masses --      2.9190                 3.8658                 6.2802
 Frc consts  --      0.1151                 0.1832                 0.3675
 IR Inten    --     14.4311                14.0780                 4.9399

                     16                     17                     18
                      A                      A                      A
 Frequencies --    358.1207               385.4268               438.6093
 Red. masses --      5.8369                 4.4850                 3.0175
 Frc consts  --      0.4411                 0.3925                 0.3420
 IR Inten    --      1.8952                 1.8168                 6.0511

                     19                     20                     21
                      A                      A                      A
 Frequencies --    478.5984               531.0454               541.3437
 Red. masses --      1.2451                 1.4188                 4.3927
 Frc consts  --      0.1680                 0.2357                 0.7584
 IR Inten    --     77.3356                69.0374                18.9882

                     22                     23                     24
                      A                      A                      A
 Frequencies --    623.3502               632.7238               652.4447
 Red. masses --      5.4661                 2.7339                 2.3984
 Frc consts  --      1.2514                 0.6449                 0.6015
 IR Inten    --     11.7648                15.9118                15.4363

                     25                     26                     27
                      A                      A                      A
 Frequencies --    679.8452               730.3835               753.6826
 Red. masses --      3.0220                 4.5723                 3.7130
 Frc consts  --      0.8229                 1.4371                 1.2427
 IR Inten    --      6.7410                 2.1283                12.5414

                     28                     29                     30
                      A                      A                      A
 Frequencies --    774.5464               798.0101               825.3839
 Red. masses --      4.2632                 1.5273                 1.3529
 Frc consts  --      1.5069                 0.5731                 0.5430
 IR Inten    --     32.1788                22.7662                78.5020

                     31                     32                     33
                      A                      A                      A
 Frequencies --    826.5148               848.7134               879.6866
 Red. masses --      1.4081                 1.3913                 2.3024
 Frc consts  --      0.5667                 0.5905                 1.0497
 IR Inten    --     18.3071                11.8379                11.0858

                     34                     35                     36
                      A                      A                      A
 Frequencies --    911.9028               932.6467               944.4071
 Red. masses --      1.2003                 5.1793                 3.4744
 Frc consts  --      0.5881                 2.6543                 1.8258
 IR Inten    --     80.9440                14.1165                 6.6926

                     37                     38                     39
                      A                      A                      A
 Frequencies --    963.3323               995.8005              1022.9829
 Red. masses --      2.4756                 2.7598                 3.9099
 Frc consts  --      1.3536                 1.6124                 2.4107
 IR Inten    --      5.0107                 1.7003                 8.9759

                     40                     41                     42
                      A                      A                      A
 Frequencies --   1060.3235              1083.5232              1092.1029
 Red. masses --      2.8583                 2.4977                 2.4177
 Frc consts  --      1.8934                 1.7277                 1.6989
 IR Inten    --     17.8107                12.8936                27.8414

                     43                     44                     45
                      A                      A                      A
 Frequencies --   1108.2196              1112.0132              1144.7483
 Red. masses --      1.8115                 2.5735                 2.5560
 Frc consts  --      1.3108                 1.8750                 1.9735
 IR Inten    --     12.7889                 9.1900                14.6684

                     46                     47                     48
                      A                      A                      A
 Frequencies --   1156.9135              1200.4927              1219.4181
 Red. masses --      1.3613                 1.7659                 2.4681
 Frc consts  --      1.0735                 1.4995                 2.1623
 IR Inten    --      3.5386                25.5899                26.0545

                     49                     50                     51
                      A                      A                      A
 Frequencies --   1239.8391              1263.1585              1282.7135
 Red. masses --      1.6142                 1.4525                 1.5720
 Frc consts  --      1.4619                 1.3655                 1.5239
 IR Inten    --     22.4910                 4.5586                40.0949

                     52                     53                     54
                      A                      A                      A
 Frequencies --   1284.8569              1316.7144              1339.2755
 Red. masses --      1.4507                 1.6268                 1.1137
 Frc consts  --      1.4110                 1.6618                 1.1770
 IR Inten    --     17.9220                11.9499                 5.2628

                     55                     56                     57
                      A                      A                      A
 Frequencies --   1353.8755              1368.2375              1381.8208
 Red. masses --      1.7882                 1.5114                 1.4983
 Frc consts  --      1.9312                 1.6670                 1.6855
 IR Inten    --      1.9691                 7.9413                10.3193

                     58                     59                     60
                      A                      A                      A
 Frequencies --   1419.1507              1422.8063              1424.3476
 Red. masses --      2.1866                 2.6404                 1.4764
 Frc consts  --      2.5947                 3.1493                 1.7647
 IR Inten    --      8.2959                16.9965                29.8574

                     61                     62                     63
                      A                      A                      A
 Frequencies --   1458.0620              1468.9463              1484.0571
 Red. masses --      1.3352                 1.1019                 1.1670
 Frc consts  --      1.6725                 1.4009                 1.5144
 IR Inten    --    239.8490                 7.8589                32.1972

                     64                     65                     66
                      A                      A                      A
 Frequencies --   1501.7110              1518.6715              1532.6536
 Red. masses --      3.3158                 1.0839                 2.1692
 Frc consts  --      4.4056                 1.4729                 3.0022
 IR Inten    --     18.1749                 1.9238               340.7669

                     67                     68                     69
                      A                      A                      A
 Frequencies --   1605.9056              1663.2712              1683.9884
 Red. masses --      4.1419                 1.1011                 6.7389
 Frc consts  --      6.2935                 1.7947                11.2595
 IR Inten    --      9.8832                21.3813               233.1648

                     70                     71                     72
                      A                      A                      A
 Frequencies --   1820.7958              2966.0051              3020.6575
 Red. masses --      8.7902                 1.0739                 1.0759
 Frc consts  --     17.1701                 5.5664                 5.7839
 IR Inten    --    389.5518                54.0072                 4.6367

                     73                     74                     75
                      A                      A                      A
 Frequencies --   3032.3973              3033.4273              3067.7955
 Red. masses --      1.0601                 1.0741                 1.0993
 Frc consts  --      5.7432                 5.8232                 6.0954
 IR Inten    --     12.5374                13.8635                 5.1710

                     76                     77                     78
                      A                      A                      A
 Frequencies --   3068.3681              3099.9806              3243.5070
 Red. masses --      1.0932                 1.0913                 1.0945
 Frc consts  --      6.0642                 6.1792                 6.7844
 IR Inten    --      5.1304                12.5570                 6.4241

                     79                     80                     81
                      A                      A                      A
 Frequencies --   3247.4144              3265.4292              3508.8667
 Red. masses --      1.0990                 1.0737                 1.0499
 Frc consts  --      6.8284                 6.7456                 7.6158
 IR Inten    --      1.8894               734.4716                 0.6935

                     82                     83                     84
                      A                      A                      A
 Frequencies --   3587.4890              3622.8647              3645.2097
 Red. masses --      1.0930                 1.0779                 1.0811
 Frc consts  --      8.2882                 8.3358                 8.4635
 IR Inten    --      3.6735                36.7769                55.4124

 - Thermochemistry -
 -------------------
 Temperature   298.150 Kelvin.  Pressure   1.00000 Atm.
 Atom     1 has atomic number  8 and mass  15.99491

 Molecular mass:   226.10659 amu.
 Principal axes and moments of inertia in atomic units:
                           1         2         3
     Eigenvalues --  3007.526625683.691588071.96776
           X            0.79391   0.05003  -0.60598
           Y           -0.29487   0.90326  -0.31174
           Z            0.53176   0.42617   0.73185
 This molecule is an asymmetric top.
 Rotational symmetry number  1.
 Warning -- assumption of classical behavior for rotation
           may cause significant error
 Rotational temperatures (Kelvin)      0.02880     0.01524     0.01073
 Rotational constants (GHZ):           0.60007     0.31753     0.22358
 Zero-point vibrational energy     641295.5 (Joules/Mol)
                                  153.27330 (Kcal/Mol)
 Warning -- explicit consideration of  21 degrees of freedom as
           vibrations may cause significant error
 Vibrational temperatures:     34.75    44.39    63.32    90.25   103.80
          (Kelvin)            122.98   125.87   225.51   251.22   309.95
                              318.20   334.45   372.24   408.05   453.42
                              515.26   554.54   631.06   688.60   764.05
                              778.87   896.86   910.35   938.72   978.14
                             1050.86  1084.38  1114.40  1148.16  1187.54
                             1189.17  1221.11  1265.67  1312.02  1341.87
                             1358.79  1386.02  1432.73  1471.84  1525.57
                             1558.95  1571.29  1594.48  1599.94  1647.04
                             1664.54  1727.24  1754.47  1783.85  1817.40
                             1845.54  1848.62  1894.46  1926.92  1947.92
                             1968.59  1988.13  2041.84  2047.10  2049.32
                             2097.82  2113.48  2135.22  2160.62  2185.03
                             2205.14  2310.54  2393.07  2422.88  2619.72
                             4267.41  4346.05  4362.94  4364.42  4413.87
                             4414.69  4460.18  4666.68  4672.30  4698.22
                             5048.47  5161.59  5212.49  5244.64

 Zero-point correction=                           0.244257 (Hartree/Particle)
 Thermal correction to Energy=                    0.260324
 Thermal correction to Enthalpy=                  0.261268
 Thermal correction to Gibbs Free Energy=         0.197920
 Sum of electronic and zero-point Energies=           -796.137757
 Sum of electronic and thermal Energies=              -796.121689
 Sum of electronic and thermal Enthalpies=            -796.120745
 Sum of electronic and thermal Free Energies=         -796.184094

                     E (Thermal)             CV                S
                      KCal/Mol        Cal/Mol-Kelvin    Cal/Mol-Kelvin
 Total                  163.356             58.089            133.328
 Electronic               0.000              0.000              0.000
 Translational            0.889              2.981             42.150
 Rotational               0.889              2.981             33.289
 Vibrational            161.578             52.127             57.889
 Vibration     1          0.593              1.985              6.259
 Vibration     2          0.594              1.984              5.774
 Vibration     3          0.595              1.980              5.070
 Vibration     4          0.597              1.972              4.370
 Vibration     5          0.598              1.967              4.094
 Vibration     6          0.601              1.959              3.761
 Vibration     7          0.601              1.958              3.715
 Vibration     8          0.620              1.895              2.589
 Vibration     9          0.627              1.874              2.385
 Vibration    10          0.645              1.818              1.997
 Vibration    11          0.648              1.809              1.950
 Vibration    12          0.653              1.791              1.860
 Vibration    13          0.668              1.748              1.670
 Vibration    14          0.682              1.704              1.512
 Vibration    15          0.703              1.645              1.335
 Vibration    16          0.733              1.559              1.130
 Vibration    17          0.754              1.501              1.018
 Vibration    18          0.799              1.386              0.831
 Vibration    19          0.835              1.298              0.714
 Vibration    20          0.886              1.181              0.585
 Vibration    21          0.896              1.159              0.562

 Optimization completed.
    -- Stationary point found.
 Normal termination of Gaussian 09 at Thu Jul 29 10:13:36 2021.
