 Gaussian 09, Revision D.01,
 Gaussian 09:  ES64L-G09RevD.01 24-Apr-2013

 ----------------------------------------------------------------------
 # B3LYP/6-311++G(2df,2pd) guess=read geom=checkpoint opt=readfc freq=n
 oraman nosymm integral(ultrafinegrid)
 ----------------------------------------------------------------------

 ------------------------------------------------------------
 Candidate Structure: Conf:340 OPT and FREQ calc in gas phase
 ------------------------------------------------------------
 Structure from the checkpoint file:  "conf-340.chk"
 Charge =  0 Multiplicity = 1

 SCF Done:  E(RB3LYP) =  -796.382371010     A.U. after   13 cycles
 SCF Done:  E(RB3LYP) =  -796.383242696     A.U. after   11 cycles
 SCF Done:  E(RB3LYP) =  -796.383270653     A.U. after   12 cycles
 SCF Done:  E(RB3LYP) =  -796.383273550     A.U. after   10 cycles
 SCF Done:  E(RB3LYP) =  -796.383273627     A.U. after    8 cycles
 Optimization completed.
    -- Stationary point found.
 Normal termination of Gaussian 09 at Thu Jul 29 04:12:45 2021.

 ----------------------------------------------------------------------
 #N Geom=AllCheck Guess=TCheck SCRF=Check GenChk RB3LYP/6-311++G(2df,2p
 d) Freq
 ----------------------------------------------------------------------

 Structure from the checkpoint file:  "conf-340.chk"
 ------------------------------------------------------------
 Candidate Structure: Conf:340 OPT and FREQ calc in gas phase
 ------------------------------------------------------------
 Charge =  0 Multiplicity = 1

                          Input orientation:
 ---------------------------------------------------------------------
 Center     Atomic      Atomic             Coordinates (Angstroms)
 Number     Number       Type             X           Y           Z
 ---------------------------------------------------------------------
      1          8           0        0.593143   -0.958122   -0.802819
      2          6           0        1.368758   -0.181846   -0.247753
      3          7           0        0.928765    0.972348    0.311067
      4          6           0       -0.450813    1.371659    0.167729
      5          6           0       -0.574166    2.857254    0.470828
      6          8           0       -1.797366    3.380243    0.270892
      7          8           0        0.331751    3.534105    0.872835
      8          6           0       -1.436508    0.526753    1.051216
      9          6           0       -2.612942    0.046847    0.278168
     10          6           0       -3.957037    0.323354    0.320762
     11          7           0       -4.626482   -0.375276   -0.656661
     12          6           0       -3.703583   -1.063115   -1.285039
     13          7           0       -2.466594   -0.844435   -0.762284
     14          6           0        2.856773   -0.450292   -0.163037
     15          6           0        3.166668   -1.903048    0.196972
     16          7           0        4.608858   -2.138352    0.133898
     17          1           0        1.564982    1.656285    0.693001
     18          1           0       -0.737383    1.223635   -0.876105
     19          1           0       -2.427155    2.713041   -0.041652
     20          1           0       -0.869259   -0.317296    1.441537
     21          1           0       -1.773831    1.104361    1.911456
     22          1           0       -4.478171    0.963009    1.014567
     23          1           0       -3.871098   -1.728780   -2.115333
     24          1           0       -1.574151   -1.219758   -1.060084
     25          1           0        3.288094   -0.236477   -1.144032
     26          1           0        3.329479    0.230429    0.548578
     27          1           0        2.680295   -2.550434   -0.530716
     28          1           0        2.723779   -2.135285    1.174998
     29          1           0        4.819801   -3.125259    0.202849
     30          1           0        5.095271   -1.675439    0.892022
 ---------------------------------------------------------------------

 SCF Done:  E(RB3LYP) =  -796.383273627     A.U. after    2 cycles

 Alpha  occ. eigenvalues --  -19.19603 -19.13975 -19.11712 -14.37192 -14.36668
 Alpha  occ. eigenvalues --  -14.30907 -14.30084 -10.33205 -10.29886 -10.25701
 Alpha  occ. eigenvalues --  -10.23196 -10.21802 -10.21430 -10.21082 -10.19596
 Alpha  occ. eigenvalues --  -10.19441  -1.13501  -1.06908  -1.05523  -1.02748
 Alpha  occ. eigenvalues --   -0.95889  -0.90133  -0.88329  -0.82590  -0.78316
 Alpha  occ. eigenvalues --   -0.75172  -0.69694  -0.65819  -0.63741  -0.62467
 Alpha  occ. eigenvalues --   -0.61527  -0.60369  -0.57417  -0.55970  -0.52386
 Alpha  occ. eigenvalues --   -0.51395  -0.50533  -0.49472  -0.48299  -0.47226
 Alpha  occ. eigenvalues --   -0.46979  -0.45296  -0.44648  -0.43877  -0.43356
 Alpha  occ. eigenvalues --   -0.42252  -0.41938  -0.41357  -0.40914  -0.40531
 Alpha  occ. eigenvalues --   -0.37499  -0.36807  -0.35391  -0.31453  -0.29810
 Alpha  occ. eigenvalues --   -0.29485  -0.29019  -0.28124  -0.26110  -0.24494
 Alpha virt. eigenvalues --   -0.03073  -0.02268  -0.01543  -0.01233  -0.00410
 Alpha virt. eigenvalues --   -0.00157   0.00379   0.00509   0.01493   0.01865
 Alpha virt. eigenvalues --    0.02631   0.02915   0.03798   0.03949   0.04153

 Mulliken charges:
               1
     1  O   -0.429833
     2  C   -0.075413
     3  N    0.060012
     4  C    0.111104
     5  C    0.047805
     6  O   -0.179880
     7  O   -0.349000
     8  C    0.049765
     9  C    0.244441
    10  C   -0.421170
    11  N   -0.283696
    12  C    0.118313
    13  N   -0.087139
    14  C    0.044161
    15  C   -0.117304
    16  N   -0.166712
    17  H    0.142702
    18  H    0.093109
    19  H    0.212996
    20  H    0.051952
    21  H    0.118473
    22  H    0.081818
    23  H    0.109888
    24  H    0.226495
    25  H    0.083106
    26  H    0.014021
    27  H    0.058134
    28  H    0.038320
    29  H    0.108041
    30  H    0.095492
 Sum of Mulliken charges =   0.00000

 Dipole moment (field-independent basis, Debye):
    X=              3.3327    Y=             -2.2834    Z=              1.2266  Tot=              4.2220
 Quadrupole moment (field-independent basis, Debye-Ang):
   XX=           -110.8534   YY=           -106.5274   ZZ=            -92.6871
   XY=             -4.8589   XZ=              4.4630   YZ=             -3.9111

  Exact polarizability: 184.808  -4.387 145.335   9.323  18.226 117.379
 Approx polarizability: 242.852   3.991 210.900  13.732  32.760 190.569

                      1                      2                      3
                      A                      A                      A
 Frequencies --     25.6064                32.2010                59.3121
 Red. masses --      3.4874                 5.7916                 3.0815
 Frc consts  --      0.0013                 0.0035                 0.0064
 IR Inten    --      0.9700                 2.9658                 3.5954

                      4                      5                      6
                      A                      A                      A
 Frequencies --     72.8887                80.7250                87.1413
 Red. masses --      4.2724                 5.6880                 4.0316
 Frc consts  --      0.0134                 0.0218                 0.0180
 IR Inten    --      3.4225                 1.6214                 3.5945

                      7                      8                      9
                      A                      A                      A
 Frequencies --     99.6576               112.0449               167.3009
 Red. masses --      6.0701                 5.5823                 4.4799
 Frc consts  --      0.0355                 0.0413                 0.0739
 IR Inten    --      7.5522                 7.3541                 8.1422

                     10                     11                     12
                      A                      A                      A
 Frequencies --    190.2720               204.6759               238.7935
 Red. masses --      5.1790                 3.1306                 1.3170
 Frc consts  --      0.1105                 0.0773                 0.0442
 IR Inten    --      7.9799                 6.6390                42.3963

                     13                     14                     15
                      A                      A                      A
 Frequencies --    273.6682               314.8526               336.2080
 Red. masses --      5.1136                 4.9718                 2.5462
 Frc consts  --      0.2256                 0.2904                 0.1696
 IR Inten    --      2.5915                 2.0909                 6.0560

                     16                     17                     18
                      A                      A                      A
 Frequencies --    354.2869               394.3911               414.5466
 Red. masses --      5.7762                 3.9000                 3.9401
 Frc consts  --      0.4272                 0.3574                 0.3989
 IR Inten    --      9.1771                 5.5011                 9.4125

                     19                     20                     21
                      A                      A                      A
 Frequencies --    536.2570               550.3164               575.9938
 Red. masses --      2.0665                 1.5584                 1.2462
 Frc consts  --      0.3501                 0.2781                 0.2436
 IR Inten    --     46.1697                 8.9393                98.9270

                     22                     23                     24
                      A                      A                      A
 Frequencies --    631.5529               646.3254               662.5341
 Red. masses --      4.0157                 3.6121                 2.8746
 Frc consts  --      0.9437                 0.8890                 0.7434
 IR Inten    --     22.5067                 5.9682                14.1049

                     25                     26                     27
                      A                      A                      A
 Frequencies --    681.6917               716.2625               743.4606
 Red. masses --      3.6269                 3.7619                 1.2126
 Frc consts  --      0.9930                 1.1371                 0.3949
 IR Inten    --     21.1359                 3.4720                48.8220

                     28                     29                     30
                      A                      A                      A
 Frequencies --    754.9474               771.8985               799.5145
 Red. masses --      2.9753                 4.0329                 1.4246
 Frc consts  --      0.9991                 1.4157                 0.5365
 IR Inten    --     21.4408                 3.3026                37.1038

                     31                     32                     33
                      A                      A                      A
 Frequencies --    827.1438               843.0260               851.4407
 Red. masses --      1.3549                 1.4197                 1.6545
 Frc consts  --      0.5462                 0.5945                 0.7067
 IR Inten    --     82.6237                24.1143                 9.7429

                     34                     35                     36
                      A                      A                      A
 Frequencies --    867.0393               937.6886               946.6300
 Red. masses --      2.1149                 5.6830                 2.8639
 Frc consts  --      0.9367                 2.9440                 1.5121
 IR Inten    --     15.6585                10.2917                10.6787

                     37                     38                     39
                      A                      A                      A
 Frequencies --    978.8492               981.1639              1018.8063
 Red. masses --      2.2002                 5.5507                 3.5997
 Frc consts  --      1.2420                 3.1483                 2.2014
 IR Inten    --      3.7580                 2.0140                13.4533

                     40                     41                     42
                      A                      A                      A
 Frequencies --   1029.2392              1061.6415              1090.3551
 Red. masses --      3.2879                 2.8137                 2.2917
 Frc consts  --      2.0521                 1.8684                 1.6052
 IR Inten    --      3.1585                18.6202                28.0718

                     43                     44                     45
                      A                      A                      A
 Frequencies --   1115.5496              1126.2773              1140.5264
 Red. masses --      1.7064                 2.0313                 2.1563
 Frc consts  --      1.2511                 1.5181                 1.6526
 IR Inten    --     39.4327                10.0714                 6.5953

                     46                     47                     48
                      A                      A                      A
 Frequencies --   1162.9546              1193.4371              1196.7768
 Red. masses --      1.5964                 1.8444                 1.6583
 Frc consts  --      1.2721                 1.5478                 1.3994
 IR Inten    --     10.0429                27.4235                 1.9390

                     49                     50                     51
                      A                      A                      A
 Frequencies --   1231.1293              1256.5268              1262.4959
 Red. masses --      1.5292                 2.2562                 1.3921
 Frc consts  --      1.3656                 2.0988                 1.3073
 IR Inten    --     40.4374                27.1173                 4.1447

                     52                     53                     54
                      A                      A                      A
 Frequencies --   1282.0265              1294.7686              1333.2328
 Red. masses --      1.3654                 1.3739                 1.3176
 Frc consts  --      1.3222                 1.3570                 1.3799
 IR Inten    --      8.2619                85.6988                21.8577

                     55                     56                     57
                      A                      A                      A
 Frequencies --   1336.5293              1343.2116              1367.2883
 Red. masses --      1.1594                 1.6903                 1.4088
 Frc consts  --      1.2202                 1.7968                 1.5517
 IR Inten    --     73.3912               143.9261                 1.2909

                     58                     59                     60
                      A                      A                      A
 Frequencies --   1381.9224              1407.7031              1422.8841
 Red. masses --      3.3670                 1.6989                 1.4642
 Frc consts  --      3.7885                 1.9835                 1.7466
 IR Inten    --      4.8420                53.5175                45.3197

                     61                     62                     63
                      A                      A                      A
 Frequencies --   1431.8970              1473.1036              1486.6262
 Red. masses --      2.5076                 1.0992                 1.1285
 Frc consts  --      3.0293                 1.4054                 1.4694
 IR Inten    --     68.1601                 9.9206                13.4069

                     64                     65                     66
                      A                      A                      A
 Frequencies --   1502.6564              1518.2330              1519.1465
 Red. masses --      3.3379                 2.0278                 1.1988
 Frc consts  --      4.4406                 2.7540                 1.6300
 IR Inten    --     50.5256               227.7265                59.4306

                     67                     68                     69
                      A                      A                      A
 Frequencies --   1605.7080              1662.4237              1696.0583
 Red. masses --      4.2634                 1.0943                 8.2553
 Frc consts  --      6.4765                 1.7818                13.9915
 IR Inten    --     12.5600                22.0632               217.0589

                     70                     71                     72
                      A                      A                      A
 Frequencies --   1830.7848              2957.9418              3033.9325
 Red. masses --      9.9233                 1.0740                 1.0593
 Frc consts  --     19.5967                 5.5365                 5.7451
 IR Inten    --    330.1729                62.8362                13.3137

                     73                     74                     75
                      A                      A                      A
 Frequencies --   3037.5239              3062.5291              3069.9846
 Red. masses --      1.0817                 1.0607                 1.0990
 Frc consts  --      5.8802                 5.8614                 6.1028
 IR Inten    --      9.1574                15.0825                 6.1201

                     76                     77                     78
                      A                      A                      A
 Frequencies --   3097.2971              3100.6877              3230.8903
 Red. masses --      1.0916                 1.1048                 1.0961
 Frc consts  --      6.1700                 6.2580                 6.7411
 IR Inten    --     15.4794                 7.2181                 4.6517

                     79                     80                     81
                      A                      A                      A
 Frequencies --   3246.9121              3507.6193              3547.9180
 Red. masses --      1.0975                 1.0497                 1.0835
 Frc consts  --      6.8172                 7.6095                 8.0359
 IR Inten    --      0.9578                 0.5893               223.5766

                     82                     83                     84
                      A                      A                      A
 Frequencies --   3586.0739              3594.2669              3708.9201
 Red. masses --      1.0931                 1.0780                 1.0670
 Frc consts  --      8.2821                 8.2055                 8.6475
 IR Inten    --      3.1101                83.3611               172.8821

 - Thermochemistry -
 -------------------
 Temperature   298.150 Kelvin.  Pressure   1.00000 Atm.
 Atom     1 has atomic number  8 and mass  15.99491

 Molecular mass:   226.10659 amu.
 Principal axes and moments of inertia in atomic units:
                           1         2         3
     Eigenvalues --  2536.922596032.695308181.54606
           X            0.96381   0.24725  -0.09966
           Y           -0.26455   0.93315  -0.24339
           Z            0.03282   0.26095   0.96479
 This molecule is an asymmetric top.
 Rotational symmetry number  1.
 Warning -- assumption of classical behavior for rotation
           may cause significant error
 Rotational temperatures (Kelvin)      0.03414     0.01436     0.01059
 Rotational constants (GHZ):           0.71139     0.29916     0.22059
 Zero-point vibrational energy     641956.4 (Joules/Mol)
                                  153.43126 (Kcal/Mol)
 Warning -- explicit consideration of  21 degrees of freedom as
           vibrations may cause significant error
 Vibrational temperatures:     36.84    46.33    85.34   104.87   116.15
          (Kelvin)            125.38   143.38   161.21   240.71   273.76
                              294.48   343.57   393.75   453.00   483.73
                              509.74   567.44   596.44   771.55   791.78
                              828.73   908.66   929.92   953.24   980.80
                             1030.54  1069.67  1086.20  1110.59  1150.32
                             1190.07  1212.92  1225.03  1247.47  1349.12
                             1361.99  1408.34  1411.67  1465.83  1480.84
                             1527.46  1568.78  1605.03  1620.46  1640.96
                             1673.23  1717.09  1721.89  1771.32  1807.86
                             1816.45  1844.55  1862.88  1918.22  1922.97
                             1932.58  1967.22  1988.28  2025.37  2047.21
                             2060.18  2119.46  2138.92  2161.98  2184.40
                             2185.71  2310.25  2391.85  2440.25  2634.09
                             4255.81  4365.15  4370.31  4406.29  4417.02
                             4456.31  4461.19  4648.52  4671.58  5046.68
                             5104.66  5159.55  5171.34  5336.30

 Zero-point correction=                           0.244508 (Hartree/Particle)
 Thermal correction to Energy=                    0.260521
 Thermal correction to Enthalpy=                  0.261466
 Thermal correction to Gibbs Free Energy=         0.198640
 Sum of electronic and zero-point Energies=           -796.138765
 Sum of electronic and thermal Energies=              -796.122752
 Sum of electronic and thermal Enthalpies=            -796.121808
 Sum of electronic and thermal Free Energies=         -796.184634

                     E (Thermal)             CV                S
                      KCal/Mol        Cal/Mol-Kelvin    Cal/Mol-Kelvin
 Total                  163.480             58.172            132.227
 Electronic               0.000              0.000              0.000
 Translational            0.889              2.981             42.150
 Rotational               0.889              2.981             33.193
 Vibrational            161.702             52.210             56.885
 Vibration     1          0.593              1.985              6.144
 Vibration     2          0.594              1.983              5.689
 Vibration     3          0.597              1.974              4.480
 Vibration     4          0.599              1.967              4.074
 Vibration     5          0.600              1.962              3.873
 Vibration     6          0.601              1.958              3.723
 Vibration     7          0.604              1.949              3.461
 Vibration     8          0.607              1.939              3.233
 Vibration     9          0.624              1.883              2.466
 Vibration    10          0.634              1.853              2.225
 Vibration    11          0.640              1.833              2.091
 Vibration    12          0.657              1.781              1.812
 Vibration    13          0.676              1.722              1.573
 Vibration    14          0.702              1.645              1.337
 Vibration    15          0.717              1.603              1.230
 Vibration    16          0.730              1.566              1.147
 Vibration    17          0.761              1.482              0.983
 Vibration    18          0.778              1.439              0.911
 Vibration    19          0.891              1.170              0.573
 Vibration    20          0.906              1.139              0.544
 Vibration    21          0.932              1.083              0.493

 Optimization completed.
    -- Stationary point found.
 Normal termination of Gaussian 09 at Thu Jul 29 10:27:17 2021.
