 Gaussian 09, Revision D.01,
 Gaussian 09:  ES64L-G09RevD.01 24-Apr-2013

 ----------------------------------------------------------------------
 # B3LYP/6-311++G(2df,2pd) guess=read geom=checkpoint opt=readfc freq=n
 oraman nosymm integral(ultrafinegrid)
 ----------------------------------------------------------------------

 ------------------------------------------------------------
 Candidate Structure: Conf:900 OPT and FREQ calc in gas phase
 ------------------------------------------------------------
 Structure from the checkpoint file:  "conf-900.chk"
 Charge =  0 Multiplicity = 1

 SCF Done:  E(RB3LYP) =  -796.388147315     A.U. after   12 cycles
 SCF Done:  E(RB3LYP) =  -796.389008795     A.U. after   12 cycles
 SCF Done:  E(RB3LYP) =  -796.389071310     A.U. after   12 cycles
 SCF Done:  E(RB3LYP) =  -796.389080128     A.U. after   12 cycles
 SCF Done:  E(RB3LYP) =  -796.389081182     A.U. after   11 cycles
 SCF Done:  E(RB3LYP) =  -796.389081201     A.U. after    9 cycles
 Optimization completed.
    -- Stationary point found.
 Normal termination of Gaussian 09 at Thu Jul 29 04:56:28 2021.

 ----------------------------------------------------------------------
 #N Geom=AllCheck Guess=TCheck SCRF=Check GenChk RB3LYP/6-311++G(2df,2p
 d) Freq
 ----------------------------------------------------------------------

 Structure from the checkpoint file:  "conf-900.chk"
 ------------------------------------------------------------
 Candidate Structure: Conf:900 OPT and FREQ calc in gas phase
 ------------------------------------------------------------
 Charge =  0 Multiplicity = 1

                          Input orientation:
 ---------------------------------------------------------------------
 Center     Atomic      Atomic             Coordinates (Angstroms)
 Number     Number       Type             X           Y           Z
 ---------------------------------------------------------------------
      1          8           0       -0.772880    0.514419   -1.167451
      2          6           0       -1.198409   -0.557462   -0.739546
      3          7           0       -0.432379   -1.394515   -0.005334
      4          6           0        0.967033   -1.149527    0.280661
      5          6           0        1.571995   -2.467598    0.723595
      6          8           0        2.910255   -2.399237    0.794213
      7          8           0        0.940974   -3.456817    1.000479
      8          6           0        1.207562   -0.032149    1.365278
      9          6           0        1.979542    1.143754    0.878645
     10          6           0        3.150249    1.720686    1.299885
     11          7           0        3.454779    2.819130    0.533314
     12          6           0        2.483844    2.905445   -0.345951
     13          7           0        1.562610    1.919506   -0.180281
     14          6           0       -2.610939   -1.041826   -1.023876
     15          6           0       -3.558648    0.086479   -1.416640
     16          7           0       -3.720464    1.036534   -0.314309
     17          1           0       -0.804185   -2.275864    0.316643
     18          1           0        1.472308   -0.844431   -0.636065
     19          1           0        3.236548   -3.255212    1.108561
     20          1           0        0.220748    0.268822    1.721475
     21          1           0        1.733935   -0.448968    2.222541
     22          1           0        3.783987    1.404805    2.112001
     23          1           0        2.398149    3.652463   -1.117498
     24          1           0        0.735081    1.719274   -0.731506
     25          1           0       -3.000130   -1.566363   -0.149424
     26          1           0       -2.546487   -1.770077   -1.838376
     27          1           0       -4.533549   -0.351433   -1.634053
     28          1           0       -3.196216    0.550261   -2.340330
     29          1           0       -2.909553    1.639873   -0.253982
     30          1           0       -4.525623    1.630318   -0.462542
 ---------------------------------------------------------------------

 SCF Done:  E(RB3LYP) =  -796.389081201     A.U. after    1 cycles

 Alpha  occ. eigenvalues --  -19.20432 -19.14982 -19.11675 -14.36306 -14.35289
 Alpha  occ. eigenvalues --  -14.29996 -14.28388 -10.33852 -10.29736 -10.25458
 Alpha  occ. eigenvalues --  -10.21419 -10.20587 -10.20496 -10.19894 -10.19368
 Alpha  occ. eigenvalues --  -10.17461  -1.14769  -1.06796  -1.05856  -1.00937
 Alpha  occ. eigenvalues --   -0.95728  -0.89374  -0.86561  -0.82007  -0.77557
 Alpha  occ. eigenvalues --   -0.74957  -0.69083  -0.66767  -0.62279  -0.61307
 Alpha  occ. eigenvalues --   -0.60537  -0.58561  -0.54858  -0.53996  -0.52552
 Alpha  occ. eigenvalues --   -0.51773  -0.50229  -0.49526  -0.49012  -0.48374
 Alpha  occ. eigenvalues --   -0.45929  -0.44792  -0.44286  -0.43631  -0.42692
 Alpha  occ. eigenvalues --   -0.40810  -0.40480  -0.40081  -0.39944  -0.39235
 Alpha  occ. eigenvalues --   -0.38056  -0.37236  -0.36237  -0.32193  -0.29404
 Alpha  occ. eigenvalues --   -0.29029  -0.27777  -0.26512  -0.25471  -0.22545
 Alpha virt. eigenvalues --   -0.03507  -0.02364  -0.01706  -0.01125  -0.00035
 Alpha virt. eigenvalues --    0.00663   0.00717   0.01544   0.01887   0.02282
 Alpha virt. eigenvalues --    0.02749   0.03291   0.03684   0.04214   0.04839

 Mulliken charges:
               1
     1  O   -0.459159
     2  C    0.004284
     3  N    0.117985
     4  C   -0.010844
     5  C    0.237083
     6  O   -0.176134
     7  O   -0.403740
     8  C    0.075609
     9  C    0.199754
    10  C   -0.356374
    11  N   -0.298532
    12  C    0.102252
    13  N   -0.129568
    14  C    0.023483
    15  C   -0.191348
    16  N   -0.201942
    17  H    0.146993
    18  H    0.087841
    19  H    0.238922
    20  H    0.055373
    21  H    0.072177
    22  H    0.060567
    23  H    0.098437
    24  H    0.282326
    25  H    0.029087
    26  H    0.045326
    27  H    0.042431
    28  H    0.063650
    29  H    0.121155
    30  H    0.122902
 Sum of Mulliken charges =   0.00000

 Dipole moment (field-independent basis, Debye):
    X=             -3.0166    Y=             -3.5607    Z=             -1.0654  Tot=              4.7868
 Quadrupole moment (field-independent basis, Debye-Ang):
   XX=           -100.1134   YY=           -100.5158   ZZ=            -93.1570
   XY=            -18.3035   XZ=              5.6258   YZ=             -4.0280

  Exact polarizability: 163.897  12.843 160.886  18.294 -13.995 122.068
 Approx polarizability: 220.273  21.978 229.805  16.777 -27.300 192.451

                      1                      2                      3
                      A                      A                      A
 Frequencies --     22.2338                36.4697                55.6771
 Red. masses --      3.6422                 6.2858                 4.5421
 Frc consts  --      0.0011                 0.0049                 0.0083
 IR Inten    --      0.9672                 1.2317                 1.2391

                      4                      5                      6
                      A                      A                      A
 Frequencies --     57.1895                79.7349                89.9870
 Red. masses --      9.2423                 5.0528                 6.0909
 Frc consts  --      0.0178                 0.0189                 0.0291
 IR Inten    --      1.1934                 1.1939                 6.2859

                      7                      8                      9
                      A                      A                      A
 Frequencies --    109.0122               132.4396               140.4021
 Red. masses --      4.4360                 3.9195                 5.3200
 Frc consts  --      0.0311                 0.0405                 0.0618
 IR Inten    --      2.4960                 4.7805                 3.3631

                     10                     11                     12
                      A                      A                      A
 Frequencies --    192.4348               242.2013               282.4239
 Red. masses --      4.6354                 2.0164                 1.5606
 Frc consts  --      0.1011                 0.0697                 0.0733
 IR Inten    --      2.0614                41.5075                28.2808

                     13                     14                     15
                      A                      A                      A
 Frequencies --    286.7957               297.3418               320.3658
 Red. masses --      5.2753                 2.1636                 3.9028
 Frc consts  --      0.2556                 0.1127                 0.2360
 IR Inten    --      5.1205                 1.6913                 3.8955

                     16                     17                     18
                      A                      A                      A
 Frequencies --    351.3746               405.5654               437.8129
 Red. masses --      5.1200                 3.5870                 2.6232
 Frc consts  --      0.3724                 0.3476                 0.2963
 IR Inten    --      1.3455                11.7995                26.3829

                     19                     20                     21
                      A                      A                      A
 Frequencies --    545.6587               563.8410               591.7461
 Red. masses --      1.5785                 2.9185                 1.3900
 Frc consts  --      0.2769                 0.5467                 0.2868
 IR Inten    --     56.8994                35.7411                71.2193

                     22                     23                     24
                      A                      A                      A
 Frequencies --    630.1846               632.1016               650.4001
 Red. masses --      4.7087                 1.9982                 2.9486
 Frc consts  --      1.1018                 0.4704                 0.7349
 IR Inten    --     25.2820                 8.7627                 0.1147

                     25                     26                     27
                      A                      A                      A
 Frequencies --    677.8253               679.4596               719.0681
 Red. masses --      3.3151                 2.8802                 3.5023
 Frc consts  --      0.8974                 0.7834                 1.0669
 IR Inten    --     50.7023                 5.7848                15.2525

                     28                     29                     30
                      A                      A                      A
 Frequencies --    771.2455               772.9613               831.2246
 Red. masses --      4.2816                 1.1059                 1.4324
 Frc consts  --      1.5005                 0.3893                 0.5831
 IR Inten    --     12.1967                36.5473                17.9124

                     31                     32                     33
                      A                      A                      A
 Frequencies --    842.2983               846.0098               861.6676
 Red. masses --      1.6182                 1.5658                 1.9242
 Frc consts  --      0.6764                 0.6603                 0.8417
 IR Inten    --     95.5204                12.0976                23.8899

                     34                     35                     36
                      A                      A                      A
 Frequencies --    889.5196               897.0685               939.0159
 Red. masses --      2.0041                 2.2326                 5.8798
 Frc consts  --      0.9343                 1.0586                 3.0546
 IR Inten    --     14.6026                 9.7426                14.9428

                     37                     38                     39
                      A                      A                      A
 Frequencies --    951.8253               977.4637              1017.4721
 Red. masses --      2.9196                 3.9329                 2.9755
 Frc consts  --      1.5584                 2.2139                 1.8149
 IR Inten    --      3.3802                 6.4563                22.5662

                     40                     41                     42
                      A                      A                      A
 Frequencies --   1023.5245              1058.5266              1095.2428
 Red. masses --      3.8592                 2.4339                 3.2296
 Frc consts  --      2.3820                 1.6068                 2.2825
 IR Inten    --      1.2035                14.3637                44.1215

                     43                     44                     45
                      A                      A                      A
 Frequencies --   1121.4436              1126.2675              1143.9697
 Red. masses --      1.9593                 1.7867                 2.0550
 Frc consts  --      1.4518                 1.3353                 1.5845
 IR Inten    --     23.0725                44.3411                 3.9145

                     46                     47                     48
                      A                      A                      A
 Frequencies --   1165.6528              1180.1865              1210.2090
 Red. masses --      1.7234                 2.0565                 1.3100
 Frc consts  --      1.3796                 1.6877                 1.1305
 IR Inten    --    139.8899                64.7343                 8.3939

                     49                     50                     51
                      A                      A                      A
 Frequencies --   1234.2684              1256.4557              1261.7633
 Red. masses --      1.2899                 1.5184                 2.2682
 Frc consts  --      1.1578                 1.4124                 2.1276
 IR Inten    --     14.2159                27.2818                 8.2258

                     52                     53                     54
                      A                      A                      A
 Frequencies --   1279.6668              1289.6416              1328.0914
 Red. masses --      1.4284                 1.2825                 1.3921
 Frc consts  --      1.3782                 1.2567                 1.4467
 IR Inten    --      8.1751                10.2675                 2.2808

                     55                     56                     57
                      A                      A                      A
 Frequencies --   1348.8343              1356.2089              1382.8725
 Red. masses --      1.2583                 1.4669                 1.7466
 Frc consts  --      1.3488                 1.5897                 1.9680
 IR Inten    --      8.0336                38.1384                41.6145

                     58                     59                     60
                      A                      A                      A
 Frequencies --   1385.9254              1415.5013              1422.6197
 Red. masses --      2.8692                 2.1562                 1.3960
 Frc consts  --      3.2471                 2.5454                 1.6646
 IR Inten    --      4.8718                78.6920                13.7358

                     61                     62                     63
                      A                      A                      A
 Frequencies --   1438.1743              1451.3714              1479.4579
 Red. masses --      2.4335                 1.1030                 1.1384
 Frc consts  --      2.9656                 1.3689                 1.4680
 IR Inten    --     73.2774                16.1540                13.1520

                     64                     65                     66
                      A                      A                      A
 Frequencies --   1500.8503              1501.2331              1537.0167
 Red. masses --      1.6776                 1.5712                 2.3139
 Frc consts  --      2.2265                 2.0863                 3.2207
 IR Inten    --     10.7989                21.1249               320.0415

                     67                     68                     69
                      A                      A                      A
 Frequencies --   1606.8961              1654.3766              1704.5306
 Red. masses --      4.1209                 1.1582                 5.6114
 Frc consts  --      6.2693                 1.8677                 9.6057
 IR Inten    --     15.3621                82.0731               178.0535

                     70                     71                     72
                      A                      A                      A
 Frequencies --   1798.1105              2997.5128              3026.6244
 Red. masses --      9.6620                 1.0701                 1.0632
 Frc consts  --     18.4056                 5.6649                 5.7382
 IR Inten    --    323.8009                46.2335                12.6181

                     73                     74                     75
                      A                      A                      A
 Frequencies --   3044.6193              3067.8431              3070.4491
 Red. masses --      1.0658                 1.0924                 1.0838
 Frc consts  --      5.8208                 6.0578                 6.0199
 IR Inten    --     15.1910                25.5906                 8.6071

                     76                     77                     78
                      A                      A                      A
 Frequencies --   3077.0368              3097.4372              3235.4193
 Red. masses --      1.0983                 1.0975                 1.0957
 Frc consts  --      6.1268                 6.2036                 6.7576
 IR Inten    --     19.2615                 8.3270                 7.3877

                     79                     80                     81
                      A                      A                      A
 Frequencies --   3244.3563              3510.9277              3513.8422
 Red. masses --      1.0975                 1.0840                 1.0499
 Frc consts  --      6.8065                 7.8725                 7.6376
 IR Inten    --      0.9394               391.8934                 1.1372

                     82                     83                     84
                      A                      A                      A
 Frequencies --   3589.1749              3590.0012              3752.6530
 Red. masses --      1.0777                 1.0932                 1.0644
 Frc consts  --      8.1794                 8.3015                 8.8311
 IR Inten    --     85.7490                 6.9319                98.6578

 - Thermochemistry -
 -------------------
 Temperature   298.150 Kelvin.  Pressure   1.00000 Atm.
 Atom     1 has atomic number  8 and mass  15.99491

 Molecular mass:   226.10659 amu.
 Principal axes and moments of inertia in atomic units:
                           1         2         3
     Eigenvalues --  3068.913284869.933007446.18039
           X            0.94222  -0.15351  -0.29776
           Y            0.20296   0.96872   0.14281
           Z            0.26652  -0.19499   0.94390
 This molecule is an asymmetric top.
 Rotational symmetry number  1.
 Warning -- assumption of classical behavior for rotation
           may cause significant error
 Rotational temperatures (Kelvin)      0.02822     0.01779     0.01163
 Rotational constants (GHZ):           0.58807     0.37059     0.24237
 Zero-point vibrational energy     642420.4 (Joules/Mol)
                                  153.54216 (Kcal/Mol)
 Warning -- explicit consideration of  21 degrees of freedom as
           vibrations may cause significant error
 Vibrational temperatures:     31.99    52.47    80.11    82.28   114.72
          (Kelvin)            129.47   156.84   190.55   202.01   276.87
                              348.47   406.34   412.63   427.81   460.93
                              505.55   583.52   629.91   785.08   811.24
                              851.39   906.69   909.45   935.78   975.24
                              977.59  1034.58  1109.65  1112.12  1195.95
                             1211.88  1217.22  1239.75  1279.82  1290.68
                             1351.03  1369.46  1406.35  1463.91  1472.62
                             1522.98  1575.81  1613.51  1620.45  1645.92
                             1677.11  1698.02  1741.22  1775.83  1807.76
                             1815.39  1841.15  1855.50  1910.82  1940.67
                             1951.28  1989.64  1994.04  2036.59  2046.83
                             2069.21  2088.20  2128.61  2159.39  2159.94
                             2211.42  2311.96  2380.28  2452.44  2587.08
                             4312.75  4354.63  4380.52  4413.94  4417.69
                             4427.16  4456.52  4655.04  4667.90  5051.44
                             5055.63  5164.02  5165.20  5399.22

 Zero-point correction=                           0.244685 (Hartree/Particle)
 Thermal correction to Energy=                    0.260600
 Thermal correction to Enthalpy=                  0.261544
 Thermal correction to Gibbs Free Energy=         0.198868
 Sum of electronic and zero-point Energies=           -796.144396
 Sum of electronic and thermal Energies=              -796.128481
 Sum of electronic and thermal Enthalpies=            -796.127537
 Sum of electronic and thermal Free Energies=         -796.190214

                     E (Thermal)             CV                S
                      KCal/Mol        Cal/Mol-Kelvin    Cal/Mol-Kelvin
 Total                  163.529             58.049            131.914
 Electronic               0.000              0.000              0.000
 Translational            0.889              2.981             42.150
 Rotational               0.889              2.981             33.076
 Vibrational            161.752             52.087             56.689
 Vibration     1          0.593              1.985              6.424
 Vibration     2          0.594              1.982              5.442
 Vibration     3          0.596              1.975              4.605
 Vibration     4          0.596              1.975              4.552
 Vibration     5          0.600              1.963              3.897
 Vibration     6          0.602              1.956              3.660
 Vibration     7          0.606              1.942              3.286
 Vibration     8          0.613              1.921              2.910
 Vibration     9          0.615              1.913              2.798
 Vibration    10          0.634              1.850              2.204
 Vibration    11          0.658              1.776              1.787
 Vibration    12          0.681              1.706              1.519
 Vibration    13          0.684              1.698              1.493
 Vibration    14          0.691              1.679              1.432
 Vibration    15          0.706              1.635              1.308
 Vibration    16          0.728              1.572              1.160
 Vibration    17          0.771              1.458              0.942
 Vibration    18          0.798              1.388              0.834
 Vibration    19          0.901              1.149              0.553
 Vibration    20          0.920              1.110              0.516
 Vibration    21          0.949              1.049              0.464

 Optimization completed.
    -- Stationary point found.
 Normal termination of Gaussian 09 at Thu Jul 29 11:22:40 2021.
