 Gaussian 09, Revision D.01,
 Gaussian 09:  ES64L-G09RevD.01 24-Apr-2013

 ----------------------------------------------------------------------
 # B3LYP/6-311++G(2df,2pd) guess=read geom=checkpoint opt=readfc freq=n
 oraman nosymm integral(ultrafinegrid)
 ----------------------------------------------------------------------

 ------------------------------------------------------------
 Candidate Structure: Conf:683 OPT and FREQ calc in gas phase
 ------------------------------------------------------------
 Structure from the checkpoint file:  "conf-683.chk"
 Charge =  0 Multiplicity = 1

 SCF Done:  E(RB3LYP) =  -796.389535062     A.U. after   12 cycles
 SCF Done:  E(RB3LYP) =  -796.390338472     A.U. after   12 cycles
 SCF Done:  E(RB3LYP) =  -796.390353706     A.U. after   11 cycles
 SCF Done:  E(RB3LYP) =  -796.390354237     A.U. after    9 cycles
 SCF Done:  E(RB3LYP) =  -796.390354256     A.U. after    9 cycles
 Optimization completed.
    -- Stationary point found.
 Normal termination of Gaussian 09 at Thu Jul 29 04:20:52 2021.

 ----------------------------------------------------------------------
 #N Geom=AllCheck Guess=TCheck SCRF=Check GenChk RB3LYP/6-311++G(2df,2p
 d) Freq
 ----------------------------------------------------------------------

 Structure from the checkpoint file:  "conf-683.chk"
 ------------------------------------------------------------
 Candidate Structure: Conf:683 OPT and FREQ calc in gas phase
 ------------------------------------------------------------
 Charge =  0 Multiplicity = 1

                          Input orientation:
 ---------------------------------------------------------------------
 Center     Atomic      Atomic             Coordinates (Angstroms)
 Number     Number       Type             X           Y           Z
 ---------------------------------------------------------------------
      1          8           0       -0.589994    0.083782   -2.150806
      2          6           0        0.358459    0.363248   -1.417397
      3          7           0        0.212961    0.662597   -0.107565
      4          6           0       -1.082681    0.816135    0.511183
      5          6           0       -1.129297    2.138540    1.264606
      6          8           0       -2.393979    2.472044    1.595195
      7          8           0       -0.175230    2.808553    1.559238
      8          6           0       -1.475557   -0.333110    1.475569
      9          6           0       -1.439487   -1.706893    0.883232
     10          6           0       -1.298878   -2.929990    1.488567
     11          7           0       -1.413501   -3.946784    0.571851
     12          6           0       -1.613853   -3.349530   -0.578268
     13          7           0       -1.655831   -1.994642   -0.447441
     14          6           0        1.783980    0.352974   -1.952765
     15          6           0        2.757902    1.375130   -1.360368
     16          7           0        3.043587    1.095476    0.054244
     17          1           0        1.057981    0.894851    0.412689
     18          1           0       -1.820853    0.867496   -0.289263
     19          1           0       -2.356925    3.300827    2.094795
     20          1           0       -0.812472   -0.315761    2.343133
     21          1           0       -2.478063   -0.105732    1.845770
     22          1           0       -1.132200   -3.130125    2.534265
     23          1           0       -1.728036   -3.837023   -1.532093
     24          1           0       -1.628403   -1.321889   -1.208192
     25          1           0        2.177737   -0.658732   -1.809949
     26          1           0        1.701668    0.498874   -3.028596
     27          1           0        2.317458    2.371905   -1.415831
     28          1           0        3.659129    1.391447   -1.983040
     29          1           0        3.622553    0.270258    0.155427
     30          1           0        3.531922    1.866065    0.491596
 ---------------------------------------------------------------------

 SCF Done:  E(RB3LYP) =  -796.390354256     A.U. after    1 cycles

 Alpha  occ. eigenvalues --  -19.19642 -19.13960 -19.10315 -14.35165 -14.34656
 Alpha  occ. eigenvalues --  -14.32510 -14.28195 -10.32817 -10.28622 -10.24558
 Alpha  occ. eigenvalues --  -10.22151 -10.21019 -10.20091 -10.19877 -10.19360
 Alpha  occ. eigenvalues --  -10.17069  -1.13770  -1.05521  -1.04826  -1.00649
 Alpha  occ. eigenvalues --   -0.94615  -0.91350  -0.86276  -0.81563  -0.77659
 Alpha  occ. eigenvalues --   -0.74691  -0.68291  -0.66327  -0.63146  -0.60569
 Alpha  occ. eigenvalues --   -0.59587  -0.58226  -0.55321  -0.53171  -0.52359
 Alpha  occ. eigenvalues --   -0.51711  -0.49908  -0.49053  -0.47824  -0.47609
 Alpha  occ. eigenvalues --   -0.46120  -0.45443  -0.43899  -0.42956  -0.41927
 Alpha  occ. eigenvalues --   -0.41528  -0.40897  -0.40315  -0.39956  -0.38954
 Alpha  occ. eigenvalues --   -0.38473  -0.36471  -0.35369  -0.31134  -0.28556
 Alpha  occ. eigenvalues --   -0.28143  -0.27638  -0.27284  -0.26222  -0.22109
 Alpha virt. eigenvalues --   -0.02653  -0.02450  -0.01747  -0.00334   0.00078
 Alpha virt. eigenvalues --    0.00761   0.01102   0.01605   0.01969   0.02394
 Alpha virt. eigenvalues --    0.02905   0.03596   0.04053   0.04517   0.04968

 Mulliken charges:
               1
     1  O   -0.424044
     2  C   -0.031604
     3  N    0.095626
     4  C   -0.143706
     5  C    0.216972
     6  O   -0.187330
     7  O   -0.368436
     8  C   -0.787486
     9  C    0.682755
    10  C   -0.173166
    11  N   -0.286273
    12  C    0.128354
    13  N    0.013736
    14  C    0.054859
    15  C   -0.163726
    16  N   -0.193568
    17  H    0.276209
    18  H    0.131772
    19  H    0.234217
    20  H    0.074068
    21  H    0.059307
    22  H    0.071398
    23  H    0.103022
    24  H    0.176786
    25  H    0.041851
    26  H    0.054363
    27  H    0.063583
    28  H    0.058658
    29  H    0.102557
    30  H    0.119247
 Sum of Mulliken charges =   0.00000

 Dipole moment (field-independent basis, Debye):
    X=              3.1367    Y=              4.7747    Z=              0.3331  Tot=              5.7226
 Quadrupole moment (field-independent basis, Debye-Ang):
   XX=            -82.5452   YY=           -112.3947   ZZ=            -93.5299
   XY=             -7.2883   XZ=             -6.0997   YZ=              6.1803

  Exact polarizability: 136.496   9.517 159.340  -6.995  10.050 144.575
 Approx polarizability: 194.870   5.575 220.193   8.994  12.157 226.161

                      1                      2                      3
                      A                      A                      A
 Frequencies --     24.9467                44.9685                52.4592
 Red. masses --      5.0352                 9.5175                 3.9313
 Frc consts  --      0.0018                 0.0113                 0.0064
 IR Inten    --      4.4336                 2.4226                 1.8087

                      4                      5                      6
                      A                      A                      A
 Frequencies --     68.1299                85.9413               102.2566
 Red. masses --      4.0695                 3.9263                 5.2960
 Frc consts  --      0.0111                 0.0171                 0.0326
 IR Inten    --      1.0051                 2.4894                 1.7241

                      7                      8                      9
                      A                      A                      A
 Frequencies --    115.0655               134.3847               180.9301
 Red. masses --      4.0159                 6.3109                 6.2936
 Frc consts  --      0.0313                 0.0671                 0.1214
 IR Inten    --      7.1878                13.8258                 1.6468

                     10                     11                     12
                      A                      A                      A
 Frequencies --    199.2046               219.9407               263.1547
 Red. masses --      2.3335                 4.7391                 3.9196
 Frc consts  --      0.0546                 0.1351                 0.1599
 IR Inten    --      3.3150                 8.8668                 0.7651

                     13                     14                     15
                      A                      A                      A
 Frequencies --    294.2285               305.2928               344.5998
 Red. masses --      1.3156                 5.0793                 4.0962
 Frc consts  --      0.0671                 0.2789                 0.2866
 IR Inten    --     12.1491                 2.8413                 0.6928

                     16                     17                     18
                      A                      A                      A
 Frequencies --    348.8713               430.7009               485.2352
 Red. masses --      3.6802                 3.3196                 2.8549
 Frc consts  --      0.2639                 0.3628                 0.3961
 IR Inten    --      5.0182                14.3061                10.5792

                     19                     20                     21
                      A                      A                      A
 Frequencies --    513.6877               586.4626               594.8562
 Red. masses --      3.0061                 2.4459                 1.6044
 Frc consts  --      0.4674                 0.4956                 0.3345
 IR Inten    --     39.0327                18.6194                67.7792

                     22                     23                     24
                      A                      A                      A
 Frequencies --    636.0564               645.0369               675.7468
 Red. masses --      3.5665                 4.5710                 3.2464
 Frc consts  --      0.8501                 1.1205                 0.8734
 IR Inten    --     11.6080                34.1344                41.1856

                     25                     26                     27
                      A                      A                      A
 Frequencies --    688.5103               696.7652               746.4930
 Red. masses --      3.1006                 3.4415                 1.1863
 Frc consts  --      0.8660                 0.9844                 0.3895
 IR Inten    --     34.6249                15.3432                90.5730

                     28                     29                     30
                      A                      A                      A
 Frequencies --    779.2968               787.7830               825.5641
 Red. masses --      2.6846                 1.3669                 1.4260
 Frc consts  --      0.9606                 0.4998                 0.5726
 IR Inten    --     12.7054                54.1380                21.2945

                     31                     32                     33
                      A                      A                      A
 Frequencies --    830.3718               843.1828               876.1591
 Red. masses --      1.4305                 1.3597                 2.9735
 Frc consts  --      0.5811                 0.5695                 1.3449
 IR Inten    --     55.4938                39.2987                 0.9973

                     34                     35                     36
                      A                      A                      A
 Frequencies --    896.2912               910.6121               938.9588
 Red. masses --      2.3257                 2.0574                 5.7432
 Frc consts  --      1.1008                 1.0052                 2.9833
 IR Inten    --     19.2900                27.5009                17.5306

                     37                     38                     39
                      A                      A                      A
 Frequencies --    958.9692               989.2302              1010.6598
 Red. masses --      2.5875                 2.3565                 2.3242
 Frc consts  --      1.4020                 1.3587                 1.3987
 IR Inten    --      3.2974                 2.3126                11.5088

                     40                     41                     42
                      A                      A                      A
 Frequencies --   1023.1582              1050.3137              1081.5764
 Red. masses --      2.6426                 3.1196                 2.7176
 Frc consts  --      1.6299                 2.0276                 1.8731
 IR Inten    --     28.0546                11.1847                 9.2529

                     43                     44                     45
                      A                      A                      A
 Frequencies --   1123.7973              1138.2647              1151.0487
 Red. masses --      3.5181                 2.2301                 1.8026
 Frc consts  --      2.6178                 1.7024                 1.4071
 IR Inten    --    142.3447                20.2964                19.4024

                     46                     47                     48
                      A                      A                      A
 Frequencies --   1158.0669              1172.4309              1233.4281
 Red. masses --      1.4032                 2.2027                 1.4575
 Frc consts  --      1.1088                 1.7840                 1.3064
 IR Inten    --     39.3577                81.1659                 6.1035

                     49                     50                     51
                      A                      A                      A
 Frequencies --   1261.1444              1264.5383              1278.3622
 Red. masses --      2.2294                 1.4380                 1.4495
 Frc consts  --      2.0891                 1.3548                 1.3956
 IR Inten    --      4.4073                32.3308                12.3098

                     52                     53                     54
                      A                      A                      A
 Frequencies --   1288.6378              1312.2636              1314.3912
 Red. masses --      1.3445                 1.6416                 1.3396
 Frc consts  --      1.3154                 1.6655                 1.3636
 IR Inten    --      2.8754                10.8566                 2.8064

                     55                     56                     57
                      A                      A                      A
 Frequencies --   1341.1177              1364.9563              1373.4484
 Red. masses --      1.8080                 1.4091                 1.4515
 Frc consts  --      1.9159                 1.5468                 1.6132
 IR Inten    --     12.3749                14.2309                10.1369

                     58                     59                     60
                      A                      A                      A
 Frequencies --   1392.3573              1396.1904              1421.8171
 Red. masses --      2.3918                 2.1862                 1.3917
 Frc consts  --      2.7319                 2.5109                 1.6576
 IR Inten    --      9.8289                81.6413                16.1749

                     61                     62                     63
                      A                      A                      A
 Frequencies --   1455.3172              1464.5643              1486.4356
 Red. masses --      2.1833                 1.0810                 1.3015
 Frc consts  --      2.7244                 1.3661                 1.6943
 IR Inten    --     39.5187                12.2512                21.1834

                     64                     65                     66
                      A                      A                      A
 Frequencies --   1497.7533              1514.1536              1576.8065
 Red. masses --      2.4378                 1.0843                 1.9133
 Frc consts  --      3.2220                 1.4647                 2.8028
 IR Inten    --     15.6409                 4.3888               265.3482

                     67                     68                     69
                      A                      A                      A
 Frequencies --   1605.5887              1655.7976              1694.6043
 Red. masses --      3.4366                 1.0904                 6.9834
 Frc consts  --      5.2198                 1.7613                11.8156
 IR Inten    --     13.0445                33.7542               318.6624

                     70                     71                     72
                      A                      A                      A
 Frequencies --   1810.6739              2990.9435              3024.4934
 Red. masses --      9.9713                 1.0718                 1.0707
 Frc consts  --     19.2611                 5.6489                 5.7708
 IR Inten    --    286.1369                71.1271                 4.1847

                     73                     74                     75
                      A                      A                      A
 Frequencies --   3031.2154              3060.9020              3066.8214
 Red. masses --      1.0598                 1.0993                 1.0914
 Frc consts  --      5.7374                 6.0685                 6.0482
 IR Inten    --     16.9632                 5.4733                19.0833

                     76                     77                     78
                      A                      A                      A
 Frequencies --   3084.7465              3103.9611              3232.2818
 Red. masses --      1.0858                 1.0918                 1.0957
 Frc consts  --      6.0874                 6.1979                 6.7448
 IR Inten    --      9.1548                 7.1710                 7.4326

                     79                     80                     81
                      A                      A                      A
 Frequencies --   3245.3137              3404.7830              3471.2424
 Red. masses --      1.0971                 1.0816                 1.0855
 Frc consts  --      6.8082                 7.3876                 7.7062
 IR Inten    --      1.0265               353.9015               328.4412

                     82                     83                     84
                      A                      A                      A
 Frequencies --   3505.3963              3586.2160              3750.5942
 Red. masses --      1.0499                 1.0934                 1.0643
 Frc consts  --      7.6009                 8.2854                 8.8211
 IR Inten    --      0.7579                 7.0343                84.8539

 - Thermochemistry -
 -------------------
 Temperature   298.150 Kelvin.  Pressure   1.00000 Atm.
 Atom     1 has atomic number  8 and mass  15.99491

 Molecular mass:   226.10659 amu.
 Principal axes and moments of inertia in atomic units:
                           1         2         3
     Eigenvalues --  3029.580184502.351206198.46185
           X            0.50496   0.63704   0.58241
           Y            0.85769  -0.44605  -0.25574
           Z           -0.09687  -0.62866   0.77162
 This molecule is an asymmetric top.
 Rotational symmetry number  1.
 Warning -- assumption of classical behavior for rotation
           may cause significant error
 Rotational temperatures (Kelvin)      0.02859     0.01924     0.01397
 Rotational constants (GHZ):           0.59571     0.40084     0.29116
 Zero-point vibrational energy     643548.6 (Joules/Mol)
                                  153.81180 (Kcal/Mol)
 Warning -- explicit consideration of  21 degrees of freedom as
           vibrations may cause significant error
 Vibrational temperatures:     35.89    64.70    75.48    98.02   123.65
          (Kelvin)            147.12   165.55   193.35   260.32   286.61
                              316.45   378.62   423.33   439.25   495.80
                              501.95   619.68   698.14   739.08   843.79
                              855.86   915.14   928.06   972.25   990.61
                             1002.49  1074.04  1121.23  1133.44  1187.80
                             1194.72  1213.15  1260.60  1289.56  1310.17
                             1350.95  1379.74  1423.28  1454.11  1472.09
                             1511.17  1556.15  1616.89  1637.71  1656.10
                             1666.20  1686.86  1774.63  1814.50  1819.39
                             1839.28  1854.06  1888.05  1891.11  1929.57
                             1963.87  1976.08  2003.29  2008.80  2045.68
                             2093.87  2107.18  2138.65  2154.93  2178.53
                             2268.67  2310.08  2382.32  2438.15  2605.15
                             4303.30  4351.57  4361.24  4403.95  4412.47
                             4438.26  4465.90  4650.53  4669.28  4898.72
                             4994.34  5043.48  5159.76  5396.26

 Zero-point correction=                           0.245115 (Hartree/Particle)
 Thermal correction to Energy=                    0.260759
 Thermal correction to Enthalpy=                  0.261703
 Thermal correction to Gibbs Free Energy=         0.200207
 Sum of electronic and zero-point Energies=           -796.145240
 Sum of electronic and thermal Energies=              -796.129595
 Sum of electronic and thermal Enthalpies=            -796.128651
 Sum of electronic and thermal Free Energies=         -796.190147

                     E (Thermal)             CV                S
                      KCal/Mol        Cal/Mol-Kelvin    Cal/Mol-Kelvin
 Total                  163.629             57.501            129.430
 Electronic               0.000              0.000              0.000
 Translational            0.889              2.981             42.150
 Rotational               0.889              2.981             32.803
 Vibrational            161.851             51.539             54.477
 Vibration     1          0.593              1.985              6.195
 Vibration     2          0.595              1.979              5.027
 Vibration     3          0.596              1.977              4.722
 Vibration     4          0.598              1.969              4.207
 Vibration     5          0.601              1.959              3.750
 Vibration     6          0.604              1.947              3.411
 Vibration     7          0.608              1.937              3.182
 Vibration     8          0.613              1.919              2.882
 Vibration     9          0.630              1.866              2.319
 Vibration    10          0.637              1.841              2.140
 Vibration    11          0.647              1.811              1.960
 Vibration    12          0.670              1.740              1.641
 Vibration    13          0.689              1.684              1.450
 Vibration    14          0.696              1.664              1.388
 Vibration    15          0.723              1.586              1.191
 Vibration    16          0.726              1.578              1.171
 Vibration    17          0.792              1.403              0.856
 Vibration    18          0.841              1.283              0.696
 Vibration    19          0.869              1.220              0.625
 Vibration    20          0.944              1.061              0.474
 Vibration    21          0.953              1.043              0.459

 Optimization completed.
    -- Stationary point found.
 Normal termination of Gaussian 09 at Thu Jul 29 10:58:00 2021.
