 Gaussian 09, Revision D.01,
 Gaussian 09:  ES64L-G09RevD.01 24-Apr-2013

 ----------------------------------------------------------------------
 # B3LYP/6-31G(d) EmpiricalDispersion=GD3BJ opt=calcfc freq=noraman nos
 ymm integral(ultrafinegrid)
 ----------------------------------------------------------------------

 ------------------------------------------------------------
 Candidate Structure: Conf:591 OPT and FREQ calc in gas phase
 ------------------------------------------------------------
 Symbolic Z-matrix:
 Charge =  0 Multiplicity = 1

 SCF Done:  E(RB3LYP) =  -796.129455353     A.U. after   15 cycles
 SCF Done:  E(RB3LYP) =  -796.131878061     A.U. after   15 cycles
 SCF Done:  E(RB3LYP) =  -796.131586387     A.U. after   15 cycles
 SCF Done:  E(RB3LYP) =  -796.132265495     A.U. after   13 cycles
 SCF Done:  E(RB3LYP) =  -796.132370934     A.U. after   12 cycles
 SCF Done:  E(RB3LYP) =  -796.132536402     A.U. after   12 cycles
 SCF Done:  E(RB3LYP) =  -796.133635980     A.U. after   15 cycles
 SCF Done:  E(RB3LYP) =  -796.135870204     A.U. after   13 cycles
 SCF Done:  E(RB3LYP) =  -796.132741516     A.U. after   13 cycles
 SCF Done:  E(RB3LYP) =  -796.137180896     A.U. after   11 cycles
 SCF Done:  E(RB3LYP) =  -796.138324352     A.U. after   12 cycles
 SCF Done:  E(RB3LYP) =  -796.138503032     A.U. after   12 cycles
 SCF Done:  E(RB3LYP) =  -796.138534109     A.U. after   11 cycles
 SCF Done:  E(RB3LYP) =  -796.138615788     A.U. after   12 cycles
 SCF Done:  E(RB3LYP) =  -796.138641037     A.U. after   10 cycles
 SCF Done:  E(RB3LYP) =  -796.138654119     A.U. after   10 cycles
 SCF Done:  E(RB3LYP) =  -796.138661407     A.U. after   10 cycles
 SCF Done:  E(RB3LYP) =  -796.138662034     A.U. after    8 cycles
 SCF Done:  E(RB3LYP) =  -796.138662115     A.U. after    7 cycles
 Optimization completed.
    -- Stationary point found.
 Normal termination of Gaussian 09 at Tue Jul 27 02:08:14 2021.

 --------------------------------------------------------------------
 #N Geom=AllCheck Guess=TCheck SCRF=Check GenChk RB3LYP/6-31G(d) Freq
 --------------------------------------------------------------------

 Structure from the checkpoint file:  "conf-591.chk"
 ------------------------------------------------------------
 Candidate Structure: Conf:591 OPT and FREQ calc in gas phase
 ------------------------------------------------------------
 Charge =  0 Multiplicity = 1

                          Input orientation:
 ---------------------------------------------------------------------
 Center     Atomic      Atomic             Coordinates (Angstroms)
 Number     Number       Type             X           Y           Z
 ---------------------------------------------------------------------
      1          8           0       -0.841513    0.241681   -0.994678
      2          6           0       -1.273867    0.089606    0.153133
      3          7           0       -0.475560   -0.244245    1.194932
      4          6           0        0.943603   -0.494727    1.043152
      5          6           0        1.398851   -1.231240    2.288102
      6          8           0        2.667596   -1.660640    2.171657
      7          8           0        0.720725   -1.398895    3.280416
      8          6           0        1.793310    0.813200    0.823600
      9          6           0        2.536089    0.825495   -0.467236
     10          6           0        3.871102    0.932496   -0.785287
     11          7           0        4.055968    0.891478   -2.150243
     12          6           0        2.843941    0.755163   -2.654176
     13          7           0        1.888381    0.713358   -1.682708
     14          6           0       -2.746059    0.266268    0.474774
     15          6           0       -3.629717   -0.539377   -0.485338
     16          7           0       -5.040313   -0.317750   -0.156231
     17          1           0       -0.862804   -0.421864    2.113948
     18          1           0        1.102571   -1.151358    0.181827
     19          1           0        2.896884   -2.096717    3.014048
     20          1           0        2.513329    0.938135    1.637184
     21          1           0        1.092496    1.653686    0.888265
     22          1           0        4.706396    1.037477   -0.105104
     23          1           0        2.603298    0.682948   -3.706344
     24          1           0        0.881057    0.578585   -1.764284
     25          1           0       -2.977629   -0.012065    1.507940
     26          1           0       -2.977800    1.334577    0.365819
     27          1           0       -3.418446   -1.607474   -0.353337
     28          1           0       -3.345613   -0.281248   -1.516690
     29          1           0       -5.623020   -0.930152   -0.724265
     30          1           0       -5.303236    0.633737   -0.412233
 ---------------------------------------------------------------------

 SCF Done:  E(RB3LYP) =  -796.138662115     A.U. after    1 cycles

 Alpha  occ. eigenvalues --  -19.22341 -19.16942 -19.13432 -14.37971 -14.36382
 Alpha  occ. eigenvalues --  -14.32202 -14.29304 -10.34857 -10.30632 -10.26060
 Alpha  occ. eigenvalues --  -10.22078 -10.22001 -10.21329 -10.20454 -10.20396
 Alpha  occ. eigenvalues --  -10.18106  -1.13481  -1.05263  -1.04437  -0.99200
 Alpha  occ. eigenvalues --   -0.94594  -0.89004  -0.85009  -0.80874  -0.76627
 Alpha  occ. eigenvalues --   -0.73677  -0.67798  -0.65394  -0.61540  -0.60354
 Alpha  occ. eigenvalues --   -0.59231  -0.57075  -0.53691  -0.53496  -0.51205
 Alpha  occ. eigenvalues --   -0.49809  -0.49483  -0.48397  -0.47582  -0.45909
 Alpha  occ. eigenvalues --   -0.45127  -0.44152  -0.42768  -0.42095  -0.41009
 Alpha  occ. eigenvalues --   -0.40055  -0.39084  -0.38926  -0.38688  -0.38210
 Alpha  occ. eigenvalues --   -0.37480  -0.35196  -0.34538  -0.30750  -0.27985
 Alpha  occ. eigenvalues --   -0.27520  -0.25925  -0.24799  -0.24209  -0.20845
 Alpha virt. eigenvalues --   -0.01851   0.00777   0.04141   0.05309   0.07335
 Alpha virt. eigenvalues --    0.07917   0.08480   0.11228   0.11672   0.12249
 Alpha virt. eigenvalues --    0.13153   0.14398   0.14801   0.15848   0.16734

 Mulliken charges:
               1
     1  O   -0.552711
     2  C    0.627279
     3  N   -0.619386
     4  C   -0.009471
     5  C    0.558282
     6  O   -0.552764
     7  O   -0.468064
     8  C   -0.362964
     9  C    0.304820
    10  C   -0.079669
    11  N   -0.433962
    12  C    0.201440
    13  N   -0.613290
    14  C   -0.351883
    15  C   -0.139799
    16  N   -0.718909
    17  H    0.355810
    18  H    0.207519
    19  H    0.421110
    20  H    0.174829
    21  H    0.176210
    22  H    0.122496
    23  H    0.148163
    24  H    0.381015
    25  H    0.159066
    26  H    0.168013
    27  H    0.147133
    28  H    0.151751
    29  H    0.302352
    30  H    0.295584
 Sum of Mulliken charges =   0.00000

 Dipole moment (field-independent basis, Debye):
    X=             -3.6878    Y=             -1.0430    Z=              2.3758  Tot=              4.5091
 Quadrupole moment (field-independent basis, Debye-Ang):
   XX=           -102.3172   YY=            -90.4004   ZZ=            -94.1486
   XY=             -8.5977   XZ=             23.5021   YZ=              1.9406

  Exact polarizability: 156.367   2.219  82.382  -5.134 -11.079 133.496
 Approx polarizability: 207.887   0.691 121.413 -12.104 -10.435 209.163

                      1                      2                      3
                      A                      A                      A
 Frequencies --     15.0491                33.9087                53.7311
 Red. masses --      3.2386                 6.2620                 4.2457
 Frc consts  --      0.0004                 0.0042                 0.0072
 IR Inten    --      1.5905                 1.2460                 1.6062

                      4                      5                      6
                      A                      A                      A
 Frequencies --     60.4059                75.4275                79.3739
 Red. masses --      8.4661                 2.7073                 4.4564
 Frc consts  --      0.0182                 0.0091                 0.0165
 IR Inten    --      1.0169                 1.7637                 0.9326

                      7                      8                      9
                      A                      A                      A
 Frequencies --     87.8425               133.0583               137.7297
 Red. masses --      6.3748                 6.0390                 4.0327
 Frc consts  --      0.0290                 0.0630                 0.0451
 IR Inten    --      7.7852                 2.9089                 9.0131

                     10                     11                     12
                      A                      A                      A
 Frequencies --    191.0374               232.7096               253.4409
 Red. masses --      5.1876                 3.6578                 1.5443
 Frc consts  --      0.1115                 0.1167                 0.0584
 IR Inten    --      1.5964                13.6307                42.1614

                     13                     14                     15
                      A                      A                      A
 Frequencies --    284.9172               293.9729               318.7777
 Red. masses --      2.8083                 2.8493                 3.7960
 Frc consts  --      0.1343                 0.1451                 0.2273
 IR Inten    --     14.0414                13.2384                 4.4380

                     16                     17                     18
                      A                      A                      A
 Frequencies --    357.1577               395.6499               426.1406
 Red. masses --      6.6730                 4.2660                 3.5901
 Frc consts  --      0.5015                 0.3935                 0.3841
 IR Inten    --      0.5139                 7.1843                 3.2474

                     19                     20                     21
                      A                      A                      A
 Frequencies --    530.0869               564.2674               599.9558
 Red. masses --      2.2104                 1.6700                 1.6818
 Frc consts  --      0.3660                 0.3133                 0.3567
 IR Inten    --     75.6770                34.2205                71.3370

                     22                     23                     24
                      A                      A                      A
 Frequencies --    634.1963               646.1531               654.5389
 Red. masses --      3.4590                 3.7960                 2.1252
 Frc consts  --      0.8197                 0.9338                 0.5364
 IR Inten    --     31.0881                 5.8057                 5.3811

                     25                     26                     27
                      A                      A                      A
 Frequencies --    676.5886               721.1966               756.7789
 Red. masses --      3.7218                 3.0943                 5.0014
 Frc consts  --      1.0038                 0.9482                 1.6876
 IR Inten    --     44.8276                33.6730                14.0237

                     28                     29                     30
                      A                      A                      A
 Frequencies --    773.5367               781.8760               802.8306
 Red. masses --      1.1097                 3.6711                 1.4236
 Frc consts  --      0.3912                 1.3223                 0.5406
 IR Inten    --     39.4168                13.1757                22.8120

                     31                     32                     33
                      A                      A                      A
 Frequencies --    806.2564               837.8698               874.2134
 Red. masses --      1.2637                 1.2977                 2.5804
 Frc consts  --      0.4840                 0.5368                 1.1619
 IR Inten    --      6.7250                31.8428                15.0639

                     34                     35                     36
                      A                      A                      A
 Frequencies --    887.8463               946.3747               953.1156
 Red. masses --      1.3325                 5.9417                 3.3438
 Frc consts  --      0.6188                 3.1354                 1.7897
 IR Inten    --    150.5054                20.1497                 8.1384

                     37                     38                     39
                      A                      A                      A
 Frequencies --    985.5303               995.9944              1032.0587
 Red. masses --      3.2910                 2.6955                 3.6545
 Frc consts  --      1.8833                 1.5755                 2.2934
 IR Inten    --      2.4583                 4.3591                 6.7461

                     40                     41                     42
                      A                      A                      A
 Frequencies --   1033.2615              1063.4493              1105.1500
 Red. masses --      3.1351                 2.2917                 2.3717
 Frc consts  --      1.9721                 1.5270                 1.7067
 IR Inten    --     20.8507                 5.5879                34.3637

                     43                     44                     45
                      A                      A                      A
 Frequencies --   1146.4968              1150.0373              1160.1024
 Red. masses --      1.8895                 2.7668                 1.8311
 Frc consts  --      1.4633                 2.1560                 1.4519
 IR Inten    --     63.1843                24.4410                 4.3285

                     46                     47                     48
                      A                      A                      A
 Frequencies --   1172.7099              1198.1960              1219.0377
 Red. masses --      1.3348                 2.3772                 1.2738
 Frc consts  --      1.0816                 2.0109                 1.1153
 IR Inten    --     24.8113               166.3717                 6.7914

                     49                     50                     51
                      A                      A                      A
 Frequencies --   1250.1440              1277.4923              1288.4404
 Red. masses --      1.5331                 2.0711                 1.4849
 Frc consts  --      1.4117                 1.9915                 1.4524
 IR Inten    --     14.7981                 8.3172                11.2587

                     52                     53                     54
                      A                      A                      A
 Frequencies --   1301.5817              1315.9076              1330.4634
 Red. masses --      1.3187                 1.3367                 1.2068
 Frc consts  --      1.3162                 1.3637                 1.2587
 IR Inten    --     10.8286                 8.8916                 0.5344

                     55                     56                     57
                      A                      A                      A
 Frequencies --   1345.6889              1376.8465              1380.9007
 Red. masses --      1.3695                 1.4309                 1.4479
 Frc consts  --      1.4611                 1.5982                 1.6267
 IR Inten    --      1.5201                32.6422                 7.6898

                     58                     59                     60
                      A                      A                      A
 Frequencies --   1400.7913              1435.7718              1446.3049
 Red. masses --      3.9691                 2.5275                 1.4673
 Frc consts  --      4.5887                 3.0698                 1.8084
 IR Inten    --     19.5798                97.9738                47.1472

                     61                     62                     63
                      A                      A                      A
 Frequencies --   1461.6205              1503.9369              1506.1825
 Red. masses --      2.4824                 1.1476                 1.1192
 Frc consts  --      3.1246                 1.5294                 1.4959
 IR Inten    --     79.8661                13.7562                 6.7652

                     64                     65                     66
                      A                      A                      A
 Frequencies --   1519.8637              1547.9364              1561.3867
 Red. masses --      3.1866                 1.0874                 2.4822
 Frc consts  --      4.3370                 1.5351                 3.5654
 IR Inten    --     23.2402                 1.8333               322.8653

                     67                     68                     69
                      A                      A                      A
 Frequencies --   1630.1872              1698.1208              1744.0218
 Red. masses --      4.2764                 1.0886                 8.8067
 Frc consts  --      6.6957                 1.8495                15.7822
 IR Inten    --     16.6494                27.0554               215.7759

                     70                     71                     72
                      A                      A                      A
 Frequencies --   1835.9654              3014.3794              3045.8685
 Red. masses --      9.6577                 1.0669                 1.0668
 Frc consts  --     19.1802                 5.7120                 5.8314
 IR Inten    --    263.3294                37.9195                 8.2043

                     73                     74                     75
                      A                      A                      A
 Frequencies --   3059.1088              3074.7738              3088.5915
 Red. masses --      1.0657                 1.0923                 1.0841
 Frc consts  --      5.8757                 6.0844                 6.0930
 IR Inten    --     20.5869                25.9483                 9.4376

                     76                     77                     78
                      A                      A                      A
 Frequencies --   3109.6658              3116.8207              3251.4505
 Red. masses --      1.1004                 1.0985                 1.0960
 Frc consts  --      6.2696                 6.2873                 6.8267
 IR Inten    --     28.1413                11.1496                11.9838

                     79                     80                     81
                      A                      A                      A
 Frequencies --   3264.8724              3461.7154              3498.1686
 Red. masses --      1.0972                 1.0505                 1.0844
 Frc consts  --      6.8910                 7.4171                 7.8184
 IR Inten    --      3.7952                 1.9506               434.1659

                     82                     83                     84
                      A                      A                      A
 Frequencies --   3548.3846              3594.0324              3687.5866
 Red. masses --      1.0916                 1.0778                 1.0641
 Frc consts  --      8.0983                 8.2029                 8.5258
 IR Inten    --      0.2748                78.5995                72.6115

 - Thermochemistry -
 -------------------
 Temperature   298.150 Kelvin.  Pressure   1.00000 Atm.
 Atom     1 has atomic number  8 and mass  15.99491

 Molecular mass:   226.10659 amu.
 Principal axes and moments of inertia in atomic units:
                           1         2         3
     Eigenvalues --  2688.818995878.868888175.82893
           X            0.98649   0.15792  -0.04367
           Y            0.10378  -0.39600   0.91237
           Z           -0.12679   0.90457   0.40704
 This molecule is an asymmetric top.
 Rotational symmetry number  1.
 Warning -- assumption of classical behavior for rotation
           may cause significant error
 Rotational temperatures (Kelvin)      0.03221     0.01473     0.01059
 Rotational constants (GHZ):           0.67120     0.30699     0.22074
 Zero-point vibrational energy     646671.4 (Joules/Mol)
                                  154.55817 (Kcal/Mol)
 Warning -- explicit consideration of  21 degrees of freedom as
           vibrations may cause significant error
 Vibrational temperatures:     21.65    48.79    77.31    86.91   108.52
          (Kelvin)            114.20   126.39   191.44   198.16   274.86
                              334.82   364.64   409.93   422.96   458.65
                              513.87   569.25   613.12   762.68   811.85
                              863.20   912.47   929.67   941.73   973.46
                             1037.64  1088.83  1112.95  1124.94  1155.09
                             1160.02  1205.51  1257.80  1277.41  1361.62
                             1371.32  1417.96  1433.01  1484.90  1486.63
                             1530.06  1590.06  1649.55  1654.65  1669.13
                             1687.27  1723.93  1753.92  1798.68  1838.02
                             1853.78  1872.68  1893.30  1914.24  1936.14
                             1980.97  1986.81  2015.42  2065.75  2080.91
                             2102.94  2163.83  2167.06  2186.74  2227.13
                             2246.48  2345.47  2443.21  2509.26  2641.54
                             4337.01  4382.32  4401.37  4423.91  4443.79
                             4474.11  4484.40  4678.11  4697.42  4980.63
                             5033.08  5105.33  5171.00  5305.61

 Zero-point correction=                           0.246304 (Hartree/Particle)
 Thermal correction to Energy=                    0.262322
 Thermal correction to Enthalpy=                  0.263266
 Thermal correction to Gibbs Free Energy=         0.199634
 Sum of electronic and zero-point Energies=           -795.892358
 Sum of electronic and thermal Energies=              -795.876340
 Sum of electronic and thermal Enthalpies=            -795.875396
 Sum of electronic and thermal Free Energies=         -795.939028

                     E (Thermal)             CV                S
                      KCal/Mol        Cal/Mol-Kelvin    Cal/Mol-Kelvin
 Total                  164.609             57.689            133.926
 Electronic               0.000              0.000              0.000
 Translational            0.889              2.981             42.150
 Rotational               0.889              2.981             33.224
 Vibrational            162.832             51.727             58.552
 Vibration     1          0.593              1.986              7.199
 Vibration     2          0.594              1.983              5.587
 Vibration     3          0.596              1.976              4.675
 Vibration     4          0.597              1.973              4.444
 Vibration     5          0.599              1.965              4.006
 Vibration     6          0.600              1.963              3.906
 Vibration     7          0.601              1.958              3.708
 Vibration     8          0.613              1.920              2.901
 Vibration     9          0.614              1.916              2.835
 Vibration    10          0.634              1.852              2.218
 Vibration    11          0.653              1.791              1.858
 Vibration    12          0.665              1.757              1.707
 Vibration    13          0.683              1.702              1.504
 Vibration    14          0.689              1.685              1.451
 Vibration    15          0.705              1.638              1.316
 Vibration    16          0.732              1.561              1.134
 Vibration    17          0.762              1.479              0.979
 Vibration    18          0.788              1.413              0.871
 Vibration    19          0.885              1.183              0.587
 Vibration    20          0.920              1.109              0.515
 Vibration    21          0.958              1.032              0.450

 Normal termination of Gaussian 09 at Tue Jul 27 02:23:25 2021.
