 Gaussian 09, Revision D.01,
 Gaussian 09:  ES64L-G09RevD.01 24-Apr-2013

 ----------------------------------------------------------------------
 # B3LYP/6-31G(d) EmpiricalDispersion=GD3BJ opt=calcfc freq=noraman nos
 ymm integral(ultrafinegrid)
 ----------------------------------------------------------------------

 ------------------------------------------------------------
 Candidate Structure: Conf:455 OPT and FREQ calc in gas phase
 ------------------------------------------------------------
 Symbolic Z-matrix:
 Charge =  0 Multiplicity = 1

 SCF Done:  E(RB3LYP) =  -796.121756245     A.U. after   14 cycles
 SCF Done:  E(RB3LYP) =  -796.123702166     A.U. after   13 cycles
 SCF Done:  E(RB3LYP) =  -796.124260581     A.U. after   13 cycles
 SCF Done:  E(RB3LYP) =  -796.123830913     A.U. after   15 cycles
 SCF Done:  E(RB3LYP) =  -796.124328537     A.U. after   11 cycles
 SCF Done:  E(RB3LYP) =  -796.050575436     A.U. after   15 cycles
 SCF Done:  E(RB3LYP) =  -796.124341947     A.U. after   10 cycles
 SCF Done:  E(RB3LYP) =  -796.124391808     A.U. after   11 cycles
 SCF Done:  E(RB3LYP) =  -796.124461730     A.U. after   12 cycles
 SCF Done:  E(RB3LYP) =  -796.124521546     A.U. after   12 cycles
 SCF Done:  E(RB3LYP) =  -796.124576517     A.U. after   12 cycles
 SCF Done:  E(RB3LYP) =  -796.124606393     A.U. after   13 cycles
 SCF Done:  E(RB3LYP) =  -796.124718789     A.U. after   12 cycles
 SCF Done:  E(RB3LYP) =  -796.124808551     A.U. after   12 cycles
 SCF Done:  E(RB3LYP) =  -796.124817384     A.U. after   11 cycles
 SCF Done:  E(RB3LYP) =  -796.124821641     A.U. after   10 cycles
 SCF Done:  E(RB3LYP) =  -796.124824274     A.U. after   11 cycles
 SCF Done:  E(RB3LYP) =  -796.124824543     A.U. after    9 cycles
 SCF Done:  E(RB3LYP) =  -796.124824553     A.U. after    7 cycles
 Optimization completed.
    -- Stationary point found.
 Normal termination of Gaussian 09 at Tue Jul 27 02:07:27 2021.

 --------------------------------------------------------------------
 #N Geom=AllCheck Guess=TCheck SCRF=Check GenChk RB3LYP/6-31G(d) Freq
 --------------------------------------------------------------------

 Structure from the checkpoint file:  "conf-455.chk"
 ------------------------------------------------------------
 Candidate Structure: Conf:455 OPT and FREQ calc in gas phase
 ------------------------------------------------------------
 Charge =  0 Multiplicity = 1

                          Input orientation:
 ---------------------------------------------------------------------
 Center     Atomic      Atomic             Coordinates (Angstroms)
 Number     Number       Type             X           Y           Z
 ---------------------------------------------------------------------
      1          8           0        0.420566   -0.889212   -1.161242
      2          6           0        1.038677   -0.524353   -0.158556
      3          7           0        0.540448   -0.684258    1.100609
      4          6           0       -0.586379   -1.550834    1.389529
      5          6           0       -0.159986   -3.027062    1.214371
      6          8           0       -1.162072   -3.939395    1.225023
      7          8           0        0.987470   -3.375626    1.123745
      8          6           0       -1.884968   -1.193663    0.605381
      9          6           0       -2.144328    0.270909    0.492159
     10          6           0       -2.840744    1.168112    1.270418
     11          7           0       -2.759698    2.440746    0.748972
     12          6           0       -2.021249    2.320127   -0.337084
     13          7           0       -1.629867    1.029322   -0.541630
     14          6           0        2.343472    0.240003   -0.267155
     15          6           0        2.148509    1.520918   -1.112551
     16          7           0        3.345109    2.321626   -1.338112
     17          1           0        1.178650   -0.521919    1.866105
     18          1           0       -0.804244   -1.411424    2.455375
     19          1           0       -2.027494   -3.500400    1.257990
     20          1           0       -2.735175   -1.641298    1.137737
     21          1           0       -1.835940   -1.642323   -0.388905
     22          1           0       -3.404250    0.965682    2.172316
     23          1           0       -1.750368    3.121584   -1.010971
     24          1           0       -1.014159    0.657832   -1.256610
     25          1           0        2.747888    0.498699    0.719318
     26          1           0        3.069240   -0.415304   -0.763404
     27          1           0        1.737542    1.227321   -2.083580
     28          1           0        1.397550    2.157169   -0.627683
     29          1           0        3.749450    2.612475   -0.449385
     30          1           0        4.056258    1.764443   -1.809225
 ---------------------------------------------------------------------

 SCF Done:  E(RB3LYP) =  -796.124824553     A.U. after    1 cycles

 Alpha  occ. eigenvalues --  -19.21143 -19.14863 -19.13451 -14.38502 -14.38304
 Alpha  occ. eigenvalues --  -14.32515 -14.30751 -10.33304 -10.30796 -10.26970
 Alpha  occ. eigenvalues --  -10.23517 -10.22752 -10.22377 -10.22046 -10.20754
 Alpha  occ. eigenvalues --  -10.19557  -1.11542  -1.05503  -1.03361  -1.00785
 Alpha  occ. eigenvalues --   -0.94938  -0.89380  -0.86489  -0.81657  -0.77002
 Alpha  occ. eigenvalues --   -0.73856  -0.68352  -0.64649  -0.62849  -0.60992
 Alpha  occ. eigenvalues --   -0.60158  -0.58718  -0.56094  -0.53422  -0.53165
 Alpha  occ. eigenvalues --   -0.51506  -0.48740  -0.47125  -0.46079  -0.45333
 Alpha  occ. eigenvalues --   -0.44892  -0.43326  -0.43202  -0.42528  -0.41622
 Alpha  occ. eigenvalues --   -0.41260  -0.40496  -0.40432  -0.39526  -0.38916
 Alpha  occ. eigenvalues --   -0.37417  -0.35660  -0.32930  -0.29299  -0.28319
 Alpha  occ. eigenvalues --   -0.27531  -0.27367  -0.26108  -0.24300  -0.22289
 Alpha virt. eigenvalues --   -0.00632  -0.00173   0.02319   0.03859   0.05610
 Alpha virt. eigenvalues --    0.06888   0.07119   0.09869   0.11095   0.11827
 Alpha virt. eigenvalues --    0.12910   0.13636   0.14688   0.15256   0.15511

 Mulliken charges:
               1
     1  O   -0.554049
     2  C    0.631988
     3  N   -0.568972
     4  C   -0.073629
     5  C    0.628067
     6  O   -0.568821
     7  O   -0.442680
     8  C   -0.401219
     9  C    0.325432
    10  C   -0.084311
    11  N   -0.428409
    12  C    0.201081
    13  N   -0.603783
    14  C   -0.364015
    15  C   -0.154086
    16  N   -0.699725
    17  H    0.339313
    18  H    0.179647
    19  H    0.420824
    20  H    0.146843
    21  H    0.200207
    22  H    0.124319
    23  H    0.157268
    24  H    0.361958
    25  H    0.130885
    26  H    0.177100
    27  H    0.169453
    28  H    0.154446
    29  H    0.296187
    30  H    0.298681
 Sum of Mulliken charges =   0.00000

 Dipole moment (field-independent basis, Debye):
    X=              1.2174    Y=             -0.4388    Z=              1.9044  Tot=              2.3025
 Quadrupole moment (field-independent basis, Debye-Ang):
   XX=            -87.9015   YY=           -118.1645   ZZ=            -88.6873
   XY=             17.5819   XZ=              1.4276   YZ=             -3.1900

  Exact polarizability: 125.683   0.664 132.844 -18.468 -12.272 104.702
 Approx polarizability: 178.049  -3.054 188.070 -25.047  -3.220 178.946

                      1                      2                      3
                      A                      A                      A
 Frequencies --     22.1692                28.8635                48.5429
 Red. masses --      4.9038                 5.0299                 3.9952
 Frc consts  --      0.0014                 0.0025                 0.0055
 IR Inten    --      0.8411                 2.6433                10.7150

                      4                      5                      6
                      A                      A                      A
 Frequencies --     63.5124                76.5690                92.5239
 Red. masses --      4.4506                 5.6586                 4.5398
 Frc consts  --      0.0106                 0.0195                 0.0229
 IR Inten    --      3.2384                 7.9701                 0.9595

                      7                      8                      9
                      A                      A                      A
 Frequencies --     97.1785               137.0740               163.3267
 Red. masses --      2.3707                 4.9744                 5.5704
 Frc consts  --      0.0132                 0.0551                 0.0875
 IR Inten    --      1.3277                 7.3087                13.8310

                     10                     11                     12
                      A                      A                      A
 Frequencies --    202.2885               212.5675               288.9143
 Red. masses --      5.7592                 5.4609                 5.5695
 Frc consts  --      0.1389                 0.1454                 0.2739
 IR Inten    --      7.1875                10.0236                 7.8673

                     13                     14                     15
                      A                      A                      A
 Frequencies --    316.4158               330.9428               345.0341
 Red. masses --      1.1371                 3.7773                 3.2772
 Frc consts  --      0.0671                 0.2437                 0.2299
 IR Inten    --     47.4296                 0.2975                19.5567

                     16                     17                     18
                      A                      A                      A
 Frequencies --    347.6656               404.3110               410.6616
 Red. masses --      3.1783                 3.3876                 2.7019
 Frc consts  --      0.2263                 0.3263                 0.2685
 IR Inten    --      4.1082                15.0233                31.4829

                     19                     20                     21
                      A                      A                      A
 Frequencies --    480.6601               504.5200               525.5625
 Red. masses --      1.3549                 1.4465                 4.0486
 Frc consts  --      0.1844                 0.2169                 0.6589
 IR Inten    --     53.3004                62.1567                 6.0152

                     22                     23                     24
                      A                      A                      A
 Frequencies --    601.6154               635.7132               668.0608
 Red. masses --      3.9373                 2.9645                 4.4364
 Frc consts  --      0.8396                 0.7059                 1.1666
 IR Inten    --     16.4006                52.1256                16.8553

                     25                     26                     27
                      A                      A                      A
 Frequencies --    680.0612               712.3498               738.4333
 Red. masses --      4.1580                 4.0058                 1.2188
 Frc consts  --      1.1330                 1.1976                 0.3916
 IR Inten    --     21.3481                 0.6699                74.5915

                     28                     29                     30
                      A                      A                      A
 Frequencies --    760.6478               778.8854               790.7631
 Red. masses --      5.0779                 1.2285                 3.1169
 Frc consts  --      1.7310                 0.4391                 1.1483
 IR Inten    --      4.8605                 1.8396                 0.4346

                     31                     32                     33
                      A                      A                      A
 Frequencies --    800.9752               835.2770               861.7567
 Red. masses --      1.4013                 1.5134                 2.4462
 Frc consts  --      0.5297                 0.6221                 1.0703
 IR Inten    --     24.3851                23.7556                80.9584

                     34                     35                     36
                      A                      A                      A
 Frequencies --    874.7213               931.1177               941.6753
 Red. masses --      1.8371                 2.7765                 4.7575
 Frc consts  --      0.8282                 1.4182                 2.4856
 IR Inten    --    154.7701                 4.9161                10.5973

                     37                     38                     39
                      A                      A                      A
 Frequencies --    952.7827               993.6592              1027.9491
 Red. masses --      4.1972                 1.3895                 4.3248
 Frc consts  --      2.2449                 0.8083                 2.6925
 IR Inten    --     10.2920                 1.0742                77.7574

                     40                     41                     42
                      A                      A                      A
 Frequencies --   1035.7262              1047.1271              1112.7804
 Red. masses --      3.5081                 3.0795                 1.9344
 Frc consts  --      2.2172                 1.9894                 1.4113
 IR Inten    --     17.7859                 9.9844                12.5550

                     43                     44                     45
                      A                      A                      A
 Frequencies --   1127.8498              1135.4887              1157.1450
 Red. masses --      2.4666                 1.6148                 2.1031
 Frc consts  --      1.8487                 1.2267                 1.6592
 IR Inten    --      4.7535                33.1892                 8.0205

                     46                     47                     48
                      A                      A                      A
 Frequencies --   1171.2565              1190.2781              1216.7981
 Red. masses --      2.0859                 2.1127                 1.4412
 Frc consts  --      1.6860                 1.7636                 1.2573
 IR Inten    --     17.4759                 2.2460                 6.5828

                     49                     50                     51
                      A                      A                      A
 Frequencies --   1267.7180              1278.1052              1289.7449
 Red. masses --      1.6930                 1.8853                 1.6101
 Frc consts  --      1.6031                 1.8145                 1.5780
 IR Inten    --    119.6093                19.0258                 5.2005

                     52                     53                     54
                      A                      A                      A
 Frequencies --   1310.0337              1312.3761              1325.9108
 Red. masses --      1.3037                 1.3186                 1.9238
 Frc consts  --      1.3182                 1.3380                 1.9927
 IR Inten    --      7.0109                74.1960               332.1161

                     55                     56                     57
                      A                      A                      A
 Frequencies --   1362.0662              1377.4858              1401.5739
 Red. masses --      1.4533                 1.4976                 1.3533
 Frc consts  --      1.5885                 1.6742                 1.5664
 IR Inten    --     11.9559                25.8135                35.1588

                     58                     59                     60
                      A                      A                      A
 Frequencies --   1403.1726              1412.4012              1416.7295
 Red. masses --      1.4325                 1.2260                 2.5659
 Frc consts  --      1.6618                 1.4410                 3.0343
 IR Inten    --     12.5090                14.9105                20.2708

                     61                     62                     63
                      A                      A                      A
 Frequencies --   1453.3527              1503.3488              1507.5858
 Red. masses --      3.0736                 1.1184                 1.1423
 Frc consts  --      3.8251                 1.4893                 1.5296
 IR Inten    --     24.9551                 3.0288                12.9977

                     64                     65                     66
                      A                      A                      A
 Frequencies --   1515.0857              1531.7353              1567.7172
 Red. masses --      3.2571                 1.0918                 1.9003
 Frc consts  --      4.4052                 1.5093                 2.7517
 IR Inten    --     23.6512                 4.2676               186.7101

                     67                     68                     69
                      A                      A                      A
 Frequencies --   1624.4850              1701.8269              1750.8600
 Red. masses --      4.4355                 1.0916                 7.8794
 Frc consts  --      6.8965                 1.8627                14.2314
 IR Inten    --      8.1259                26.8600               151.8983

                     70                     71                     72
                      A                      A                      A
 Frequencies --   1884.1157              3033.4021              3048.3826
 Red. masses --     10.7276                 1.0709                 1.0594
 Frc consts  --     22.4372                 5.8058                 5.8005
 IR Inten    --    225.9276                40.2021                 7.3206

                     73                     74                     75
                      A                      A                      A
 Frequencies --   3057.6550              3063.6733              3092.6123
 Red. masses --      1.0656                 1.0830                 1.0998
 Frc consts  --      5.8695                 5.9889                 6.1972
 IR Inten    --     36.7986                14.5104                 3.9900

                     76                     77                     78
                      A                      A                      A
 Frequencies --   3117.8723              3133.6484              3248.1205
 Red. masses --      1.1049                 1.0932                 1.0962
 Frc consts  --      6.3282                 6.3247                 6.8138
 IR Inten    --     27.7494                 4.0276                10.2589

                     79                     80                     81
                      A                      A                      A
 Frequencies --   3267.7425              3465.9435              3551.5133
 Red. masses --      1.0974                 1.0491                 1.0929
 Frc consts  --      6.9039                 7.4250                 8.1221
 IR Inten    --      2.0451                 0.6619                 0.0979

                     82                     83                     84
                      A                      A                      A
 Frequencies --   3585.6769              3629.9269              3740.8588
 Red. masses --      1.0826                 1.0777                 1.0654
 Frc consts  --      8.2005                 8.3666                 8.7845
 IR Inten    --    132.0506                27.1932                40.4279

 - Thermochemistry -
 -------------------
 Temperature   298.150 Kelvin.  Pressure   1.00000 Atm.
 Atom     1 has atomic number  8 and mass  15.99491

 Molecular mass:   226.10659 amu.
 Principal axes and moments of inertia in atomic units:
                           1         2         3
     Eigenvalues --  3299.003263947.645996640.75846
           X            0.31257   0.91134   0.26788
           Y            0.88098  -0.38358   0.27700
           Z           -0.35520  -0.14941   0.92277
 This molecule is an asymmetric top.
 Rotational symmetry number  1.
 Warning -- assumption of classical behavior for rotation
           may cause significant error
 Rotational temperatures (Kelvin)      0.02625     0.02194     0.01304
 Rotational constants (GHZ):           0.54706     0.45717     0.27177
 Zero-point vibrational energy     646669.3 (Joules/Mol)
                                  154.55766 (Kcal/Mol)
 Warning -- explicit consideration of  22 degrees of freedom as
           vibrations may cause significant error
 Vibrational temperatures:     31.90    41.53    69.84    91.38   110.17
          (Kelvin)            133.12   139.82   197.22   234.99   291.05
                              305.84   415.68   455.25   476.15   496.43
                              500.21   581.71   590.85   691.56   725.89
                              756.17   865.59   914.65   961.19   978.46
                             1024.91  1062.44  1094.40  1120.64  1137.73
                             1152.42  1201.78  1239.87  1258.53  1339.67
                             1354.86  1370.84  1429.65  1478.99  1490.18
                             1506.58  1601.04  1622.72  1633.71  1664.87
                             1685.17  1712.54  1750.70  1823.96  1838.91
                             1855.65  1884.84  1888.21  1907.69  1959.71
                             1981.89  2016.55  2018.85  2032.13  2038.36
                             2091.05  2162.98  2169.08  2179.87  2203.82
                             2255.59  2337.27  2448.55  2519.09  2710.82
                             4364.38  4385.94  4399.28  4407.94  4449.57
                             4485.92  4508.62  4673.32  4701.55  4986.71
                             5109.83  5158.98  5222.65  5382.25

 Zero-point correction=                           0.246303 (Hartree/Particle)
 Thermal correction to Energy=                    0.262267
 Thermal correction to Enthalpy=                  0.263211
 Thermal correction to Gibbs Free Energy=         0.200386
 Sum of electronic and zero-point Energies=           -795.878521
 Sum of electronic and thermal Energies=              -795.862558
 Sum of electronic and thermal Enthalpies=            -795.861614
 Sum of electronic and thermal Free Energies=         -795.924438

                     E (Thermal)             CV                S
                      KCal/Mol        Cal/Mol-Kelvin    Cal/Mol-Kelvin
 Total                  164.575             58.164            132.225
 Electronic               0.000              0.000              0.000
 Translational            0.889              2.981             42.150
 Rotational               0.889              2.981             32.825
 Vibrational            162.797             52.202             57.250
 Vibration     1          0.593              1.985              6.430
 Vibration     2          0.593              1.984              5.906
 Vibration     3          0.595              1.978              4.876
 Vibration     4          0.597              1.972              4.345
 Vibration     5          0.599              1.965              3.977
 Vibration     6          0.602              1.955              3.606
 Vibration     7          0.603              1.951              3.510
 Vibration     8          0.614              1.916              2.844
 Vibration     9          0.623              1.887              2.511
 Vibration    10          0.639              1.837              2.112
 Vibration    11          0.644              1.822              2.022
 Vibration    12          0.685              1.694              1.480
 Vibration    13          0.703              1.642              1.329
 Vibration    14          0.713              1.614              1.255
 Vibration    15          0.723              1.585              1.189
 Vibration    16          0.725              1.580              1.177
 Vibration    17          0.769              1.461              0.947
 Vibration    18          0.775              1.447              0.924
 Vibration    19          0.837              1.293              0.708
 Vibration    20          0.860              1.240              0.647
 Vibration    21          0.881              1.193              0.597
 Vibration    22          0.960              1.028              0.447

 Optimization completed.
    -- Stationary point found.
 Normal termination of Gaussian 09 at Tue Jul 27 02:24:17 2021.
