 Gaussian 09, Revision D.01,
 Gaussian 09:  ES64L-G09RevD.01 24-Apr-2013

 ----------------------------------------------------------------------
 # B3LYP/6-31G(d) EmpiricalDispersion=GD3BJ opt=calcfc freq=noraman nos
 ymm integral(ultrafinegrid)
 ----------------------------------------------------------------------

 ------------------------------------------------------------
 Candidate Structure: Conf:118 OPT and FREQ calc in gas phase
 ------------------------------------------------------------
 Symbolic Z-matrix:
 Charge =  0 Multiplicity = 1

 SCF Done:  E(RB3LYP) =  -796.143436878     A.U. after   14 cycles
 SCF Done:  E(RB3LYP) =  -796.146171208     A.U. after   14 cycles
 SCF Done:  E(RB3LYP) =  -796.146770143     A.U. after   14 cycles
 SCF Done:  E(RB3LYP) =  -796.147179220     A.U. after   12 cycles
 SCF Done:  E(RB3LYP) =  -796.147333567     A.U. after   12 cycles
 SCF Done:  E(RB3LYP) =  -796.147341124     A.U. after   11 cycles
 SCF Done:  E(RB3LYP) =  -796.147370511     A.U. after   11 cycles
 SCF Done:  E(RB3LYP) =  -796.147371926     A.U. after    9 cycles
 SCF Done:  E(RB3LYP) =  -796.147372062     A.U. after    8 cycles
 Optimization completed.
    -- Stationary point found.
 Normal termination of Gaussian 09 at Tue Jul 27 01:51:32 2021.

 --------------------------------------------------------------------
 #N Geom=AllCheck Guess=TCheck SCRF=Check GenChk RB3LYP/6-31G(d) Freq
 --------------------------------------------------------------------

 Structure from the checkpoint file:  "conf-118.chk"
 ------------------------------------------------------------
 Candidate Structure: Conf:118 OPT and FREQ calc in gas phase
 ------------------------------------------------------------
 Charge =  0 Multiplicity = 1

                          Input orientation:
 ---------------------------------------------------------------------
 Center     Atomic      Atomic             Coordinates (Angstroms)
 Number     Number       Type             X           Y           Z
 ---------------------------------------------------------------------
      1          8           0       -0.992166   -1.941999    1.750186
      2          6           0       -1.006904   -1.302543    0.684141
      3          7           0        0.108254   -0.716512    0.195900
      4          6           0        1.429494   -0.886142    0.796964
      5          6           0        1.571432   -0.062673    2.099542
      6          8           0        0.724885   -0.392727    3.068418
      7          8           0        2.408938    0.806914    2.249156
      8          6           0        2.512211   -0.538261   -0.242701
      9          6           0        2.278003    0.765036   -0.935437
     10          6           0        1.847199    1.070984   -2.210554
     11          7           0        1.721675    2.433902   -2.375065
     12          6           0        2.065197    2.950550   -1.211245
     13          7           0        2.411303    1.988463   -0.308925
     14          6           0       -2.285214   -1.113632   -0.100040
     15          6           0       -3.357448   -0.392379    0.753773
     16          7           0       -4.657301   -0.226689    0.117670
     17          1           0        0.064919   -0.125517   -0.628184
     18          1           0        1.524166   -1.941266    1.083744
     19          1           0        0.094872   -1.099801    2.749949
     20          1           0        2.525674   -1.330994   -0.997206
     21          1           0        3.481844   -0.549147    0.264516
     22          1           0        1.652547    0.383865   -3.024570
     23          1           0        2.083027    4.004599   -0.969522
     24          1           0        2.641851    2.078047    0.675780
     25          1           0       -2.654809   -2.110624   -0.369297
     26          1           0       -2.105296   -0.562708   -1.031354
     27          1           0       -3.488790   -0.953140    1.683879
     28          1           0       -2.985166    0.600533    1.033277
     29          1           0       -4.566095    0.297926   -0.750751
     30          1           0       -5.048207   -1.134056   -0.130554
 ---------------------------------------------------------------------

 SCF Done:  E(RB3LYP) =  -796.147372062     A.U. after    1 cycles

 Alpha  occ. eigenvalues --  -19.18929 -19.15003 -19.14907 -14.39566 -14.38730
 Alpha  occ. eigenvalues --  -14.32736 -14.31462 -10.33194 -10.31984 -10.26646
 Alpha  occ. eigenvalues --  -10.24218 -10.22730 -10.22651 -10.22454 -10.21535
 Alpha  occ. eigenvalues --  -10.20470  -1.10784  -1.06568  -1.02492  -1.01393
 Alpha  occ. eigenvalues --   -0.95853  -0.89648  -0.87104  -0.81937  -0.77580
 Alpha  occ. eigenvalues --   -0.74299  -0.68177  -0.65164  -0.62053  -0.61915
 Alpha  occ. eigenvalues --   -0.60557  -0.59363  -0.56029  -0.54936  -0.52286
 Alpha  occ. eigenvalues --   -0.51099  -0.50424  -0.47345  -0.46159  -0.45942
 Alpha  occ. eigenvalues --   -0.44973  -0.44255  -0.43568  -0.43127  -0.42161
 Alpha  occ. eigenvalues --   -0.41166  -0.41074  -0.40578  -0.39552  -0.38707
 Alpha  occ. eigenvalues --   -0.37526  -0.36209  -0.32192  -0.31138  -0.29053
 Alpha  occ. eigenvalues --   -0.28274  -0.27323  -0.26804  -0.24648  -0.23285
 Alpha virt. eigenvalues --   -0.01673  -0.00291   0.02016   0.05068   0.06511
 Alpha virt. eigenvalues --    0.08027   0.08958   0.11449   0.11788   0.12311
 Alpha virt. eigenvalues --    0.13063   0.14004   0.14706   0.15166   0.16169

 Mulliken charges:
               1
     1  O   -0.563098
     2  C    0.622016
     3  N   -0.598102
     4  C   -0.085681
     5  C    0.632066
     6  O   -0.581118
     7  O   -0.484823
     8  C   -0.368487
     9  C    0.277553
    10  C   -0.093429
    11  N   -0.424683
    12  C    0.206441
    13  N   -0.593887
    14  C   -0.364319
    15  C   -0.146423
    16  N   -0.698277
    17  H    0.351521
    18  H    0.191376
    19  H    0.454012
    20  H    0.167696
    21  H    0.186982
    22  H    0.131407
    23  H    0.160475
    24  H    0.374085
    25  H    0.173272
    26  H    0.142152
    27  H    0.179328
    28  H    0.155908
    29  H    0.297631
    30  H    0.298406
 Sum of Mulliken charges =   0.00000

 Dipole moment (field-independent basis, Debye):
    X=             -0.5925    Y=             -2.4949    Z=             -2.3455  Tot=              3.4752
 Quadrupole moment (field-independent basis, Debye-Ang):
   XX=            -95.5083   YY=            -92.6451   ZZ=           -112.3330
   XY=             -0.6539   XZ=              7.1390   YZ=              8.7582

  Exact polarizability: 125.838  15.136 122.446   4.688 -12.681 119.754
 Approx polarizability: 166.165  20.278 190.559  12.167 -17.720 190.783

                      1                      2                      3
                      A                      A                      A
 Frequencies --     15.0964                44.3929                57.6456
 Red. masses --      4.2889                 6.9487                 2.9250
 Frc consts  --      0.0006                 0.0081                 0.0057
 IR Inten    --      0.3083                 1.2496                 4.0637

                      4                      5                      6
                      A                      A                      A
 Frequencies --     75.2095                86.3963                95.4803
 Red. masses --      4.1868                 3.1057                 4.5794
 Frc consts  --      0.0140                 0.0137                 0.0246
 IR Inten    --      6.5350                 0.6519                 4.5157

                      7                      8                      9
                      A                      A                      A
 Frequencies --    138.9233               159.8137               195.4714
 Red. masses --      8.8132                 5.3959                 4.3259
 Frc consts  --      0.1002                 0.0812                 0.0974
 IR Inten    --      7.9161                10.1356                 9.0042

                     10                     11                     12
                      A                      A                      A
 Frequencies --    214.2044               240.7260               278.5328
 Red. masses --      4.8069                 7.1406                 6.8766
 Frc consts  --      0.1299                 0.2438                 0.3143
 IR Inten    --      5.4895                12.8515                 0.5532

                     13                     14                     15
                      A                      A                      A
 Frequencies --    304.5394               319.0994               347.8397
 Red. masses --      5.7128                 1.1151                 4.4615
 Frc consts  --      0.3122                 0.0669                 0.3180
 IR Inten    --      2.9184                49.8228                 4.7056

                     16                     17                     18
                      A                      A                      A
 Frequencies --    363.4512               383.4042               445.0934
 Red. masses --      2.5417                 3.9331                 3.4928
 Frc consts  --      0.1978                 0.3406                 0.4077
 IR Inten    --      6.3952                 5.0492                22.4798

                     19                     20                     21
                      A                      A                      A
 Frequencies --    567.4914               577.6596               608.2147
 Red. masses --      1.6155                 3.6119                 3.4357
 Frc consts  --      0.3065                 0.7101                 0.7488
 IR Inten    --     39.1416                22.1945                12.7248

                     22                     23                     24
                      A                      A                      A
 Frequencies --    634.3986               665.3044               673.5629
 Red. masses --      3.4104                 2.6015                 3.8099
 Frc consts  --      0.8087                 0.6784                 1.0184
 IR Inten    --     16.2761                13.4668                27.6108

                     25                     26                     27
                      A                      A                      A
 Frequencies --    730.6510               742.3413               763.9350
 Red. masses --      2.4490                 1.4870                 5.5452
 Frc consts  --      0.7703                 0.4828                 1.9067
 IR Inten    --     10.2903                66.0263                 6.4553

                     28                     29                     30
                      A                      A                      A
 Frequencies --    774.0958               786.2308               815.9353
 Red. masses --      1.5114                 2.8453                 1.3929
 Frc consts  --      0.5336                 1.0363                 0.5463
 IR Inten    --      9.1711                 2.9960                19.9140

                     31                     32                     33
                      A                      A                      A
 Frequencies --    838.4336               858.7326               864.3197
 Red. masses --      1.3764                 2.5001                 1.6267
 Frc consts  --      0.5701                 1.0862                 0.7160
 IR Inten    --     44.9456                66.5973               219.4183

                     34                     35                     36
                      A                      A                      A
 Frequencies --    917.7722               945.1804               952.9561
 Red. masses --      1.1558                 5.5123                 2.5368
 Frc consts  --      0.5736                 2.9014                 1.3573
 IR Inten    --     68.7316                13.8140                 4.5552

                     37                     38                     39
                      A                      A                      A
 Frequencies --    988.3916               996.1305              1017.2903
 Red. masses --      1.3873                 4.3883                 3.5952
 Frc consts  --      0.7985                 2.5656                 2.1921
 IR Inten    --      1.9397                 5.6232                13.8567

                     40                     41                     42
                      A                      A                      A
 Frequencies --   1023.0066              1064.9224              1103.8786
 Red. masses --      4.7516                 2.3506                 2.2094
 Frc consts  --      2.9299                 1.5706                 1.5863
 IR Inten    --     83.3497                 9.8663                 4.1487

                     43                     44                     45
                      A                      A                      A
 Frequencies --   1124.4549              1131.7590              1153.4414
 Red. masses --      3.2610                 1.5700                 1.3995
 Frc consts  --      2.4293                 1.1849                 1.0970
 IR Inten    --      8.0539                53.3823                 3.5912

                     46                     47                     48
                      A                      A                      A
 Frequencies --   1156.6268              1232.7801              1255.6577
 Red. masses --      2.0597                 1.5493                 2.0754
 Frc consts  --      1.6235                 1.3873                 1.9280
 IR Inten    --      4.8734                10.2394                20.9938

                     49                     50                     51
                      A                      A                      A
 Frequencies --   1271.3945              1278.2958              1296.0910
 Red. masses --      1.6679                 2.2297                 1.3258
 Frc consts  --      1.5885                 2.1466                 1.3122
 IR Inten    --     30.4143                 3.4625                 5.9913

                     52                     53                     54
                      A                      A                      A
 Frequencies --   1307.9056              1321.1454              1367.4451
 Red. masses --      1.3409                 1.4774                 1.6673
 Frc consts  --      1.3514                 1.5194                 1.8369
 IR Inten    --      2.4004                21.8508                 4.0477

                     55                     56                     57
                      A                      A                      A
 Frequencies --   1382.9323              1397.1942              1403.1455
 Red. masses --      1.6312                 1.4795                 1.2627
 Frc consts  --      1.8381                 1.7017                 1.4647
 IR Inten    --     14.2150                 2.4807                17.0350

                     58                     59                     60
                      A                      A                      A
 Frequencies --   1409.1217              1410.6419              1443.1541
 Red. masses --      2.7612                 1.2520                 2.9061
 Frc consts  --      3.2304                 1.4678                 3.5660
 IR Inten    --     35.5812                17.1166                68.0990

                     61                     62                     63
                      A                      A                      A
 Frequencies --   1480.9971              1499.0478              1504.1461
 Red. masses --      1.4468                 1.1470                 1.1166
 Frc consts  --      1.8697                 1.5187                 1.4884
 IR Inten    --    248.8397                18.0245                 3.0998

                     64                     65                     66
                      A                      A                      A
 Frequencies --   1519.0408              1526.5502              1559.9346
 Red. masses --      3.2936                 1.0918                 2.4507
 Frc consts  --      4.4778                 1.4991                 3.5136
 IR Inten    --     17.5311                 5.0201               452.7696

                     67                     68                     69
                      A                      A                      A
 Frequencies --   1617.3496              1700.6796              1707.9929
 Red. masses --      4.3965                 1.2413                 4.1650
 Frc consts  --      6.7759                 2.1152                 7.1588
 IR Inten    --     15.6626                82.7930               137.4731

                     70                     71                     72
                      A                      A                      A
 Frequencies --   1833.8025              3049.6313              3056.1914
 Red. masses --      8.0937                 1.0589                 1.0827
 Frc consts  --     16.0363                 5.8025                 5.9583
 IR Inten    --    313.7022                 6.8896                 5.1585

                     73                     74                     75
                      A                      A                      A
 Frequencies --   3064.0110              3080.3421              3093.4927
 Red. masses --      1.0663                 1.0612                 1.1013
 Frc consts  --      5.8982                 5.9328                 6.2094
 IR Inten    --     29.0421                19.5895                 6.8210

                     76                     77                     78
                      A                      A                      A
 Frequencies --   3123.1850              3125.1293              3211.0136
 Red. masses --      1.1048                 1.1039                 1.0735
 Frc consts  --      6.3494                 6.3523                 6.5211
 IR Inten    --      4.9316                21.5423               642.6080

                     79                     80                     81
                      A                      A                      A
 Frequencies --   3245.5795              3270.0677              3467.8866
 Red. masses --      1.0960                 1.0975                 1.0490
 Frc consts  --      6.8023                 6.9146                 7.4326
 IR Inten    --      8.6538                 2.3058                 0.4884

                     82                     83                     84
                      A                      A                      A
 Frequencies --   3551.0726              3554.0316              3574.0536
 Red. masses --      1.0788                 1.0931                 1.0825
 Frc consts  --      8.0151                 8.1351                 8.1471
 IR Inten    --    129.0909                 0.0896               197.1975

 - Thermochemistry -
 -------------------
 Temperature   298.150 Kelvin.  Pressure   1.00000 Atm.
 Atom     1 has atomic number  8 and mass  15.99491

 Molecular mass:   226.10659 amu.
 Principal axes and moments of inertia in atomic units:
                           1         2         3
     Eigenvalues --  2681.694375309.780596816.52094
           X            0.87387   0.41942  -0.24584
           Y            0.41584  -0.38289   0.82491
           Z           -0.25185   0.82309   0.50901
 This molecule is an asymmetric top.
 Rotational symmetry number  1.
 Warning -- assumption of classical behavior for rotation
           may cause significant error
 Rotational temperatures (Kelvin)      0.03230     0.01631     0.01271
 Rotational constants (GHZ):           0.67299     0.33989     0.26476
 Zero-point vibrational energy     648582.8 (Joules/Mol)
                                  155.01500 (Kcal/Mol)
 Warning -- explicit consideration of  21 degrees of freedom as
           vibrations may cause significant error
 Vibrational temperatures:     21.72    63.87    82.94   108.21   124.30
          (Kelvin)            137.37   199.88   229.94   281.24   308.19
                              346.35   400.75   438.16   459.11   500.46
                              522.92   551.63   640.39   816.49   831.12
                              875.08   912.76   957.22   969.11  1051.24
                             1068.06  1099.13  1113.75  1131.21  1173.95
                             1206.32  1235.52  1243.56  1320.47  1359.90
                             1371.09  1422.07  1433.21  1463.65  1471.88
                             1532.18  1588.23  1617.84  1628.35  1659.54
                             1664.13  1773.69  1806.61  1829.25  1839.18
                             1864.78  1881.78  1900.83  1967.45  1989.73
                             2010.25  2018.81  2027.41  2029.60  2076.37
                             2130.82  2156.79  2164.13  2185.56  2196.36
                             2244.40  2327.00  2446.90  2457.42  2638.43
                             4387.73  4397.17  4408.42  4431.92  4450.84
                             4493.56  4496.36  4619.93  4669.66  4704.89
                             4989.51  5109.20  5113.45  5142.26

 Zero-point correction=                           0.247032 (Hartree/Particle)
 Thermal correction to Energy=                    0.262405
 Thermal correction to Enthalpy=                  0.263349
 Thermal correction to Gibbs Free Energy=         0.202146
 Sum of electronic and zero-point Energies=           -795.900340
 Sum of electronic and thermal Energies=              -795.884967
 Sum of electronic and thermal Enthalpies=            -795.884023
 Sum of electronic and thermal Free Energies=         -795.945226

                     E (Thermal)             CV                S
                      KCal/Mol        Cal/Mol-Kelvin    Cal/Mol-Kelvin
 Total                  164.662             56.734            128.812
 Electronic               0.000              0.000              0.000
 Translational            0.889              2.981             42.150
 Rotational               0.889              2.981             32.940
 Vibrational            162.884             50.772             53.723
 Vibration     1          0.593              1.986              7.193
 Vibration     2          0.595              1.980              5.053
 Vibration     3          0.596              1.974              4.536
 Vibration     4          0.599              1.966              4.012
 Vibration     5          0.601              1.959              3.740
 Vibration     6          0.603              1.952              3.545
 Vibration     7          0.615              1.914              2.819
 Vibration     8          0.622              1.892              2.552
 Vibration     9          0.636              1.846              2.175
 Vibration    10          0.644              1.819              2.008
 Vibration    11          0.658              1.778              1.798
 Vibration    12          0.679              1.713              1.543
 Vibration    13          0.695              1.665              1.392
 Vibration    14          0.705              1.637              1.315
 Vibration    15          0.725              1.580              1.176
 Vibration    16          0.737              1.548              1.107
 Vibration    17          0.753              1.506              1.026
 Vibration    18          0.804              1.372              0.811
 Vibration    19          0.923              1.102              0.509
 Vibration    20          0.934              1.080              0.490
 Vibration    21          0.967              1.014              0.436

 Optimization completed.
    -- Stationary point found.
 Normal termination of Gaussian 09 at Tue Jul 27 02:07:42 2021.
