 Gaussian 09, Revision D.01,
 Gaussian 09:  ES64L-G09RevD.01 24-Apr-2013

 ----------------------------------------------------------------------
 # B3LYP/6-31G(d) EmpiricalDispersion=GD3BJ opt=calcfc freq=noraman nos
 ymm integral(ultrafinegrid)
 ----------------------------------------------------------------------

 ------------------------------------------------------------
 Candidate Structure: Conf:338 OPT and FREQ calc in gas phase
 ------------------------------------------------------------
 Symbolic Z-matrix:
 Charge =  0 Multiplicity = 1

 SCF Done:  E(RB3LYP) =  -796.137281327     A.U. after   14 cycles
 SCF Done:  E(RB3LYP) =  -796.139539812     A.U. after   13 cycles
 SCF Done:  E(RB3LYP) =  -796.139496760     A.U. after   15 cycles
 SCF Done:  E(RB3LYP) =  -796.139776844     A.U. after   13 cycles
 SCF Done:  E(RB3LYP) =  -796.139900157     A.U. after   12 cycles
 SCF Done:  E(RB3LYP) =  -796.140466209     A.U. after   13 cycles
 SCF Done:  E(RB3LYP) =  -796.143135878     A.U. after   15 cycles
 SCF Done:  E(RB3LYP) =  -796.144064643     A.U. after   12 cycles
 SCF Done:  E(RB3LYP) =  -796.136727945     A.U. after   14 cycles
 SCF Done:  E(RB3LYP) =  -796.144798731     A.U. after   11 cycles
 SCF Done:  E(RB3LYP) =  -796.144850605     A.U. after   13 cycles
 SCF Done:  E(RB3LYP) =  -796.145779541     A.U. after   12 cycles
 SCF Done:  E(RB3LYP) =  -796.145943362     A.U. after   13 cycles
 SCF Done:  E(RB3LYP) =  -796.146119636     A.U. after   12 cycles
 SCF Done:  E(RB3LYP) =  -796.146141037     A.U. after   11 cycles
 SCF Done:  E(RB3LYP) =  -796.146148848     A.U. after   10 cycles
 SCF Done:  E(RB3LYP) =  -796.146150886     A.U. after    9 cycles
 SCF Done:  E(RB3LYP) =  -796.146151752     A.U. after   10 cycles
 SCF Done:  E(RB3LYP) =  -796.146151847     A.U. after    7 cycles
 Optimization completed.
    -- Stationary point found.
 Normal termination of Gaussian 09 at Tue Jul 27 02:06:12 2021.

 --------------------------------------------------------------------
 #N Geom=AllCheck Guess=TCheck SCRF=Check GenChk RB3LYP/6-31G(d) Freq
 --------------------------------------------------------------------

 Structure from the checkpoint file:  "conf-338.chk"
 ------------------------------------------------------------
 Candidate Structure: Conf:338 OPT and FREQ calc in gas phase
 ------------------------------------------------------------
 Charge =  0 Multiplicity = 1

                          Input orientation:
 ---------------------------------------------------------------------
 Center     Atomic      Atomic             Coordinates (Angstroms)
 Number     Number       Type             X           Y           Z
 ---------------------------------------------------------------------
      1          8           0        0.571221    0.507328    1.772665
      2          6           0        1.283664    0.046002    0.872147
      3          7           0        0.797583   -0.577548   -0.221867
      4          6           0       -0.621233   -0.774217   -0.422310
      5          6           0       -0.798640   -1.868437   -1.455766
      6          8           0       -2.088009   -2.257299   -1.535092
      7          8           0        0.080250   -2.329638   -2.151096
      8          6           0       -1.381010    0.532120   -0.872742
      9          6           0       -2.436435    0.966257    0.084662
     10          6           0       -3.785380    1.208417   -0.045881
     11          7           0       -4.332942    1.602361    1.156011
     12          6           0       -3.324693    1.593117    2.007857
     13          7           0       -2.155973    1.220958    1.413206
     14          6           0        2.805417    0.133161    0.971286
     15          6           0        3.555142    0.345822   -0.349967
     16          7           0        3.404326   -0.820493   -1.232256
     17          1           0        1.467800   -0.944646   -0.908869
     18          1           0       -1.070763   -1.117677    0.514518
     19          1           0       -2.131539   -2.932546   -2.237907
     20          1           0       -1.845071    0.384275   -1.852145
     21          1           0       -0.614563    1.306125   -0.999215
     22          1           0       -4.389354    1.120354   -0.939736
     23          1           0       -3.384905    1.845193    3.058136
     24          1           0       -1.230027    1.082492    1.820839
     25          1           0        3.021746    0.952716    1.661403
     26          1           0        3.166668   -0.786346    1.454385
     27          1           0        3.130989    1.211036   -0.872332
     28          1           0        4.604804    0.591317   -0.123959
     29          1           0        3.926203   -1.614464   -0.864723
     30          1           0        3.774660   -0.625693   -2.159471
 ---------------------------------------------------------------------

 SCF Done:  E(RB3LYP) =  -796.146151847     A.U. after    1 cycles

 Alpha  occ. eigenvalues --  -19.21127 -19.15628 -19.12279 -14.35747 -14.35640
 Alpha  occ. eigenvalues --  -14.34713 -14.28686 -10.33573 -10.29485 -10.24838
 Alpha  occ. eigenvalues --  -10.23710 -10.21426 -10.20650 -10.20502 -10.19713
 Alpha  occ. eigenvalues --  -10.17451  -1.12192  -1.03947  -1.03141  -0.98514
 Alpha  occ. eigenvalues --   -0.93256  -0.90850  -0.84313  -0.79938  -0.76690
 Alpha  occ. eigenvalues --   -0.72963  -0.66913  -0.65355  -0.61956  -0.58666
 Alpha  occ. eigenvalues --   -0.58179  -0.56330  -0.53530  -0.52541  -0.51742
 Alpha  occ. eigenvalues --   -0.49848  -0.48501  -0.47122  -0.46810  -0.46450
 Alpha  occ. eigenvalues --   -0.45075  -0.43258  -0.41828  -0.41594  -0.40811
 Alpha  occ. eigenvalues --   -0.40121  -0.38874  -0.38416  -0.38226  -0.37850
 Alpha  occ. eigenvalues --   -0.37533  -0.35430  -0.33349  -0.29391  -0.27176
 Alpha  occ. eigenvalues --   -0.26497  -0.25991  -0.25235  -0.24096  -0.20151
 Alpha virt. eigenvalues --   -0.00666   0.01738   0.04848   0.05853   0.06382
 Alpha virt. eigenvalues --    0.08916   0.10721   0.11054   0.11682   0.12637
 Alpha virt. eigenvalues --    0.13001   0.14609   0.15151   0.16196   0.16600

 Mulliken charges:
               1
     1  O   -0.553422
     2  C    0.598362
     3  N   -0.625967
     4  C   -0.005540
     5  C    0.551500
     6  O   -0.556964
     7  O   -0.463418
     8  C   -0.360790
     9  C    0.306958
    10  C   -0.082019
    11  N   -0.436056
    12  C    0.199847
    13  N   -0.614559
    14  C   -0.355764
    15  C   -0.154582
    16  N   -0.737942
    17  H    0.408626
    18  H    0.202060
    19  H    0.415869
    20  H    0.171189
    21  H    0.169736
    22  H    0.119600
    23  H    0.145872
    24  H    0.382674
    25  H    0.176665
    26  H    0.165959
    27  H    0.160003
    28  H    0.140023
    29  H    0.312543
    30  H    0.319537
 Sum of Mulliken charges =   0.00000

 Dipole moment (field-independent basis, Debye):
    X=              6.9628    Y=             -2.3060    Z=             -2.6657  Tot=              7.8041
 Quadrupole moment (field-independent basis, Debye-Ang):
   XX=            -97.4592   YY=            -92.8075   ZZ=            -89.6914
   XY=             10.1720   XZ=              5.8960   YZ=             -0.9318

  Exact polarizability: 154.736 -11.562  94.854  -6.324  23.971 122.350
 Approx polarizability: 210.914 -16.465 136.972  -9.615  32.736 193.872

                      1                      2                      3
                      A                      A                      A
 Frequencies --     15.7934                45.6436                53.6133
 Red. masses --      5.0136                 5.6553                 8.9464
 Frc consts  --      0.0007                 0.0069                 0.0152
 IR Inten    --      0.6000                 2.3577                 2.2753

                      4                      5                      6
                      A                      A                      A
 Frequencies --     69.8629                76.2412                99.8845
 Red. masses --      3.5431                 4.8073                 4.3419
 Frc consts  --      0.0102                 0.0165                 0.0255
 IR Inten    --      0.4291                 0.6284                 6.7197

                      7                      8                      9
                      A                      A                      A
 Frequencies --    114.3238               130.8008               187.6360
 Red. masses --      6.0759                 6.0492                 2.7202
 Frc consts  --      0.0468                 0.0610                 0.0564
 IR Inten    --      4.5247                 3.7906                 4.4736

                     10                     11                     12
                      A                      A                      A
 Frequencies --    197.5919               241.9095               283.5811
 Red. masses --      4.4927                 3.9656                 3.5577
 Frc consts  --      0.1033                 0.1367                 0.1686
 IR Inten    --      3.1595                 5.7314                 3.6039

                     13                     14                     15
                      A                      A                      A
 Frequencies --    306.2340               313.0162               334.8567
 Red. masses --      3.7185                 1.3191                 4.4622
 Frc consts  --      0.2055                 0.0761                 0.2948
 IR Inten    --      0.5535                17.7435                 0.6011

                     16                     17                     18
                      A                      A                      A
 Frequencies --    356.9789               416.6805               467.4992
 Red. masses --      4.0686                 3.4888                 2.5996
 Frc consts  --      0.3055                 0.3569                 0.3347
 IR Inten    --      5.2802                 7.2962                27.2220

                     19                     20                     21
                      A                      A                      A
 Frequencies --    518.4447               598.4169               615.0465
 Red. masses --      3.2294                 1.7594                 3.4758
 Frc consts  --      0.5114                 0.3712                 0.7747
 IR Inten    --     40.3144                76.4803                 3.6417

                     22                     23                     24
                      A                      A                      A
 Frequencies --    637.5379               648.1125               676.9545
 Red. masses --      3.0981                 3.6014                 3.9219
 Frc consts  --      0.7419                 0.8913                 1.0589
 IR Inten    --     36.8231                 3.5403                41.1680

                     25                     26                     27
                      A                      A                      A
 Frequencies --    696.9725               722.5575               774.6822
 Red. masses --      3.5061                 3.0866                 3.9311
 Frc consts  --      1.0035                 0.9495                 1.3900
 IR Inten    --     22.9802                25.4498                 3.7199

                     28                     29                     30
                      A                      A                      A
 Frequencies --    783.4979               802.1661               826.4138
 Red. masses --      1.0849                 1.4438                 1.3040
 Frc consts  --      0.3924                 0.5474                 0.5247
 IR Inten    --     24.7084                30.0962                40.2006

                     31                     32                     33
                      A                      A                      A
 Frequencies --    837.3060               863.6857               875.1694
 Red. masses --      1.2821                 2.8522                 1.2816
 Frc consts  --      0.5296                 1.2535                 0.5783
 IR Inten    --     38.5029                13.3581                82.4151

                     34                     35                     36
                      A                      A                      A
 Frequencies --    908.5870               930.2917               946.8579
 Red. masses --      2.4023                 1.8377                 5.9269
 Frc consts  --      1.1685                 0.9371                 3.1308
 IR Inten    --     14.3070                24.6345                22.9351

                     37                     38                     39
                      A                      A                      A
 Frequencies --    973.7922               992.6512              1022.3926
 Red. masses --      2.9005                 2.9807                 1.9617
 Frc consts  --      1.6205                 1.7305                 1.2081
 IR Inten    --     16.3269                 5.9779                 2.1554

                     40                     41                     42
                      A                      A                      A
 Frequencies --   1031.8993              1039.7488              1097.2381
 Red. masses --      3.5926                 2.2936                 2.5510
 Frc consts  --      2.2539                 1.4609                 1.8095
 IR Inten    --      1.0301                46.0292                 4.4658

                     43                     44                     45
                      A                      A                      A
 Frequencies --   1145.6842              1149.1523              1162.0070
 Red. masses --      2.3907                 2.1486                 1.7492
 Frc consts  --      1.8489                 1.6717                 1.3916
 IR Inten    --     40.0388                43.7919                13.3736

                     46                     47                     48
                      A                      A                      A
 Frequencies --   1168.4637              1191.4567              1222.2415
 Red. masses --      1.4628                 2.4342                 1.2947
 Frc consts  --      1.1767                 2.0359                 1.1396
 IR Inten    --     28.6795               165.5094                 7.5607

                     49                     50                     51
                      A                      A                      A
 Frequencies --   1276.0725              1278.4693              1288.8451
 Red. masses --      1.4774                 1.9400                 1.4341
 Frc consts  --      1.4174                 1.8682                 1.4036
 IR Inten    --     12.1125                14.4071                11.2247

                     52                     53                     54
                      A                      A                      A
 Frequencies --   1302.5503              1322.5669              1329.4830
 Red. masses --      1.3322                 1.4948                 1.3586
 Frc consts  --      1.3317                 1.5405                 1.4149
 IR Inten    --     14.9516                 3.0376                 2.4651

                     55                     56                     57
                      A                      A                      A
 Frequencies --   1343.0929              1375.4958              1387.5508
 Red. masses --      1.4681                 1.4372                 1.4535
 Frc consts  --      1.5603                 1.6021                 1.6488
 IR Inten    --      4.8282                25.5808                 5.2438

                     58                     59                     60
                      A                      A                      A
 Frequencies --   1400.8027              1428.7913              1442.0818
 Red. masses --      3.9470                 2.2287                 1.5313
 Frc consts  --      4.5632                 2.6806                 1.8762
 IR Inten    --     18.2111                61.9518                32.2872

                     61                     62                     63
                      A                      A                      A
 Frequencies --   1464.4229              1493.8363              1504.3349
 Red. masses --      2.3951                 1.0832                 1.1635
 Frc consts  --      3.0263                 1.4242                 1.5514
 IR Inten    --     86.6837                10.6962                14.5447

                     64                     65                     66
                      A                      A                      A
 Frequencies --   1520.0803              1538.1715              1597.3204
 Red. masses --      3.1962                 1.0927                 2.0377
 Frc consts  --      4.3513                 1.5232                 3.0633
 IR Inten    --     20.7538                 9.0787               355.9627

                     67                     68                     69
                      A                      A                      A
 Frequencies --   1630.3060              1692.5070              1743.2478
 Red. masses --      4.1917                 1.0897                 8.4571
 Frc consts  --      6.5642                 1.8391                15.1422
 IR Inten    --     23.8906                35.6360               301.4646

                     70                     71                     72
                      A                      A                      A
 Frequencies --   1843.6068              2999.9099              3039.3005
 Red. masses --      9.7543                 1.0721                 1.0711
 Frc consts  --     19.5336                 5.6846                 5.8293
 IR Inten    --    248.5596                89.3454                 9.6217

                     73                     74                     75
                      A                      A                      A
 Frequencies --   3053.9603              3086.2273              3090.3597
 Red. masses --      1.0661                 1.0918                 1.0842
 Frc consts  --      5.8583                 6.1272                 6.1009
 IR Inten    --     23.3540                28.5211                12.1111

                     76                     77                     78
                      A                      A                      A
 Frequencies --   3112.9460              3129.0026              3250.0443
 Red. masses --      1.0977                 1.0926                 1.0959
 Frc consts  --      6.2673                 6.3025                 6.8204
 IR Inten    --     11.6213                 9.1946                12.8649

                     79                     80                     81
                      A                      A                      A
 Frequencies --   3263.9020              3342.9547              3469.8442
 Red. masses --      1.0971                 1.0826                 1.0853
 Frc consts  --      6.8862                 7.1280                 7.6984
 IR Inten    --      4.5684               433.9448               452.3066

                     82                     83                     84
                      A                      A                      A
 Frequencies --   3483.0293              3570.7876              3689.6406
 Red. masses --      1.0504                 1.0930                 1.0641
 Frc consts  --      7.5082                 8.2109                 8.5349
 IR Inten    --      0.3891                 1.6749                63.2770

 - Thermochemistry -
 -------------------
 Temperature   298.150 Kelvin.  Pressure   1.00000 Atm.
 Atom     1 has atomic number  8 and mass  15.99491

 Molecular mass:   226.10659 amu.
 Principal axes and moments of inertia in atomic units:
                           1         2         3
     Eigenvalues --  2349.183405347.760287172.11201
           X            0.94272   0.32858   0.05754
           Y           -0.26740   0.64124   0.71924
           Z           -0.19943   0.69343  -0.69237
 This molecule is an asymmetric top.
 Rotational symmetry number  1.
 Warning -- assumption of classical behavior for rotation
           may cause significant error
 Rotational temperatures (Kelvin)      0.03687     0.01620     0.01208
 Rotational constants (GHZ):           0.76824     0.33748     0.25163
 Zero-point vibrational energy     648119.5 (Joules/Mol)
                                  154.90428 (Kcal/Mol)
 Warning -- explicit consideration of  21 degrees of freedom as
           vibrations may cause significant error
 Vibrational temperatures:     22.72    65.67    77.14   100.52   109.69
          (Kelvin)            143.71   164.49   188.19   269.97   284.29
                              348.05   408.01   440.60   450.36   481.78
                              513.61   599.51   672.63   745.93   860.99
                              884.91   917.27   932.49   973.99  1002.79
                             1039.60  1114.59  1127.28  1154.14  1189.02
                             1204.70  1242.65  1259.17  1307.25  1338.48
                             1362.32  1401.07  1428.20  1470.99  1484.67
                             1495.96  1578.68  1648.38  1653.37  1671.87
                             1681.16  1714.24  1758.53  1835.98  1839.43
                             1854.36  1874.08  1902.88  1912.83  1932.41
                             1979.03  1996.37  2015.44  2055.71  2074.83
                             2106.98  2149.29  2164.40  2187.05  2213.08
                             2298.18  2345.64  2435.14  2508.14  2652.54
                             4316.20  4372.87  4393.96  4440.39  4446.33
                             4478.83  4501.93  4676.08  4696.02  4809.76
                             4992.33  5011.30  5137.56  5308.56

 Zero-point correction=                           0.246856 (Hartree/Particle)
 Thermal correction to Energy=                    0.262394
 Thermal correction to Enthalpy=                  0.263338
 Thermal correction to Gibbs Free Energy=         0.201562
 Sum of electronic and zero-point Energies=           -795.899296
 Sum of electronic and thermal Energies=              -795.883758
 Sum of electronic and thermal Enthalpies=            -795.882814
 Sum of electronic and thermal Free Energies=         -795.944590

                     E (Thermal)             CV                S
                      KCal/Mol        Cal/Mol-Kelvin    Cal/Mol-Kelvin
 Total                  164.655             56.927            130.019
 Electronic               0.000              0.000              0.000
 Translational            0.889              2.981             42.150
 Rotational               0.889              2.981             32.866
 Vibrational            162.877             50.965             55.003
 Vibration     1          0.593              1.986              7.103
 Vibration     2          0.595              1.979              4.998
 Vibration     3          0.596              1.976              4.679
 Vibration     4          0.598              1.968              4.157
 Vibration     5          0.599              1.965              3.985
 Vibration     6          0.604              1.949              3.457
 Vibration     7          0.607              1.938              3.194
 Vibration     8          0.612              1.923              2.934
 Vibration     9          0.632              1.857              2.251
 Vibration    10          0.637              1.843              2.155
 Vibration    11          0.658              1.776              1.789
 Vibration    12          0.682              1.704              1.512
 Vibration    13          0.697              1.662              1.383
 Vibration    14          0.701              1.649              1.346
 Vibration    15          0.716              1.606              1.237
 Vibration    16          0.732              1.561              1.135
 Vibration    17          0.780              1.434              0.903
 Vibration    18          0.825              1.322              0.745
 Vibration    19          0.873              1.209              0.614
 Vibration    20          0.956              1.035              0.452
 Vibration    21          0.975              1.000              0.424

 Normal termination of Gaussian 09 at Tue Jul 27 02:22:19 2021.
