 Gaussian 09, Revision D.01,
 Gaussian 09:  ES64L-G09RevD.01 24-Apr-2013

 ----------------------------------------------------------------------
 # B3LYP/6-31G(d) EmpiricalDispersion=GD3BJ opt=calcfc freq=noraman nos
 ymm integral(ultrafinegrid)
 ----------------------------------------------------------------------

 ------------------------------------------------------------
 Candidate Structure: Conf:490 OPT and FREQ calc in gas phase
 ------------------------------------------------------------
 Symbolic Z-matrix:
 Charge =  0 Multiplicity = 1

 SCF Done:  E(RB3LYP) =  -796.132180781     A.U. after   14 cycles
 SCF Done:  E(RB3LYP) =  -796.134847328     A.U. after   15 cycles
 SCF Done:  E(RB3LYP) =  -796.115601317     A.U. after   15 cycles
 SCF Done:  E(RB3LYP) =  -796.134914512     A.U. after    9 cycles
 SCF Done:  E(RB3LYP) =  -796.136107845     A.U. after   13 cycles
 SCF Done:  E(RB3LYP) =  -796.132836408     A.U. after   15 cycles
 SCF Done:  E(RB3LYP) =  -796.136151408     A.U. after   11 cycles
 SCF Done:  E(RB3LYP) =  -796.130506169     A.U. after   15 cycles
 SCF Done:  E(RB3LYP) =  -796.136318358     A.U. after   10 cycles
 SCF Done:  E(RB3LYP) =  -796.136413522     A.U. after   11 cycles
 SCF Done:  E(RB3LYP) =  -796.136484395     A.U. after   12 cycles
 SCF Done:  E(RB3LYP) =  -796.136521980     A.U. after   11 cycles
 SCF Done:  E(RB3LYP) =  -796.136535850     A.U. after   11 cycles
 SCF Done:  E(RB3LYP) =  -796.136537333     A.U. after    9 cycles
 SCF Done:  E(RB3LYP) =  -796.136537458     A.U. after    8 cycles
 SCF Done:  E(RB3LYP) =  -796.136537469     A.U. after    7 cycles
 Optimization completed.
    -- Stationary point found.
 Normal termination of Gaussian 09 at Tue Jul 27 02:01:44 2021.

 --------------------------------------------------------------------
 #N Geom=AllCheck Guess=TCheck SCRF=Check GenChk RB3LYP/6-31G(d) Freq
 --------------------------------------------------------------------

 Structure from the checkpoint file:  "conf-490.chk"
 ------------------------------------------------------------
 Candidate Structure: Conf:490 OPT and FREQ calc in gas phase
 ------------------------------------------------------------
 Charge =  0 Multiplicity = 1

                          Input orientation:
 ---------------------------------------------------------------------
 Center     Atomic      Atomic             Coordinates (Angstroms)
 Number     Number       Type             X           Y           Z
 ---------------------------------------------------------------------
      1          8           0        0.884579    0.508204   -2.350503
      2          6           0        1.572217    0.150945   -1.394313
      3          7           0        1.074939    0.037409   -0.134815
      4          6           0       -0.284474    0.417988    0.149033
      5          6           0       -0.420976    0.655288    1.653901
      6          8           0       -1.566321    1.244704    2.053388
      7          8           0        0.422007    0.329452    2.456337
      8          6           0       -1.292035   -0.658063   -0.361797
      9          6           0       -2.722148   -0.279910   -0.149550
     10          6           0       -3.498342    0.745367   -0.654095
     11          7           0       -4.756938    0.742201   -0.085310
     12          6           0       -4.753171   -0.266952    0.757807
     13          7           0       -3.548839   -0.915910    0.759869
     14          6           0        3.047045   -0.216798   -1.558814
     15          6           0        3.968945    0.192182   -0.402511
     16          7           0        3.652736   -0.571267    0.814002
     17          1           0        1.704992   -0.226959    0.630255
     18          1           0       -0.513612    1.348035   -0.387047
     19          1           0       -2.159379    1.381771    1.287148
     20          1           0       -1.078725   -0.776822   -1.427462
     21          1           0       -1.063983   -1.609775    0.131560
     22          1           0       -3.224568    1.466346   -1.413195
     23          1           0       -5.578241   -0.574053    1.385711
     24          1           0       -3.285394   -1.694956    1.346585
     25          1           0        3.115411   -1.303440   -1.714296
     26          1           0        3.376610    0.253044   -2.489296
     27          1           0        5.016236    0.083320   -0.726566
     28          1           0        3.814994    1.252966   -0.174587
     29          1           0        4.127499   -0.179424    1.623677
     30          1           0        3.968747   -1.535008    0.719494
 ---------------------------------------------------------------------

 SCF Done:  E(RB3LYP) =  -796.136537469     A.U. after    1 cycles

 Alpha  occ. eigenvalues --  -19.19400 -19.13924 -19.10489 -14.40284 -14.34529
 Alpha  occ. eigenvalues --  -14.33891 -14.32087 -10.32242 -10.27976 -10.24849
 Alpha  occ. eigenvalues --  -10.24653 -10.23356 -10.22866 -10.21387 -10.20678
 Alpha  occ. eigenvalues --  -10.19676  -1.10245  -1.02596  -1.02367  -1.01915
 Alpha  occ. eigenvalues --   -0.92119  -0.90021  -0.87927  -0.80672  -0.76595
 Alpha  occ. eigenvalues --   -0.73424  -0.67694  -0.63804  -0.62451  -0.61464
 Alpha  occ. eigenvalues --   -0.59920  -0.57243  -0.55926  -0.53742  -0.51519
 Alpha  occ. eigenvalues --   -0.49462  -0.47330  -0.47026  -0.45904  -0.45652
 Alpha  occ. eigenvalues --   -0.44305  -0.43497  -0.42857  -0.42536  -0.41549
 Alpha  occ. eigenvalues --   -0.40808  -0.39773  -0.39010  -0.38559  -0.37642
 Alpha  occ. eigenvalues --   -0.36913  -0.34435  -0.31863  -0.29042  -0.27804
 Alpha  occ. eigenvalues --   -0.27367  -0.26214  -0.25389  -0.24211  -0.23123
 Alpha virt. eigenvalues --    0.00023   0.01941   0.03002   0.04864   0.06484
 Alpha virt. eigenvalues --    0.06627   0.09666   0.11577   0.11607   0.12016
 Alpha virt. eigenvalues --    0.12497   0.13847   0.14809   0.15572   0.16373

 Mulliken charges:
               1
     1  O   -0.536572
     2  C    0.585357
     3  N   -0.625352
     4  C   -0.058148
     5  C    0.592929
     6  O   -0.578313
     7  O   -0.454013
     8  C   -0.342261
     9  C    0.261141
    10  C   -0.103483
    11  N   -0.413713
    12  C    0.206687
    13  N   -0.582924
    14  C   -0.349873
    15  C   -0.157108
    16  N   -0.736503
    17  H    0.404430
    18  H    0.181390
    19  H    0.430123
    20  H    0.212579
    21  H    0.149978
    22  H    0.152955
    23  H    0.164392
    24  H    0.339122
    25  H    0.158544
    26  H    0.173063
    27  H    0.136210
    28  H    0.161372
    29  H    0.320233
    30  H    0.307758
 Sum of Mulliken charges =   0.00000

 Dipole moment (field-independent basis, Debye):
    X=              3.3261    Y=             -3.7100    Z=              1.2083  Tot=              5.1271
 Quadrupole moment (field-independent basis, Debye-Ang):
   XX=            -81.2395   YY=            -87.3740   ZZ=           -108.2895
   XY=              7.7953   XZ=             -5.2863   YZ=             -3.6682

  Exact polarizability: 163.296  -8.994  93.334  -8.468 -10.805 113.559
 Approx polarizability: 206.789 -22.276 155.621  -0.735 -28.093 182.228

                      1                      2                      3
                      A                      A                      A
 Frequencies --     19.8195                36.0638                47.7461
 Red. masses --      4.6471                 5.2766                 4.0824
 Frc consts  --      0.0011                 0.0040                 0.0055
 IR Inten    --      0.8063                 5.3959                 1.8003

                      4                      5                      6
                      A                      A                      A
 Frequencies --     62.2861                82.7002                89.8727
 Red. masses --      4.4132                 6.2056                 5.7699
 Frc consts  --      0.0101                 0.0250                 0.0275
 IR Inten    --      7.5910                 1.9284                 5.2825

                      7                      8                      9
                      A                      A                      A
 Frequencies --    103.4164               122.7919               176.4427
 Red. masses --      6.6911                 4.2936                 4.7932
 Frc consts  --      0.0422                 0.0381                 0.0879
 IR Inten    --      5.2623                 7.7801                 7.0448

                     10                     11                     12
                      A                      A                      A
 Frequencies --    202.6855               235.9474               292.2907
 Red. masses --      2.2339                 5.4624                 7.5161
 Frc consts  --      0.0541                 0.1792                 0.3783
 IR Inten    --      7.5758                 5.7959                 0.6153

                     13                     14                     15
                      A                      A                      A
 Frequencies --    300.1409               334.9086               347.1435
 Red. masses --      1.2836                 2.2404                 5.0455
 Frc consts  --      0.0681                 0.1481                 0.3582
 IR Inten    --     12.6618                 4.9096                 1.3665

                     16                     17                     18
                      A                      A                      A
 Frequencies --    348.3297               391.1433               478.2271
 Red. masses --      4.5649                 4.5440                 2.6549
 Frc consts  --      0.3263                 0.4096                 0.3577
 IR Inten    --     16.3134                18.5604                14.0038

                     19                     20                     21
                      A                      A                      A
 Frequencies --    510.7343               531.8038               603.8299
 Red. masses --      3.2855                 1.3998                 4.1749
 Frc consts  --      0.5049                 0.2332                 0.8969
 IR Inten    --     29.4215                92.4566                 5.0053

                     22                     23                     24
                      A                      A                      A
 Frequencies --    621.2062               655.4552               672.8648
 Red. masses --      2.2151                 1.8080                 3.1327
 Frc consts  --      0.5036                 0.4576                 0.8357
 IR Inten    --     60.6683                21.4579                14.4178

                     25                     26                     27
                      A                      A                      A
 Frequencies --    682.8607               696.5667               733.0272
 Red. masses --      3.1980                 3.3931                 2.9231
 Frc consts  --      0.8786                 0.9700                 0.9254
 IR Inten    --     10.0456                27.0229                13.4077

                     28                     29                     30
                      A                      A                      A
 Frequencies --    766.8391               803.3707               815.8279
 Red. masses --      3.3891                 1.4213                 1.8102
 Frc consts  --      1.1742                 0.5405                 0.7099
 IR Inten    --      2.5520                12.8223                38.9776

                     31                     32                     33
                      A                      A                      A
 Frequencies --    831.9956               848.2873               859.9938
 Red. masses --      1.6238                 1.4011                 1.3757
 Frc consts  --      0.6623                 0.5940                 0.5995
 IR Inten    --     20.1056                38.7897                71.3454

                     34                     35                     36
                      A                      A                      A
 Frequencies --    899.0215               933.0415               941.7816
 Red. masses --      2.6764                 1.9231                 5.7706
 Frc consts  --      1.2745                 0.9864                 3.0156
 IR Inten    --     10.4392                23.2087                11.5254

                     37                     38                     39
                      A                      A                      A
 Frequencies --    983.0612              1013.8632              1023.3675
 Red. masses --      2.1187                 2.3651                 2.0644
 Frc consts  --      1.2064                 1.4324                 1.2738
 IR Inten    --     19.5622                15.6615                 5.1213

                     40                     41                     42
                      A                      A                      A
 Frequencies --   1035.1823              1049.1985              1095.3733
 Red. masses --      3.7225                 3.0097                 2.5081
 Frc consts  --      2.3503                 1.9521                 1.7730
 IR Inten    --      8.2996                12.7415                 4.2797

                     43                     44                     45
                      A                      A                      A
 Frequencies --   1122.5058              1151.6977              1156.4550
 Red. masses --      1.5954                 2.2296                 1.6058
 Frc consts  --      1.1844                 1.7424                 1.2653
 IR Inten    --     14.8797                10.8966                 2.6166

                     46                     47                     48
                      A                      A                      A
 Frequencies --   1168.7103              1179.3046              1219.2024
 Red. masses --      1.3592                 2.6043                 2.2792
 Frc consts  --      1.0938                 2.1340                 1.9961
 IR Inten    --      4.3339                19.7331                19.4072

                     49                     50                     51
                      A                      A                      A
 Frequencies --   1259.7213              1269.2721              1289.2798
 Red. masses --      1.5907                 1.8234                 1.4446
 Frc consts  --      1.4872                 1.7308                 1.4148
 IR Inten    --     14.7182                28.3287                 0.8291

                     52                     53                     54
                      A                      A                      A
 Frequencies --   1306.6093              1324.8377              1331.2168
 Red. masses --      1.3489                 1.5313                 1.3599
 Frc consts  --      1.3568                 1.5836                 1.4199
 IR Inten    --      0.8064                 5.5320                 6.5372

                     55                     56                     57
                      A                      A                      A
 Frequencies --   1336.9342              1375.1140              1383.7547
 Red. masses --      1.3785                 1.3793                 1.4036
 Frc consts  --      1.4517                 1.5367                 1.5834
 IR Inten    --     94.4390               119.1204                23.8744

                     58                     59                     60
                      A                      A                      A
 Frequencies --   1409.9385              1418.9625              1439.4352
 Red. masses --      2.6629                 1.9929                 1.4358
 Frc consts  --      3.1189                 2.3641                 1.7527
 IR Inten    --     22.7943               119.1367                21.0090

                     61                     62                     63
                      A                      A                      A
 Frequencies --   1445.3240              1492.9167              1508.1050
 Red. masses --      3.2154                 1.0844                 3.7550
 Frc consts  --      3.9575                 1.4240                 5.0318
 IR Inten    --     21.9574                11.6182                19.8098

                     64                     65                     66
                      A                      A                      A
 Frequencies --   1514.9783              1536.7846              1572.3491
 Red. masses --      1.1437                 1.1083                 2.0238
 Frc consts  --      1.5466                 1.5421                 2.9480
 IR Inten    --      6.0759                22.4966               400.8769

                     67                     68                     69
                      A                      A                      A
 Frequencies --   1613.3630              1691.7627              1759.6486
 Red. masses --      4.1497                 1.0900                 9.4717
 Frc consts  --      6.3640                 1.8381                17.2795
 IR Inten    --      9.9475                35.2721               266.2772

                     70                     71                     72
                      A                      A                      A
 Frequencies --   1864.7797              2996.2919              3036.9674
 Red. masses --      9.6375                 1.0725                 1.0710
 Frc consts  --     19.7457                 5.6733                 5.8198
 IR Inten    --    234.3494                96.3115                11.4019

                     73                     74                     75
                      A                      A                      A
 Frequencies --   3050.0290              3069.8581              3088.6154
 Red. masses --      1.0814                 1.0652                 1.0914
 Frc consts  --      5.9271                 5.9146                 6.1345
 IR Inten    --      9.0259                21.4719                27.3279

                     76                     77                     78
                      A                      A                      A
 Frequencies --   3126.8078              3127.5399              3257.3406
 Red. masses --      1.0925                 1.1015                 1.0961
 Frc consts  --      6.2934                 6.3481                 6.8521
 IR Inten    --     11.3627                 2.3096                 4.1806

                     79                     80                     81
                      A                      A                      A
 Frequencies --   3272.8338              3373.7314              3482.9247
 Red. masses --      1.0978                 1.0822                 1.0505
 Frc consts  --      6.9284                 7.2576                 7.5079
 IR Inten    --      1.5823               366.7926                 0.3401

                     82                     83                     84
                      A                      A                      A
 Frequencies --   3572.4281              3598.2200              3643.9259
 Red. masses --      1.0929                 1.0664                 1.0811
 Frc consts  --      8.2180                 8.1351                 8.4577
 IR Inten    --      1.5885               216.5265                45.6880

 - Thermochemistry -
 -------------------
 Temperature   298.150 Kelvin.  Pressure   1.00000 Atm.
 Atom     1 has atomic number  8 and mass  15.99491

 Molecular mass:   226.10659 amu.
 Principal axes and moments of inertia in atomic units:
                           1         2         3
     Eigenvalues --  1630.588206569.747777563.23986
           X            0.99087   0.13347   0.01895
           Y           -0.02602   0.05140   0.99834
           Z           -0.13228   0.98972  -0.05441
 This molecule is an asymmetric top.
 Rotational symmetry number  1.
 Warning -- assumption of classical behavior for rotation
           may cause significant error
 Rotational temperatures (Kelvin)      0.05312     0.01318     0.01145
 Rotational constants (GHZ):           1.10680     0.27470     0.23862
 Zero-point vibrational energy     646707.1 (Joules/Mol)
                                  154.56671 (Kcal/Mol)
 Warning -- explicit consideration of  21 degrees of freedom as
           vibrations may cause significant error
 Vibrational temperatures:     28.52    51.89    68.70    89.62   118.99
          (Kelvin)            129.31   148.79   176.67   253.86   291.62
                              339.48   420.54   431.84   481.86   499.46
                              501.17   562.77   688.06   734.83   765.15
                              868.78   893.78   943.05   968.10   982.48
                             1002.20  1054.66  1103.31  1155.87  1173.79
                             1197.05  1220.49  1237.34  1293.49  1342.44
                             1355.01  1414.40  1458.72  1472.40  1489.39
                             1509.56  1576.00  1615.03  1657.03  1663.88
                             1681.51  1696.75  1754.16  1812.46  1826.20
                             1854.98  1879.92  1906.14  1915.32  1923.55
                             1978.48  1990.91  2028.58  2041.57  2071.02
                             2079.50  2147.97  2169.82  2179.71  2211.09
                             2262.26  2321.27  2434.07  2531.74  2683.00
                             4310.99  4369.51  4388.31  4416.84  4443.82
                             4498.77  4499.83  4686.58  4708.87  4854.04
                             5011.15  5139.92  5177.03  5242.79

 Zero-point correction=                           0.246318 (Hartree/Particle)
 Thermal correction to Energy=                    0.262045
 Thermal correction to Enthalpy=                  0.262989
 Thermal correction to Gibbs Free Energy=         0.200699
 Sum of electronic and zero-point Energies=           -795.890220
 Sum of electronic and thermal Energies=              -795.874493
 Sum of electronic and thermal Enthalpies=            -795.873549
 Sum of electronic and thermal Free Energies=         -795.935839

                     E (Thermal)             CV                S
                      KCal/Mol        Cal/Mol-Kelvin    Cal/Mol-Kelvin
 Total                  164.436             57.435            131.101
 Electronic               0.000              0.000              0.000
 Translational            0.889              2.981             42.150
 Rotational               0.889              2.981             32.760
 Vibrational            162.658             51.473             56.191
 Vibration     1          0.593              1.986              6.652
 Vibration     2          0.594              1.982              5.464
 Vibration     3          0.595              1.978              4.909
 Vibration     4          0.597              1.972              4.383
 Vibration     5          0.600              1.961              3.826
 Vibration     6          0.602              1.956              3.663
 Vibration     7          0.605              1.946              3.389
 Vibration     8          0.610              1.930              3.056
 Vibration     9          0.628              1.871              2.366
 Vibration    10          0.639              1.836              2.109
 Vibration    11          0.655              1.786              1.833
 Vibration    12          0.688              1.688              1.461
 Vibration    13          0.693              1.673              1.416
 Vibration    14          0.716              1.606              1.236
 Vibration    15          0.725              1.581              1.179
 Vibration    16          0.726              1.579              1.174
 Vibration    17          0.759              1.489              0.996
 Vibration    18          0.835              1.298              0.715
 Vibration    19          0.866              1.226              0.632
 Vibration    20          0.887              1.180              0.583
 Vibration    21          0.962              1.024              0.443

 Optimization completed.
    -- Stationary point found.
 Normal termination of Gaussian 09 at Tue Jul 27 02:17:34 2021.
