 Gaussian 09, Revision D.01,
 Gaussian 09:  ES64L-G09RevD.01 24-Apr-2013

 ----------------------------------------------------------------------
 # B3LYP/6-31G(d) EmpiricalDispersion=GD3BJ opt=calcfc freq=noraman nos
 ymm integral(ultrafinegrid)
 ----------------------------------------------------------------------

 ------------------------------------------------------------
 Candidate Structure: Conf:683 OPT and FREQ calc in gas phase
 ------------------------------------------------------------
 Symbolic Z-matrix:
 Charge =  0 Multiplicity = 1

 SCF Done:  E(RB3LYP) =  -796.144175804     A.U. after   14 cycles
 SCF Done:  E(RB3LYP) =  -796.146531096     A.U. after   13 cycles
 SCF Done:  E(RB3LYP) =  -796.147020165     A.U. after   12 cycles
 SCF Done:  E(RB3LYP) =  -796.147152355     A.U. after   12 cycles
 SCF Done:  E(RB3LYP) =  -796.147043402     A.U. after   12 cycles
 SCF Done:  E(RB3LYP) =  -796.147199623     A.U. after   11 cycles
 SCF Done:  E(RB3LYP) =  -796.147206520     A.U. after   11 cycles
 SCF Done:  E(RB3LYP) =  -796.147207743     A.U. after    9 cycles
 SCF Done:  E(RB3LYP) =  -796.147207759     A.U. after    7 cycles
 Optimization completed.
    -- Stationary point found.
 Normal termination of Gaussian 09 at Tue Jul 27 01:52:48 2021.

 --------------------------------------------------------------------
 #N Geom=AllCheck Guess=TCheck SCRF=Check GenChk RB3LYP/6-31G(d) Freq
 --------------------------------------------------------------------

 Structure from the checkpoint file:  "conf-683.chk"
 ------------------------------------------------------------
 Candidate Structure: Conf:683 OPT and FREQ calc in gas phase
 ------------------------------------------------------------
 Charge =  0 Multiplicity = 1

                          Input orientation:
 ---------------------------------------------------------------------
 Center     Atomic      Atomic             Coordinates (Angstroms)
 Number     Number       Type             X           Y           Z
 ---------------------------------------------------------------------
      1          8           0       -0.610717    0.045963   -2.158244
      2          6           0        0.344647    0.318157   -1.419033
      3          7           0        0.210038    0.609802   -0.104839
      4          6           0       -1.081935    0.813453    0.505248
      5          6           0       -1.069310    2.139830    1.251110
      6          8           0       -2.310353    2.486442    1.659847
      7          8           0       -0.084817    2.803844    1.486610
      8          6           0       -1.513024   -0.320432    1.472942
      9          6           0       -1.451709   -1.694192    0.882107
     10          6           0       -1.296308   -2.925340    1.479149
     11          7           0       -1.370765   -3.940827    0.550199
     12          6           0       -1.562534   -3.330024   -0.601948
     13          7           0       -1.641505   -1.973880   -0.459642
     14          6           0        1.775160    0.307272   -1.948300
     15          6           0        2.710525    1.369245   -1.354287
     16          7           0        2.955578    1.114758    0.074606
     17          1           0        1.065560    0.867264    0.402512
     18          1           0       -1.816839    0.882967   -0.302742
     19          1           0       -2.215033    3.323666    2.152159
     20          1           0       -0.870898   -0.295986    2.361764
     21          1           0       -2.527876   -0.080172    1.814595
     22          1           0       -1.144944   -3.134239    2.530493
     23          1           0       -1.648662   -3.811380   -1.566828
     24          1           0       -1.594494   -1.286861   -1.214702
     25          1           0        2.192574   -0.694819   -1.773442
     26          1           0        1.703075    0.430431   -3.032041
     27          1           0        2.236635    2.353905   -1.433264
     28          1           0        3.632959    1.405413   -1.954253
     29          1           0        3.564637    0.306673    0.192336
     30          1           0        3.420430    1.909054    0.507671
 ---------------------------------------------------------------------

 SCF Done:  E(RB3LYP) =  -796.147207759     A.U. after    1 cycles

 Alpha  occ. eigenvalues --  -19.21365 -19.15690 -19.12152 -14.36136 -14.35741
 Alpha  occ. eigenvalues --  -14.34645 -14.29025 -10.33617 -10.29445 -10.25019
 Alpha  occ. eigenvalues --  -10.23500 -10.21607 -10.20761 -10.20494 -10.20268
 Alpha  occ. eigenvalues --  -10.17614  -1.12286  -1.03969  -1.03208  -0.98792
 Alpha  occ. eigenvalues --   -0.93348  -0.90723  -0.84602  -0.80304  -0.76670
 Alpha  occ. eigenvalues --   -0.73251  -0.66853  -0.65306  -0.61932  -0.59154
 Alpha  occ. eigenvalues --   -0.58143  -0.56650  -0.54028  -0.52171  -0.51095
 Alpha  occ. eigenvalues --   -0.50236  -0.48707  -0.47697  -0.46768  -0.46081
 Alpha  occ. eigenvalues --   -0.44894  -0.43980  -0.42310  -0.41437  -0.40374
 Alpha  occ. eigenvalues --   -0.40094  -0.39539  -0.38775  -0.38485  -0.37965
 Alpha  occ. eigenvalues --   -0.37314  -0.35227  -0.33505  -0.29447  -0.27155
 Alpha  occ. eigenvalues --   -0.26539  -0.25953  -0.25640  -0.24404  -0.20323
 Alpha virt. eigenvalues --   -0.00625   0.01419   0.04696   0.06039   0.06319
 Alpha virt. eigenvalues --    0.08443   0.10939   0.11100   0.11530   0.13124
 Alpha virt. eigenvalues --    0.14323   0.14643   0.15015   0.16314   0.16733

 Mulliken charges:
               1
     1  O   -0.555618
     2  C    0.596715
     3  N   -0.581349
     4  C   -0.072137
     5  C    0.582893
     6  O   -0.563022
     7  O   -0.463680
     8  C   -0.348346
     9  C    0.330588
    10  C   -0.091104
    11  N   -0.432283
    12  C    0.193106
    13  N   -0.627180
    14  C   -0.352760
    15  C   -0.160562
    16  N   -0.740942
    17  H    0.397066
    18  H    0.197679
    19  H    0.415234
    20  H    0.158434
    21  H    0.180946
    22  H    0.119496
    23  H    0.147196
    24  H    0.375049
    25  H    0.171901
    26  H    0.177496
    27  H    0.167489
    28  H    0.141333
    29  H    0.313225
    30  H    0.323139
 Sum of Mulliken charges =   0.00000

 Dipole moment (field-independent basis, Debye):
    X=              3.5475    Y=              5.0849    Z=              0.4263  Tot=              6.2147
 Quadrupole moment (field-independent basis, Debye-Ang):
   XX=            -79.8113   YY=           -108.1714   ZZ=            -90.3292
   XY=             -6.8573   XZ=             -5.4609   YZ=              6.8888

  Exact polarizability: 108.991   7.682 134.226  -6.745  10.759 122.832
 Approx polarizability: 157.632   5.461 189.136   9.180  12.993 194.957

                      1                      2                      3
                      A                      A                      A
 Frequencies --     18.5489                44.5151                53.6540
 Red. masses --      4.9659                 8.6727                 4.1740
 Frc consts  --      0.0010                 0.0101                 0.0071
 IR Inten    --      4.5277                 2.1097                 1.7434

                      4                      5                      6
                      A                      A                      A
 Frequencies --     64.7565                85.0108               105.8247
 Red. masses --      3.9113                 4.3275                 5.0760
 Frc consts  --      0.0097                 0.0184                 0.0335
 IR Inten    --      0.6759                 1.8313                 1.1716

                      7                      8                      9
                      A                      A                      A
 Frequencies --    122.0699               155.5361               183.9182
 Red. masses --      3.9382                 5.9644                 6.8426
 Frc consts  --      0.0346                 0.0850                 0.1364
 IR Inten    --      7.1868                10.7582                 1.4703

                     10                     11                     12
                      A                      A                      A
 Frequencies --    205.4807               233.6911               269.1960
 Red. masses --      2.2050                 5.0321                 3.8571
 Frc consts  --      0.0549                 0.1619                 0.1647
 IR Inten    --      2.2777                10.8620                 0.7100

                     13                     14                     15
                      A                      A                      A
 Frequencies --    309.0891               313.6678               348.4504
 Red. masses --      1.9388                 2.5588                 4.0442
 Frc consts  --      0.1091                 0.1483                 0.2893
 IR Inten    --      5.7827                11.6069                 0.6396

                     16                     17                     18
                      A                      A                      A
 Frequencies --    359.0083               434.1337               486.8027
 Red. masses --      3.5437                 3.3620                 2.8908
 Frc consts  --      0.2691                 0.3733                 0.4036
 IR Inten    --      6.5357                16.0768                12.5812

                     19                     20                     21
                      A                      A                      A
 Frequencies --    516.5924               592.1333               609.5588
 Red. masses --      3.0510                 3.4249                 1.5180
 Frc consts  --      0.4797                 0.7075                 0.3323
 IR Inten    --     40.4169                 6.5687                71.9915

                     22                     23                     24
                      A                      A                      A
 Frequencies --    633.5054               645.5287               676.6130
 Red. masses --      3.7162                 4.5042                 3.9308
 Frc consts  --      0.8787                 1.1059                 1.0603
 IR Inten    --     11.3522                42.8406                27.4741

                     25                     26                     27
                      A                      A                      A
 Frequencies --    691.8217               704.9346               776.8264
 Red. masses --      3.3131                 2.9083                 2.0262
 Frc consts  --      0.9343                 0.8515                 0.7204
 IR Inten    --     38.7160                28.3093                39.2576

                     28                     29                     30
                      A                      A                      A
 Frequencies --    786.7838               794.9866               826.7796
 Red. masses --      1.6459                 1.3775                 1.2684
 Frc consts  --      0.6003                 0.5130                 0.5109
 IR Inten    --     74.1727                15.1122                68.7146

                     31                     32                     33
                      A                      A                      A
 Frequencies --    832.8668               858.5232               889.3043
 Red. masses --      1.2855                 1.4793                 2.6114
 Frc consts  --      0.5254                 0.6424                 1.2168
 IR Inten    --     37.7463                52.8641                 6.5840

                     34                     35                     36
                      A                      A                      A
 Frequencies --    909.6873               928.1899               947.0772
 Red. masses --      2.1889                 1.9621                 5.5352
 Frc consts  --      1.0672                 0.9960                 2.9252
 IR Inten    --     24.6074                42.1738                21.5869

                     37                     38                     39
                      A                      A                      A
 Frequencies --    970.2011              1002.0993              1023.8198
 Red. masses --      2.3664                 2.3093                 2.8391
 Frc consts  --      1.3124                 1.3663                 1.7534
 IR Inten    --      5.1912                 3.9384                 6.9276

                     40                     41                     42
                      A                      A                      A
 Frequencies --   1037.8433              1061.2465              1094.1406
 Red. masses --      2.0818                 2.9648                 2.5554
 Frc consts  --      1.3211                 1.9673                 1.8024
 IR Inten    --     41.7374                 9.3510                 4.4900

                     43                     44                     45
                      A                      A                      A
 Frequencies --   1148.7171              1154.3030              1170.3369
 Red. masses --      2.6233                 2.1925                 1.4580
 Frc consts  --      2.0395                 1.7212                 1.1766
 IR Inten    --     89.0036                16.9715                42.4457

                     46                     47                     48
                      A                      A                      A
 Frequencies --   1170.8029              1196.2801              1244.5210
 Red. masses --      1.7597                 2.1005                 1.4956
 Frc consts  --      1.4212                 1.7711                 1.3648
 IR Inten    --     46.2962                84.0078                12.0707

                     49                     50                     51
                      A                      A                      A
 Frequencies --   1277.3677              1279.3991              1287.9349
 Red. masses --      1.9344                 1.3493                 1.5390
 Frc consts  --      1.8596                 1.3013                 1.5041
 IR Inten    --      3.7116                24.1677                10.5622

                     52                     53                     54
                      A                      A                      A
 Frequencies --   1303.7160              1329.9380              1332.7673
 Red. masses --      1.4151                 1.5686                 1.4901
 Frc consts  --      1.4171                 1.6346                 1.5594
 IR Inten    --      6.7398                 5.8563                 6.2338

                     55                     56                     57
                      A                      A                      A
 Frequencies --   1361.4581              1381.8056              1390.0890
 Red. masses --      1.8023                 1.4372                 1.4981
 Frc consts  --      1.9683                 1.6168                 1.7056
 IR Inten    --      4.1346                10.8923                 6.8066

                     58                     59                     60
                      A                      A                      A
 Frequencies --   1407.5015              1418.0879              1441.5073
 Red. masses --      2.5331                 2.4416                 1.4345
 Frc consts  --      2.9567                 2.8929                 1.7563
 IR Inten    --      3.8066               105.3102                19.7071

                     61                     62                     63
                      A                      A                      A
 Frequencies --   1480.7979              1491.9917              1509.8020
 Red. masses --      2.1511                 1.0819                 1.6405
 Frc consts  --      2.7790                 1.4190                 2.2032
 IR Inten    --     42.9451                 9.6245                20.2888

                     64                     65                     66
                      A                      A                      A
 Frequencies --   1519.1658              1536.1638              1615.3877
 Red. masses --      1.8026                 1.0861                 1.8611
 Frc consts  --      2.4510                 1.5100                 2.8614
 IR Inten    --      6.9156                 4.4160               295.6479

                     67                     68                     69
                      A                      A                      A
 Frequencies --   1628.4133              1689.7075              1735.3655
 Red. masses --      3.4740                 1.0916                 7.3258
 Frc consts  --      5.4276                 1.8363                12.9983
 IR Inten    --     19.1982                36.5808               282.6923

                     70                     71                     72
                      A                      A                      A
 Frequencies --   1847.1748              3005.3506              3042.4765
 Red. masses --      9.9526                 1.0718                 1.0708
 Frc consts  --     20.0079                 5.7039                 5.8401
 IR Inten    --    239.2835                87.0607                 6.7126

                     73                     74                     75
                      A                      A                      A
 Frequencies --   3045.7135              3078.2709              3093.2806
 Red. masses --      1.0599                 1.0999                 1.0925
 Frc consts  --      5.7930                 6.1408                 6.1587
 IR Inten    --     23.3157                 7.3523                21.9169

                     76                     77                     78
                      A                      A                      A
 Frequencies --   3100.9017              3129.3962              3247.3978
 Red. masses --      1.0863                 1.0929                 1.0959
 Frc consts  --      6.1544                 6.3060                 6.8089
 IR Inten    --     12.6978                 8.7960                12.6217

                     79                     80                     81
                      A                      A                      A
 Frequencies --   3264.7107              3336.0601              3442.8660
 Red. masses --      1.0970                 1.0829                 1.0861
 Frc consts  --      6.8888                 7.1011                 7.5848
 IR Inten    --      3.7396               436.0299               367.8596

                     82                     83                     84
                      A                      A                      A
 Frequencies --   3483.4513              3573.8417              3684.0391
 Red. masses --      1.0504                 1.0931                 1.0641
 Frc consts  --      7.5098                 8.2261                 8.5089
 IR Inten    --      0.4150                 2.3220                59.1107

 - Thermochemistry -
 -------------------
 Temperature   298.150 Kelvin.  Pressure   1.00000 Atm.
 Atom     1 has atomic number  8 and mass  15.99491

 Molecular mass:   226.10659 amu.
 Principal axes and moments of inertia in atomic units:
                           1         2         3
     Eigenvalues --  2971.310344443.313546115.28575
           X            0.48774  -0.64000   0.59372
           Y            0.86948   0.41702  -0.26475
           Z           -0.07815   0.64536   0.75987
 This molecule is an asymmetric top.
 Rotational symmetry number  1.
 Warning -- assumption of classical behavior for rotation
           may cause significant error
 Rotational temperatures (Kelvin)      0.02915     0.01949     0.01416
 Rotational constants (GHZ):           0.60739     0.40617     0.29512
 Zero-point vibrational energy     648870.5 (Joules/Mol)
                                  155.08377 (Kcal/Mol)
 Warning -- explicit consideration of  21 degrees of freedom as
           vibrations may cause significant error
 Vibrational temperatures:     26.69    64.05    77.20    93.17   122.31
          (Kelvin)            152.26   175.63   223.78   264.62   295.64
                              336.23   387.31   444.71   451.30   501.34
                              516.53   624.62   700.40   743.26   851.95
                              877.02   911.47   928.77   973.49   995.38
                             1014.24  1117.68  1132.01  1143.81  1189.55
                             1198.31  1235.22  1279.51  1308.84  1335.46
                             1362.63  1395.90  1441.80  1473.05  1493.22
                             1526.90  1574.22  1652.75  1660.78  1683.85
                             1684.52  1721.18  1790.59  1837.84  1840.77
                             1853.05  1875.75  1913.48  1917.55  1958.83
                             1988.11  2000.03  2025.08  2040.31  2074.00
                             2130.54  2146.64  2172.27  2185.74  2210.19
                             2324.18  2342.92  2431.11  2496.80  2657.67
                             4324.02  4377.44  4382.10  4428.94  4450.54
                             4461.50  4502.50  4672.28  4697.18  4799.84
                             4953.51  5011.90  5141.95  5300.50

 Zero-point correction=                           0.247142 (Hartree/Particle)
 Thermal correction to Energy=                    0.262582
 Thermal correction to Enthalpy=                  0.263526
 Thermal correction to Gibbs Free Energy=         0.202255
 Sum of electronic and zero-point Energies=           -795.900066
 Sum of electronic and thermal Energies=              -795.884626
 Sum of electronic and thermal Enthalpies=            -795.883681
 Sum of electronic and thermal Free Energies=         -795.944952

                     E (Thermal)             CV                S
                      KCal/Mol        Cal/Mol-Kelvin    Cal/Mol-Kelvin
 Total                  164.773             56.799            128.955
 Electronic               0.000              0.000              0.000
 Translational            0.889              2.981             42.150
 Rotational               0.889              2.981             32.757
 Vibrational            162.995             50.838             54.049
 Vibration     1          0.593              1.986              6.784
 Vibration     2          0.595              1.980              5.047
 Vibration     3          0.596              1.976              4.678
 Vibration     4          0.597              1.971              4.307
 Vibration     5          0.601              1.960              3.772
 Vibration     6          0.605              1.945              3.344
 Vibration     7          0.610              1.931              3.067
 Vibration     8          0.620              1.896              2.603
 Vibration     9          0.631              1.862              2.288
 Vibration    10          0.640              1.832              2.083
 Vibration    11          0.654              1.789              1.850
 Vibration    12          0.674              1.730              1.601
 Vibration    13          0.698              1.656              1.367
 Vibration    14          0.702              1.648              1.343
 Vibration    15          0.726              1.578              1.173
 Vibration    16          0.734              1.557              1.126
 Vibration    17          0.795              1.396              0.845
 Vibration    18          0.843              1.279              0.692
 Vibration    19          0.872              1.213              0.618
 Vibration    20          0.950              1.049              0.463
 Vibration    21          0.969              1.012              0.434

 Optimization completed.
    -- Stationary point found.
 Normal termination of Gaussian 09 at Tue Jul 27 02:09:36 2021.
