 Gaussian 09, Revision D.01,
 Gaussian 09:  ES64L-G09RevD.01 24-Apr-2013

 ----------------------------------------------------------------------
 # B3LYP/6-31G(d) EmpiricalDispersion=GD3BJ opt=calcfc freq=noraman nos
 ymm integral(ultrafinegrid)
 ----------------------------------------------------------------------

 ------------------------------------------------------------
 Candidate Structure: Conf:150 OPT and FREQ calc in gas phase
 ------------------------------------------------------------
 Symbolic Z-matrix:
 Charge =  0 Multiplicity = 1

 SCF Done:  E(RB3LYP) =  -796.133996720     A.U. after   14 cycles
 SCF Done:  E(RB3LYP) =  -796.135061849     A.U. after   15 cycles
 SCF Done:  E(RB3LYP) =  -796.097411016     A.U. after   14 cycles
 SCF Done:  E(RB3LYP) =  -796.135079260     A.U. after    7 cycles
 SCF Done:  E(RB3LYP) =  -796.135821385     A.U. after   13 cycles
 SCF Done:  E(RB3LYP) =  -796.134709794     A.U. after   14 cycles
 SCF Done:  E(RB3LYP) =  -796.135830148     A.U. after   10 cycles
 SCF Done:  E(RB3LYP) =  -796.135895076     A.U. after   10 cycles
 SCF Done:  E(RB3LYP) =  -796.135923334     A.U. after   11 cycles
 SCF Done:  E(RB3LYP) =  -796.135943691     A.U. after   11 cycles
 SCF Done:  E(RB3LYP) =  -796.135948425     A.U. after   10 cycles
 SCF Done:  E(RB3LYP) =  -796.135948748     A.U. after    8 cycles
 SCF Done:  E(RB3LYP) =  -796.135948878     A.U. after    8 cycles
 SCF Done:  E(RB3LYP) =  -796.135949019     A.U. after    8 cycles
 SCF Done:  E(RB3LYP) =  -796.135949038     A.U. after    7 cycles
 Optimization completed.
    -- Stationary point found.
 Normal termination of Gaussian 09 at Tue Jul 27 01:59:47 2021.

 --------------------------------------------------------------------
 #N Geom=AllCheck Guess=TCheck SCRF=Check GenChk RB3LYP/6-31G(d) Freq
 --------------------------------------------------------------------

 Structure from the checkpoint file:  "conf-150.chk"
 ------------------------------------------------------------
 Candidate Structure: Conf:150 OPT and FREQ calc in gas phase
 ------------------------------------------------------------
 Charge =  0 Multiplicity = 1

                          Input orientation:
 ---------------------------------------------------------------------
 Center     Atomic      Atomic             Coordinates (Angstroms)
 Number     Number       Type             X           Y           Z
 ---------------------------------------------------------------------
      1          8           0       -1.105517   -1.879622   -0.802706
      2          6           0       -1.267018   -0.743955   -0.366895
      3          7           0       -0.370513   -0.166436    0.489770
      4          6           0        0.724737   -0.936499    1.049614
      5          6           0        1.159505   -0.240918    2.327364
      6          8           0        2.168988   -0.892408    2.933017
      7          8           0        0.670103    0.782179    2.756174
      8          6           0        1.914011   -1.081796    0.064445
      9          6           0        2.587496    0.214630   -0.232161
     10          6           0        3.808731    0.730627    0.137539
     11          7           0        3.975367    2.012272   -0.342868
     12          6           0        2.864796    2.282241   -0.995330
     13          7           0        1.992411    1.229662   -0.963008
     14          6           0       -2.435287    0.139764   -0.780947
     15          6           0       -3.698862   -0.679102   -1.044934
     16          7           0       -4.739927    0.182618   -1.610921
     17          1           0       -0.603068    0.684080    0.989351
     18          1           0        0.368851   -1.945003    1.294749
     19          1           0        2.412576   -0.362743    3.715543
     20          1           0        1.513783   -1.556344   -0.837690
     21          1           0        2.644315   -1.768106    0.500910
     22          1           0        4.578515    0.240802    0.719028
     23          1           0        2.638151    3.207247   -1.508113
     24          1           0        1.059497    1.195371   -1.346908
     25          1           0       -2.168029    0.662661   -1.708680
     26          1           0       -2.621896    0.915264   -0.025977
     27          1           0       -3.452050   -1.455715   -1.773717
     28          1           0       -3.991737   -1.200814   -0.116802
     29          1           0       -5.092267    0.815398   -0.893384
     30          1           0       -5.535350   -0.385746   -1.895929
 ---------------------------------------------------------------------

 SCF Done:  E(RB3LYP) =  -796.135949038     A.U. after    1 cycles

 Alpha  occ. eigenvalues --  -19.21933 -19.16426 -19.12370 -14.38716 -14.37150
 Alpha  occ. eigenvalues --  -14.31910 -14.30614 -10.34323 -10.29727 -10.25567
 Alpha  occ. eigenvalues --  -10.23509 -10.21636 -10.21432 -10.20946 -10.20179
 Alpha  occ. eigenvalues --  -10.19188  -1.13003  -1.04542  -1.03889  -1.00759
 Alpha  occ. eigenvalues --   -0.93799  -0.88647  -0.86449  -0.81049  -0.76472
 Alpha  occ. eigenvalues --   -0.73806  -0.68245  -0.64897  -0.61230  -0.60677
 Alpha  occ. eigenvalues --   -0.59618  -0.58439  -0.53410  -0.53139  -0.50908
 Alpha  occ. eigenvalues --   -0.49962  -0.49464  -0.48211  -0.46850  -0.45666
 Alpha  occ. eigenvalues --   -0.44994  -0.43681  -0.43125  -0.41968  -0.41650
 Alpha  occ. eigenvalues --   -0.40255  -0.40112  -0.39529  -0.38711  -0.38294
 Alpha  occ. eigenvalues --   -0.35881  -0.35096  -0.34081  -0.30168  -0.27638
 Alpha  occ. eigenvalues --   -0.27175  -0.26145  -0.25942  -0.24183  -0.21980
 Alpha virt. eigenvalues --   -0.01177   0.01282   0.02937   0.05621   0.06194
 Alpha virt. eigenvalues --    0.07224   0.07493   0.09368   0.12218   0.13440
 Alpha virt. eigenvalues --    0.13710   0.14344   0.14993   0.15578   0.15749

 Mulliken charges:
               1
     1  O   -0.521966
     2  C    0.606535
     3  N   -0.630682
     4  C   -0.027382
     5  C    0.596812
     6  O   -0.563639
     7  O   -0.470306
     8  C   -0.359546
     9  C    0.308868
    10  C   -0.078417
    11  N   -0.425656
    12  C    0.207809
    13  N   -0.596923
    14  C   -0.355644
    15  C   -0.138010
    16  N   -0.719345
    17  H    0.351311
    18  H    0.196280
    19  H    0.421646
    20  H    0.192138
    21  H    0.177789
    22  H    0.130417
    23  H    0.154142
    24  H    0.332549
    25  H    0.180620
    26  H    0.137025
    27  H    0.175114
    28  H    0.123610
    29  H    0.292723
    30  H    0.302126
 Sum of Mulliken charges =   0.00000

 Dipole moment (field-independent basis, Debye):
    X=             -3.2370    Y=             -0.4099    Z=              1.7671  Tot=              3.7107
 Quadrupole moment (field-independent basis, Debye-Ang):
   XX=            -95.7952   YY=            -99.9587   ZZ=            -89.3514
   XY=            -10.4906   XZ=              2.6976   YZ=             -6.0938

  Exact polarizability: 142.627   6.247 118.849  21.923  -5.689 102.903
 Approx polarizability: 187.420   1.750 199.886  29.233   0.280 149.752

                      1                      2                      3
                      A                      A                      A
 Frequencies --     13.1267                25.5520                48.9711
 Red. masses --      3.5540                 3.9732                 4.2889
 Frc consts  --      0.0004                 0.0015                 0.0061
 IR Inten    --      0.8409                 2.4003                 9.2244

                      4                      5                      6
                      A                      A                      A
 Frequencies --     51.0706                64.7808                72.4717
 Red. masses --      3.6781                 7.6058                 5.1236
 Frc consts  --      0.0057                 0.0188                 0.0159
 IR Inten    --      3.3231                 0.2004                 2.4584

                      7                      8                      9
                      A                      A                      A
 Frequencies --     76.7199               124.9506               129.0621
 Red. masses --      4.7366                 4.6792                 4.1766
 Frc consts  --      0.0164                 0.0430                 0.0410
 IR Inten    --      1.0343                 4.5418                 4.2188

                     10                     11                     12
                      A                      A                      A
 Frequencies --    191.2086               219.9822               256.0487
 Red. masses --      5.2379                 3.7036                 2.8920
 Frc consts  --      0.1128                 0.1056                 0.1117
 IR Inten    --      1.5705                17.3935                11.0500

                     13                     14                     15
                      A                      A                      A
 Frequencies --    273.9328               308.9096               330.6226
 Red. masses --      1.5727                 5.1520                 5.9616
 Frc consts  --      0.0695                 0.2897                 0.3840
 IR Inten    --     53.0167                 1.2525                 3.0137

                     16                     17                     18
                      A                      A                      A
 Frequencies --    370.6508               399.1327               470.1472
 Red. masses --      2.3734                 3.5779                 2.7383
 Frc consts  --      0.1921                 0.3358                 0.3566
 IR Inten    --      3.5113                 6.1680                34.1823

                     19                     20                     21
                      A                      A                      A
 Frequencies --    488.9230               545.5220               575.2346
 Red. masses --      1.4562                 3.2548                 1.7189
 Frc consts  --      0.2051                 0.5707                 0.3351
 IR Inten    --    116.2013                20.9638                17.7027

                     22                     23                     24
                      A                      A                      A
 Frequencies --    595.5064               625.4475               647.4110
 Red. masses --      3.2856                 2.0700                 2.0002
 Frc consts  --      0.6865                 0.4771                 0.4939
 IR Inten    --     38.0187                77.3626                 3.1865

                     25                     26                     27
                      A                      A                      A
 Frequencies --    663.1610               685.0966               704.7234
 Red. masses --      2.2858                 2.6685                 2.9243
 Frc consts  --      0.5923                 0.7379                 0.8557
 IR Inten    --     14.1319                 1.5537                66.0121

                     28                     29                     30
                      A                      A                      A
 Frequencies --    740.0203               783.5041               794.7422
 Red. masses --      4.3382                 2.2811                 1.4747
 Frc consts  --      1.3998                 0.8250                 0.5488
 IR Inten    --     14.5140                27.4630                15.5130

                     31                     32                     33
                      A                      A                      A
 Frequencies --    812.3744               840.2323               878.1403
 Red. masses --      1.4807                 1.4385                 2.1999
 Frc consts  --      0.5758                 0.5983                 0.9995
 IR Inten    --      8.0940                13.9868                61.3900

                     34                     35                     36
                      A                      A                      A
 Frequencies --    889.5935               930.0672               942.5777
 Red. masses --      1.5657                 3.4678                 5.0428
 Frc consts  --      0.7300                 1.7674                 2.6397
 IR Inten    --     71.7208                10.4384                14.8660

                     37                     38                     39
                      A                      A                      A
 Frequencies --    975.9834               996.5644              1028.8955
 Red. masses --      3.0280                 2.1020                 2.8756
 Frc consts  --      1.6994                 1.2300                 1.7936
 IR Inten    --      8.9470                 5.0625                27.8935

                     40                     41                     42
                      A                      A                      A
 Frequencies --   1036.5701              1074.6790              1108.2953
 Red. masses --      2.8962                 2.7326                 1.9095
 Frc consts  --      1.8335                 1.8594                 1.3819
 IR Inten    --      1.3393                24.5325                20.4254

                     43                     44                     45
                      A                      A                      A
 Frequencies --   1121.0171              1128.2647              1154.8250
 Red. masses --      1.5545                 2.3055                 2.1490
 Frc consts  --      1.1509                 1.7292                 1.6886
 IR Inten    --     14.7192                41.5508                10.3779

                     46                     47                     48
                      A                      A                      A
 Frequencies --   1173.1568              1196.5813              1220.7015
 Red. masses --      1.4629                 2.1483                 1.4486
 Frc consts  --      1.1862                 1.8123                 1.2718
 IR Inten    --     24.2675               196.8656                 1.2224

                     49                     50                     51
                      A                      A                      A
 Frequencies --   1247.0184              1265.0217              1275.6547
 Red. masses --      1.7158                 1.7747                 1.7340
 Frc consts  --      1.5720                 1.6733                 1.6625
 IR Inten    --     24.3376                13.7005                 0.2053

                     52                     53                     54
                      A                      A                      A
 Frequencies --   1281.1057              1298.9009              1329.9281
 Red. masses --      1.5552                 1.3357                 1.4141
 Frc consts  --      1.5038                 1.3277                 1.4736
 IR Inten    --     26.9810                 9.0820                 3.9755

                     55                     56                     57
                      A                      A                      A
 Frequencies --   1352.1945              1378.8554              1389.8026
 Red. masses --      1.1211                 1.4884                 1.8111
 Frc consts  --      1.2077                 1.6673                 2.0612
 IR Inten    --      6.4634                 3.8549                 9.6867

                     58                     59                     60
                      A                      A                      A
 Frequencies --   1405.5340              1432.4713              1442.9445
 Red. masses --      2.2787                 2.5607                 2.8697
 Frc consts  --      2.6523                 3.0958                 3.5203
 IR Inten    --     22.9586               139.7885                17.1942

                     61                     62                     63
                      A                      A                      A
 Frequencies --   1448.5309              1498.9091              1510.9100
 Red. masses --      1.6161                 1.0957                 1.3298
 Frc consts  --      1.9979                 1.4504                 1.7886
 IR Inten    --     59.8055                 8.1231                10.6813

                     64                     65                     66
                      A                      A                      A
 Frequencies --   1517.8106              1541.4253              1544.0030
 Red. masses --      2.5036                 2.1448                 1.0897
 Frc consts  --      3.3983                 3.0025                 1.5305
 IR Inten    --     63.4910               272.4855                 1.1064

                     67                     68                     69
                      A                      A                      A
 Frequencies --   1628.4186              1700.6277              1770.5333
 Red. masses --      4.6263                 1.0895                 9.6382
 Frc consts  --      7.2280                 1.8565                17.8014
 IR Inten    --      8.4469                23.1311               208.4472

                     70                     71                     72
                      A                      A                      A
 Frequencies --   1840.2101              2968.5080              3039.5437
 Red. masses --      9.8054                 1.0744                 1.0604
 Frc consts  --     19.5636                 5.5784                 5.7721
 IR Inten    --    193.8103                71.7812                18.4887

                     73                     74                     75
                      A                      A                      A
 Frequencies --   3063.0453              3078.1123              3081.7691
 Red. masses --      1.0818                 1.1001                 1.0641
 Frc consts  --      5.9799                 6.1413                 5.9543
 IR Inten    --     10.5695                14.1389                10.3351

                     76                     77                     78
                      A                      A                      A
 Frequencies --   3121.4379              3134.1127              3256.4082
 Red. masses --      1.0900                 1.1018                 1.0959
 Frc consts  --      6.2574                 6.3765                 6.8470
 IR Inten    --     17.8285                 7.1137                 8.7816

                     79                     80                     81
                      A                      A                      A
 Frequencies --   3267.0239              3463.9496              3549.4341
 Red. masses --      1.0977                 1.0504                 1.0917
 Frc consts  --      6.9027                 7.4262                 8.1034
 IR Inten    --      2.0862                 2.2290                 0.3386

                     82                     83                     84
                      A                      A                      A
 Frequencies --   3585.6790              3655.1643              3688.9733
 Red. masses --      1.0774                 1.0808                 1.0641
 Frc consts  --      8.1615                 8.5075                 8.5322
 IR Inten    --     65.9158                45.1725                70.2873

 - Thermochemistry -
 -------------------
 Temperature   298.150 Kelvin.  Pressure   1.00000 Atm.
 Atom     1 has atomic number  8 and mass  15.99491

 Molecular mass:   226.10659 amu.
 Principal axes and moments of inertia in atomic units:
                           1         2         3
     Eigenvalues --  2233.535076306.367847321.66358
           X            0.95256  -0.11901  -0.28013
           Y            0.18414  -0.50749   0.84175
           Z            0.24234   0.85340   0.46149
 This molecule is an asymmetric top.
 Rotational symmetry number  1.
 Warning -- assumption of classical behavior for rotation
           may cause significant error
 Rotational temperatures (Kelvin)      0.03878     0.01373     0.01183
 Rotational constants (GHZ):           0.80802     0.28618     0.24649
 Zero-point vibrational energy     645021.2 (Joules/Mol)
                                  154.16377 (Kcal/Mol)
 Warning -- explicit consideration of  22 degrees of freedom as
           vibrations may cause significant error
 Vibrational temperatures:     18.89    36.76    70.46    73.48    93.21
          (Kelvin)            104.27   110.38   179.78   185.69   275.11
                              316.50   368.40   394.13   444.45   475.69
                              533.28   574.26   676.44   703.45   784.88
                              827.63   856.80   899.88   931.48   954.14
                              985.70  1013.94  1064.72  1127.29  1143.46
                             1168.82  1208.91  1263.45  1279.93  1338.16
                             1356.16  1404.22  1433.83  1480.35  1491.39
                             1546.22  1594.59  1612.89  1623.32  1661.53
                             1687.91  1721.61  1756.31  1794.18  1820.08
                             1835.38  1843.22  1868.83  1913.47  1945.50
                             1983.86  1999.61  2022.25  2061.00  2076.07
                             2084.11  2156.59  2173.86  2183.79  2217.76
                             2221.47  2342.93  2446.82  2547.40  2647.65
                             4271.02  4373.22  4407.03  4428.71  4433.97
                             4491.05  4509.28  4685.24  4700.51  4983.84
                             5106.84  5158.99  5258.96  5307.60

 Zero-point correction=                           0.245676 (Hartree/Particle)
 Thermal correction to Energy=                    0.261924
 Thermal correction to Enthalpy=                  0.262869
 Thermal correction to Gibbs Free Energy=         0.198107
 Sum of electronic and zero-point Energies=           -795.890273
 Sum of electronic and thermal Energies=              -795.874025
 Sum of electronic and thermal Enthalpies=            -795.873080
 Sum of electronic and thermal Free Energies=         -795.937842

                     E (Thermal)             CV                S
                      KCal/Mol        Cal/Mol-Kelvin    Cal/Mol-Kelvin
 Total                  164.360             58.248            136.302
 Electronic               0.000              0.000              0.000
 Translational            0.889              2.981             42.150
 Rotational               0.889              2.981             33.000
 Vibrational            162.583             52.286             61.152
 Vibration     1          0.593              1.987              7.471
 Vibration     2          0.593              1.985              6.148
 Vibration     3          0.595              1.978              4.859
 Vibration     4          0.595              1.977              4.776
 Vibration     5          0.597              1.971              4.306
 Vibration     6          0.599              1.967              4.085
 Vibration     7          0.599              1.965              3.973
 Vibration     8          0.610              1.928              3.022
 Vibration     9          0.612              1.924              2.960
 Vibration    10          0.634              1.852              2.216
 Vibration    11          0.647              1.811              1.959
 Vibration    12          0.666              1.753              1.689
 Vibration    13          0.676              1.721              1.571
 Vibration    14          0.698              1.657              1.368
 Vibration    15          0.713              1.614              1.257
 Vibration    16          0.743              1.532              1.077
 Vibration    17          0.765              1.472              0.966
 Vibration    18          0.827              1.316              0.737
 Vibration    19          0.845              1.275              0.686
 Vibration    20          0.901              1.149              0.554
 Vibration    21          0.932              1.085              0.494
 Vibration    22          0.953              1.041              0.457

 Optimization completed.
    -- Stationary point found.
 Normal termination of Gaussian 09 at Tue Jul 27 02:15:56 2021.
