 Gaussian 09, Revision D.01,
 Gaussian 09:  ES64L-G09RevD.01 24-Apr-2013

 ----------------------------------------------------------------------
 # B3LYP/6-31G(d) EmpiricalDispersion=GD3BJ opt=calcfc freq=noraman nos
 ymm integral(ultrafinegrid)
 ----------------------------------------------------------------------

 ------------------------------------------------------------
 Candidate Structure: Conf:640 OPT and FREQ calc in gas phase
 ------------------------------------------------------------
 Symbolic Z-matrix:
 Charge =  0 Multiplicity = 1

 SCF Done:  E(RB3LYP) =  -796.136257536     A.U. after   14 cycles
 SCF Done:  E(RB3LYP) =  -796.138891569     A.U. after   14 cycles
 SCF Done:  E(RB3LYP) =  -796.138780088     A.U. after   14 cycles
 SCF Done:  E(RB3LYP) =  -796.139057727     A.U. after   11 cycles
 SCF Done:  E(RB3LYP) =  -796.117296624     A.U. after   13 cycles
 SCF Done:  E(RB3LYP) =  -796.139090624     A.U. after    9 cycles
 SCF Done:  E(RB3LYP) =  -796.139175296     A.U. after   11 cycles
 SCF Done:  E(RB3LYP) =  -796.139215279     A.U. after   12 cycles
 SCF Done:  E(RB3LYP) =  -796.139230282     A.U. after   11 cycles
 SCF Done:  E(RB3LYP) =  -796.139251486     A.U. after   11 cycles
 SCF Done:  E(RB3LYP) =  -796.139260626     A.U. after   10 cycles
 SCF Done:  E(RB3LYP) =  -796.139264230     A.U. after   11 cycles
 SCF Done:  E(RB3LYP) =  -796.139265111     A.U. after   10 cycles
 SCF Done:  E(RB3LYP) =  -796.139265132     A.U. after    7 cycles
 Optimization completed.
    -- Stationary point found.
 Normal termination of Gaussian 09 at Tue Jul 27 01:59:39 2021.

 --------------------------------------------------------------------
 #N Geom=AllCheck Guess=TCheck SCRF=Check GenChk RB3LYP/6-31G(d) Freq
 --------------------------------------------------------------------

 Structure from the checkpoint file:  "conf-640.chk"
 ------------------------------------------------------------
 Candidate Structure: Conf:640 OPT and FREQ calc in gas phase
 ------------------------------------------------------------
 Charge =  0 Multiplicity = 1

                          Input orientation:
 ---------------------------------------------------------------------
 Center     Atomic      Atomic             Coordinates (Angstroms)
 Number     Number       Type             X           Y           Z
 ---------------------------------------------------------------------
      1          8           0        0.933930   -1.247100   -1.236860
      2          6           0        1.172258   -0.131070   -0.761526
      3          7           0        0.265390    0.881646   -0.796055
      4          6           0       -0.996116    0.756047   -1.491712
      5          6           0       -1.210034    2.004448   -2.328925
      6          8           0       -2.207258    1.841420   -3.220524
      7          8           0       -0.599609    3.041815   -2.187313
      8          6           0       -2.221939    0.565249   -0.549718
      9          6           0       -2.017296   -0.432993    0.542951
     10          6           0       -2.466137   -0.444068    1.844411
     11          7           0       -2.078412   -1.596048    2.493752
     12          6           0       -1.392622   -2.275427    1.596951
     13          7           0       -1.344084   -1.633016    0.391614
     14          6           0        2.458451    0.147314   -0.015168
     15          6           0        2.523792   -0.725526    1.264477
     16          7           0        3.741814   -0.593658    2.053347
     17          1           0        0.538239    1.815359   -0.518786
     18          1           0       -0.914064   -0.112433   -2.150711
     19          1           0       -2.315654    2.695665   -3.680541
     20          1           0       -3.074804    0.301761   -1.188656
     21          1           0       -2.467732    1.525786   -0.081722
     22          1           0       -3.057391    0.312545    2.344102
     23          1           0       -0.909383   -3.229457    1.758956
     24          1           0       -0.708733   -1.849962   -0.374845
     25          1           0        2.554679    1.208347    0.246857
     26          1           0        3.294345   -0.116723   -0.673112
     27          1           0        1.668812   -0.486062    1.907707
     28          1           0        2.409536   -1.772337    0.966872
     29          1           0        3.864102    0.370332    2.359178
     30          1           0        4.556000   -0.821982    1.484950
 ---------------------------------------------------------------------

 SCF Done:  E(RB3LYP) =  -796.139265132     A.U. after    1 cycles

 Alpha  occ. eigenvalues --  -19.22485 -19.16842 -19.13278 -14.38196 -14.37090
 Alpha  occ. eigenvalues --  -14.32103 -14.29837 -10.34784 -10.30639 -10.26168
 Alpha  occ. eigenvalues --  -10.22505 -10.21853 -10.21794 -10.21146 -10.20518
 Alpha  occ. eigenvalues --  -10.18531  -1.13449  -1.05298  -1.04406  -0.99703
 Alpha  occ. eigenvalues --   -0.94753  -0.88948  -0.85509  -0.81315  -0.76647
 Alpha  occ. eigenvalues --   -0.74018  -0.67830  -0.65306  -0.62004  -0.61037
 Alpha  occ. eigenvalues --   -0.59391  -0.57629  -0.54413  -0.51716  -0.51677
 Alpha  occ. eigenvalues --   -0.51020  -0.49630  -0.48738  -0.47664  -0.46120
 Alpha  occ. eigenvalues --   -0.44522  -0.43851  -0.42621  -0.42063  -0.41658
 Alpha  occ. eigenvalues --   -0.40714  -0.40223  -0.39574  -0.38872  -0.38365
 Alpha  occ. eigenvalues --   -0.36868  -0.35261  -0.34588  -0.30729  -0.28089
 Alpha  occ. eigenvalues --   -0.27558  -0.26521  -0.25240  -0.23940  -0.21279
 Alpha virt. eigenvalues --   -0.01728   0.00252   0.03672   0.05335   0.06792
 Alpha virt. eigenvalues --    0.07734   0.08062   0.10066   0.11947   0.12316
 Alpha virt. eigenvalues --    0.13287   0.14722   0.15021   0.15404   0.16618

 Mulliken charges:
               1
     1  O   -0.552527
     2  C    0.619631
     3  N   -0.578365
     4  C   -0.062285
     5  C    0.584280
     6  O   -0.559662
     7  O   -0.465596
     8  C   -0.353944
     9  C    0.329063
    10  C   -0.086757
    11  N   -0.428426
    12  C    0.196404
    13  N   -0.623315
    14  C   -0.358516
    15  C   -0.151284
    16  N   -0.697986
    17  H    0.346166
    18  H    0.203700
    19  H    0.419563
    20  H    0.181690
    21  H    0.161042
    22  H    0.123921
    23  H    0.153209
    24  H    0.370090
    25  H    0.132382
    26  H    0.166967
    27  H    0.167949
    28  H    0.170952
    29  H    0.295360
    30  H    0.296293
 Sum of Mulliken charges =   0.00000

 Dipole moment (field-independent basis, Debye):
    X=              1.2125    Y=              3.6187    Z=             -3.9277  Tot=              5.4765
 Quadrupole moment (field-independent basis, Debye-Ang):
   XX=            -86.6728   YY=            -93.9089   ZZ=           -102.1971
   XY=             -4.6835   XZ=             10.0497   YZ=              3.3830

  Exact polarizability: 122.459 -11.945 122.660   7.074 -18.841 121.737
 Approx polarizability: 163.175 -16.509 200.447   1.746  -5.400 182.775

                      1                      2                      3
                      A                      A                      A
 Frequencies --     14.8623                22.2656                54.4420
 Red. masses --      4.8123                 3.5158                 6.2099
 Frc consts  --      0.0006                 0.0010                 0.0108
 IR Inten    --      0.9231                 2.2947                 2.9522

                      4                      5                      6
                      A                      A                      A
 Frequencies --     61.6298                72.7302                86.0586
 Red. masses --      5.8096                 5.2840                 1.9331
 Frc consts  --      0.0130                 0.0165                 0.0084
 IR Inten    --      0.3258                 4.3635                 2.1704

                      7                      8                      9
                      A                      A                      A
 Frequencies --    101.5001               149.1177               169.2183
 Red. masses --      6.1039                 5.0464                 6.4249
 Frc consts  --      0.0371                 0.0661                 0.1084
 IR Inten    --      0.5324                 6.5823                 8.1288

                     10                     11                     12
                      A                      A                      A
 Frequencies --    184.4845               202.2120               273.2602
 Red. masses --      4.8922                 4.9444                 5.1143
 Frc consts  --      0.0981                 0.1191                 0.2250
 IR Inten    --     13.6619                14.0363                 2.2453

                     13                     14                     15
                      A                      A                      A
 Frequencies --    300.2365               317.7751               322.2987
 Red. masses --      3.0668                 1.1749                 5.2811
 Frc consts  --      0.1629                 0.0699                 0.3232
 IR Inten    --      4.0220                45.8419                 3.3583

                     16                     17                     18
                      A                      A                      A
 Frequencies --    342.6507               393.3524               455.3641
 Red. masses --      3.5471                 3.7108                 3.7398
 Frc consts  --      0.2454                 0.3383                 0.4569
 IR Inten    --      5.2710                 2.4837                 8.7176

                     19                     20                     21
                      A                      A                      A
 Frequencies --    517.0997               529.0810               613.6339
 Red. masses --      1.3286                 2.9527                 1.5283
 Frc consts  --      0.2093                 0.4870                 0.3391
 IR Inten    --     59.8011                50.9354                77.7337

                     22                     23                     24
                      A                      A                      A
 Frequencies --    627.6323               632.2994               657.9335
 Red. masses --      3.1047                 3.8733                 3.6382
 Frc consts  --      0.7206                 0.9124                 0.9279
 IR Inten    --     21.2488                42.2557                41.7978

                     25                     26                     27
                      A                      A                      A
 Frequencies --    676.4291               709.5814               736.8998
 Red. masses --      3.9034                 2.8695                 1.2910
 Frc consts  --      1.0523                 0.8513                 0.4130
 IR Inten    --     30.2348                37.6255               122.5254

                     28                     29                     30
                      A                      A                      A
 Frequencies --    758.5088               779.0736               786.7470
 Red. masses --      4.6425                 1.1647                 4.0273
 Frc consts  --      1.5737                 0.4165                 1.4687
 IR Inten    --      7.9386                 1.7038                18.4315

                     31                     32                     33
                      A                      A                      A
 Frequencies --    798.9563               835.5313               866.5479
 Red. masses --      1.3789                 1.3209                 1.5367
 Frc consts  --      0.5186                 0.5433                 0.6799
 IR Inten    --     13.8244                28.2146               225.6588

                     34                     35                     36
                      A                      A                      A
 Frequencies --    902.4507               939.0976               945.9812
 Red. masses --      2.1071                 4.4307                 5.6244
 Frc consts  --      1.0111                 2.3022                 2.9654
 IR Inten    --      0.4481                 0.3546                18.4579

                     37                     38                     39
                      A                      A                      A
 Frequencies --    989.3179              1000.1171              1016.6746
 Red. masses --      1.4442                 3.0434                 4.3496
 Frc consts  --      0.8328                 1.7935                 2.6489
 IR Inten    --      7.3591                11.1804                91.1885

                     40                     41                     42
                      A                      A                      A
 Frequencies --   1027.7906              1051.9777              1116.0891
 Red. masses --      3.6684                 3.1476                 1.9650
 Frc consts  --      2.2832                 2.0523                 1.4421
 IR Inten    --     19.8833                 5.0574                 9.2584

                     43                     44                     45
                      A                      A                      A
 Frequencies --   1126.4736              1151.8848              1162.8682
 Red. masses --      2.5258                 1.9962                 1.8420
 Frc consts  --      1.8884                 1.5605                 1.4675
 IR Inten    --     24.2600                24.5577                43.5031

                     46                     47                     48
                      A                      A                      A
 Frequencies --   1164.7479              1195.6289              1239.5718
 Red. masses --      1.9589                 1.9887                 1.5399
 Frc consts  --      1.5657                 1.6750                 1.3941
 IR Inten    --     93.1024                91.1005                18.5443

                     49                     50                     51
                      A                      A                      A
 Frequencies --   1263.6425              1277.6892              1289.6612
 Red. masses --      1.5202                 1.9510                 1.4314
 Frc consts  --      1.4302                 1.8765                 1.4027
 IR Inten    --      9.1990                 7.0842                 8.7249

                     52                     53                     54
                      A                      A                      A
 Frequencies --   1297.3846              1310.6232              1344.0668
 Red. masses --      1.4647                 1.3116                 1.3846
 Frc consts  --      1.4525                 1.3274                 1.4738
 IR Inten    --     22.2442                 5.4786                 9.3732

                     55                     56                     57
                      A                      A                      A
 Frequencies --   1368.2673              1382.9390              1400.0155
 Red. masses --      1.8851                 1.4750                 1.2522
 Frc consts  --      2.0793                 1.6620                 1.4460
 IR Inten    --      0.2436                 9.9313                13.8994

                     58                     59                     60
                      A                      A                      A
 Frequencies --   1406.7696              1411.1696              1423.3768
 Red. masses --      2.4203                 1.2138                 2.7345
 Frc consts  --      2.8221                 1.4242                 3.2642
 IR Inten    --      0.9035                12.6987               205.6406

                     61                     62                     63
                      A                      A                      A
 Frequencies --   1471.2643              1506.3091              1507.9925
 Red. masses --      2.2202                 1.1362                 1.3735
 Frc consts  --      2.8315                 1.5189                 1.8402
 IR Inten    --     33.3946                 2.7914                18.1132

                     64                     65                     66
                      A                      A                      A
 Frequencies --   1519.8813              1526.8268              1563.0420
 Red. masses --      2.2394                 1.0940                 2.1908
 Frc consts  --      3.0479                 1.5026                 3.1536
 IR Inten    --     10.9117                 5.9629               248.1579

                     67                     68                     69
                      A                      A                      A
 Frequencies --   1627.2010              1701.1877              1735.0767
 Red. masses --      3.7833                 1.0946                 8.0508
 Frc consts  --      5.9021                 1.8665                14.2800
 IR Inten    --      9.3631                28.3451               178.7048

                     70                     71                     72
                      A                      A                      A
 Frequencies --   1842.4741              3044.6112              3049.5596
 Red. masses --      9.8635                 1.0615                 1.0597
 Frc consts  --     19.7281                 5.7976                 5.8062
 IR Inten    --    246.4050                24.9390                13.2253

                     73                     74                     75
                      A                      A                      A
 Frequencies --   3066.8356              3082.9694              3096.2022
 Red. masses --      1.0646                 1.1002                 1.1005
 Frc consts  --      5.8994                 6.1612                 6.2157
 IR Inten    --     26.6980                10.0885                 6.3919

                     76                     77                     78
                      A                      A                      A
 Frequencies --   3114.1578              3123.0919              3249.2637
 Red. masses --      1.0852                 1.1060                 1.0960
 Frc consts  --      6.2005                 6.3557                 6.8178
 IR Inten    --      6.9402                25.9843                10.8446

                     79                     80                     81
                      A                      A                      A
 Frequencies --   3266.6363              3465.7217              3497.1131
 Red. masses --      1.0972                 1.0490                 1.0840
 Frc consts  --      6.8984                 7.4234                 7.8112
 IR Inten    --      2.4931                 0.6751               252.2762

                     82                     83                     84
                      A                      A                      A
 Frequencies --   3551.6879              3616.6361              3680.7722
 Red. masses --      1.0930                 1.0774                 1.0641
 Frc consts  --      8.1233                 8.3034                 8.4937
 IR Inten    --      0.1977                51.0572                67.4620

 - Thermochemistry -
 -------------------
 Temperature   298.150 Kelvin.  Pressure   1.00000 Atm.
 Atom     1 has atomic number  8 and mass  15.99491

 Molecular mass:   226.10659 amu.
 Principal axes and moments of inertia in atomic units:
                           1         2         3
     Eigenvalues --  3131.663834450.027886629.73660
           X            0.55370   0.83140  -0.04683
           Y           -0.51244   0.38453   0.76782
           Z            0.65637  -0.40115   0.63895
 This molecule is an asymmetric top.
 Rotational symmetry number  1.
 Warning -- assumption of classical behavior for rotation
           may cause significant error
 Rotational temperatures (Kelvin)      0.02766     0.01946     0.01306
 Rotational constants (GHZ):           0.57629     0.40556     0.27222
 Zero-point vibrational energy     646953.6 (Joules/Mol)
                                  154.62563 (Kcal/Mol)
 Warning -- explicit consideration of  21 degrees of freedom as
           vibrations may cause significant error
 Vibrational temperatures:     21.38    32.04    78.33    88.67   104.64
          (Kelvin)            123.82   146.04   214.55   243.47   265.43
                              290.94   393.16   431.97   457.21   463.72
                              493.00   565.95   655.17   743.99   761.23
                              882.88   903.02   909.74   946.62   973.23
                             1020.93  1060.23  1091.32  1120.91  1131.95
                             1149.52  1202.14  1246.77  1298.42  1351.15
                             1361.05  1423.41  1438.94  1462.77  1478.76
                             1513.56  1605.80  1620.74  1657.30  1673.11
                             1675.81  1720.24  1783.47  1818.10  1838.31
                             1855.53  1866.64  1885.69  1933.81  1968.63
                             1989.74  2014.31  2024.03  2030.36  2047.92
                             2116.82  2167.24  2169.66  2186.77  2196.76
                             2248.87  2341.18  2447.63  2496.39  2650.91
                             4380.51  4387.63  4412.49  4435.70  4454.74
                             4480.57  4493.43  4674.96  4699.96  4986.39
                             5031.56  5110.08  5203.53  5295.80

 Zero-point correction=                           0.246412 (Hartree/Particle)
 Thermal correction to Energy=                    0.262363
 Thermal correction to Enthalpy=                  0.263308
 Thermal correction to Gibbs Free Energy=         0.199865
 Sum of electronic and zero-point Energies=           -795.892853
 Sum of electronic and thermal Energies=              -795.876902
 Sum of electronic and thermal Enthalpies=            -795.875957
 Sum of electronic and thermal Free Energies=         -795.939400

                     E (Thermal)             CV                S
                      KCal/Mol        Cal/Mol-Kelvin    Cal/Mol-Kelvin
 Total                  164.636             57.796            133.527
 Electronic               0.000              0.000              0.000
 Translational            0.889              2.981             42.150
 Rotational               0.889              2.981             32.891
 Vibrational            162.858             51.834             58.486
 Vibration     1          0.593              1.986              7.224
 Vibration     2          0.593              1.985              6.421
 Vibration     3          0.596              1.976              4.649
 Vibration     4          0.597              1.973              4.404
 Vibration     5          0.599              1.967              4.078
 Vibration     6          0.601              1.959              3.748
 Vibration     7          0.604              1.948              3.425
 Vibration     8          0.618              1.904              2.683
 Vibration     9          0.625              1.880              2.444
 Vibration    10          0.631              1.861              2.283
 Vibration    11          0.639              1.837              2.113
 Vibration    12          0.676              1.723              1.576
 Vibration    13          0.693              1.673              1.416
 Vibration    14          0.704              1.640              1.322
 Vibration    15          0.707              1.631              1.298
 Vibration    16          0.722              1.590              1.200
 Vibration    17          0.761              1.484              0.987
 Vibration    18          0.814              1.349              0.780
 Vibration    19          0.872              1.212              0.617
 Vibration    20          0.884              1.186              0.589
 Vibration    21          0.973              1.003              0.427

 Optimization completed.
    -- Stationary point found.
 Normal termination of Gaussian 09 at Tue Jul 27 02:16:48 2021.
