 Gaussian 09, Revision D.01,
 Gaussian 09:  ES64L-G09RevD.01 24-Apr-2013

 ----------------------------------------------------------------------
 # B3LYP/6-31G(d) EmpiricalDispersion=GD3BJ opt=calcfc freq=noraman nos
 ymm integral(ultrafinegrid)
 ----------------------------------------------------------------------

 ------------------------------------------------------------
 Candidate Structure: Conf:900 OPT and FREQ calc in gas phase
 ------------------------------------------------------------
 Symbolic Z-matrix:
 Charge =  0 Multiplicity = 1

 SCF Done:  E(RB3LYP) =  -796.139723501     A.U. after   14 cycles
 SCF Done:  E(RB3LYP) =  -796.141521143     A.U. after   13 cycles
 SCF Done:  E(RB3LYP) =  -796.141640428     A.U. after   14 cycles
 SCF Done:  E(RB3LYP) =  -796.140164804     A.U. after   13 cycles
 SCF Done:  E(RB3LYP) =  -796.141677885     A.U. after    9 cycles
 SCF Done:  E(RB3LYP) =  -796.141765753     A.U. after   11 cycles
 SCF Done:  E(RB3LYP) =  -796.141769519     A.U. after   10 cycles
 SCF Done:  E(RB3LYP) =  -796.141769874     A.U. after    8 cycles
 SCF Done:  E(RB3LYP) =  -796.141770037     A.U. after    7 cycles
 SCF Done:  E(RB3LYP) =  -796.141770249     A.U. after    8 cycles
 SCF Done:  E(RB3LYP) =  -796.141770688     A.U. after    9 cycles
 SCF Done:  E(RB3LYP) =  -796.141771293     A.U. after    9 cycles
 SCF Done:  E(RB3LYP) =  -796.141771335     A.U. after    7 cycles
 Optimization completed.
    -- Stationary point found.
 Normal termination of Gaussian 09 at Tue Jul 27 01:56:12 2021.

 --------------------------------------------------------------------
 #N Geom=AllCheck Guess=TCheck SCRF=Check GenChk RB3LYP/6-31G(d) Freq
 --------------------------------------------------------------------

 Structure from the checkpoint file:  "conf-900.chk"
 ------------------------------------------------------------
 Candidate Structure: Conf:900 OPT and FREQ calc in gas phase
 ------------------------------------------------------------
 Charge =  0 Multiplicity = 1

                          Input orientation:
 ---------------------------------------------------------------------
 Center     Atomic      Atomic             Coordinates (Angstroms)
 Number     Number       Type             X           Y           Z
 ---------------------------------------------------------------------
      1          8           0       -0.802416    0.537327   -1.120622
      2          6           0       -1.208600   -0.560845   -0.719898
      3          7           0       -0.423890   -1.413666   -0.022547
      4          6           0        0.969332   -1.142073    0.268387
      5          6           0        1.597796   -2.455708    0.691423
      6          8           0        2.931419   -2.345716    0.820615
      7          8           0        0.982645   -3.478355    0.911516
      8          6           0        1.175275   -0.040313    1.375441
      9          6           0        1.952688    1.136327    0.896943
     10          6           0        3.132581    1.717020    1.303246
     11          7           0        3.438844    2.808538    0.519509
     12          6           0        2.456243    2.885050   -0.357682
     13          7           0        1.529697    1.901734   -0.173268
     14          6           0       -2.624877   -1.048577   -0.993879
     15          6           0       -3.554718    0.091691   -1.405873
     16          7           0       -3.667767    1.062987   -0.314142
     17          1           0       -0.770398   -2.320548    0.268432
     18          1           0        1.470242   -0.804531   -0.644451
     19          1           0        3.259243   -3.214530    1.120693
     20          1           0        0.174317    0.253290    1.711983
     21          1           0        1.689051   -0.465115    2.242330
     22          1           0        3.775488    1.408051    2.117177
     23          1           0        2.366328    3.626112   -1.140594
     24          1           0        0.691170    1.687181   -0.710681
     25          1           0       -3.018888   -1.540039   -0.096968
     26          1           0       -2.575976   -1.804186   -1.790226
     27          1           0       -4.547832   -0.329134   -1.597836
     28          1           0       -3.190041    0.520218   -2.352956
     29          1           0       -2.800860    1.596961   -0.278943
     30          1           0       -4.405960    1.731140   -0.527000
 ---------------------------------------------------------------------

 SCF Done:  E(RB3LYP) =  -796.141771334     A.U. after    1 cycles

 Alpha  occ. eigenvalues --  -19.22398 -19.17001 -19.13925 -14.37961 -14.36561
 Alpha  occ. eigenvalues --  -14.31114 -14.29429 -10.34917 -10.30862 -10.26159
 Alpha  occ. eigenvalues --  -10.22219 -10.21525 -10.21344 -10.20509 -10.20461
 Alpha  occ. eigenvalues --  -10.18209  -1.13538  -1.05568  -1.04529  -0.99341
 Alpha  occ. eigenvalues --   -0.94744  -0.88193  -0.85149  -0.80946  -0.76473
 Alpha  occ. eigenvalues --   -0.73730  -0.67884  -0.65615  -0.61147  -0.60392
 Alpha  occ. eigenvalues --   -0.59401  -0.57196  -0.53678  -0.52781  -0.51256
 Alpha  occ. eigenvalues --   -0.50531  -0.49078  -0.48289  -0.47667  -0.47039
 Alpha  occ. eigenvalues --   -0.44757  -0.43513  -0.42786  -0.42204  -0.41194
 Alpha  occ. eigenvalues --   -0.39492  -0.39177  -0.38954  -0.38684  -0.37921
 Alpha  occ. eigenvalues --   -0.36836  -0.36218  -0.34602  -0.30799  -0.28014
 Alpha  occ. eigenvalues --   -0.27719  -0.26064  -0.24877  -0.23748  -0.20957
 Alpha virt. eigenvalues --   -0.01916   0.00575   0.03996   0.05294   0.07747
 Alpha virt. eigenvalues --    0.08097   0.09202   0.11351   0.11463   0.12631
 Alpha virt. eigenvalues --    0.13116   0.14472   0.15013   0.15745   0.16815

 Mulliken charges:
               1
     1  O   -0.557293
     2  C    0.638114
     3  N   -0.617900
     4  C   -0.009891
     5  C    0.559030
     6  O   -0.552680
     7  O   -0.468445
     8  C   -0.364519
     9  C    0.305017
    10  C   -0.079224
    11  N   -0.433388
    12  C    0.201605
    13  N   -0.613407
    14  C   -0.360622
    15  C   -0.130997
    16  N   -0.729148
    17  H    0.355842
    18  H    0.206359
    19  H    0.421217
    20  H    0.181244
    21  H    0.174960
    22  H    0.123304
    23  H    0.148251
    24  H    0.377336
    25  H    0.169621
    26  H    0.167680
    27  H    0.140019
    28  H    0.136767
    29  H    0.313091
    30  H    0.298056
 Sum of Mulliken charges =   0.00000

 Dipole moment (field-independent basis, Debye):
    X=             -2.6715    Y=             -3.6914    Z=             -1.0644  Tot=              4.6794
 Quadrupole moment (field-independent basis, Debye-Ang):
   XX=            -98.4387   YY=            -96.3029   ZZ=            -90.0821
   XY=            -18.2185   XZ=              5.6766   YZ=             -4.9824

  Exact polarizability: 139.608  13.321 134.425  20.206 -15.002  95.780
 Approx polarizability: 190.615  27.186 197.244  21.815 -29.694 150.502

 ******    1 imaginary frequencies (negative Signs) ******

                      1                      2                      3
                      A                      A                      A
 Frequencies --     -5.4383                33.0314                53.5809
 Red. masses --      3.6705                 6.3320                 4.5248
 Frc consts  --      0.0001                 0.0041                 0.0077
 IR Inten    --      1.1441                 1.1955                 0.9751

                      4                      5                      6
                      A                      A                      A
 Frequencies --     59.2144                78.4587                83.7570
 Red. masses --      9.0314                 5.2218                 6.0325
 Frc consts  --      0.0187                 0.0189                 0.0249
 IR Inten    --      1.3027                 0.6075                 5.4411

                      7                      8                      9
                      A                      A                      A
 Frequencies --    115.5432               136.1530               148.1795
 Red. masses --      4.1153                 5.1194                 4.2366
 Frc consts  --      0.0324                 0.0559                 0.0548
 IR Inten    --      1.8644                 3.6074                 4.2284

                     10                     11                     12
                      A                      A                      A
 Frequencies --    193.7574               250.2381               293.2235
 Red. masses --      4.6145                 2.6778                 5.8747
 Frc consts  --      0.1021                 0.0988                 0.2976
 IR Inten    --      2.6387                29.7578                 2.0901

                     13                     14                     15
                      A                      A                      A
 Frequencies --    294.9013               320.3394               326.2466
 Red. masses --      2.4348                 1.7136                 2.1152
 Frc consts  --      0.1248                 0.1036                 0.1326
 IR Inten    --     14.6067                35.0848                21.3629

                     16                     17                     18
                      A                      A                      A
 Frequencies --    352.4624               405.8636               436.5640
 Red. masses --      4.8740                 3.6557                 2.6782
 Frc consts  --      0.3567                 0.3548                 0.3007
 IR Inten    --      4.1207                 9.2435                31.5423

                     19                     20                     21
                      A                      A                      A
 Frequencies --    530.5825               565.8735               602.9409
 Red. masses --      1.5817                 3.1826                 1.7795
 Frc consts  --      0.2624                 0.6004                 0.3812
 IR Inten    --     67.9957                36.9314                59.4728

                     22                     23                     24
                      A                      A                      A
 Frequencies --    630.3321               636.4251               647.2030
 Red. masses --      2.5028                 2.6203                 2.6106
 Frc consts  --      0.5859                 0.6253                 0.6443
 IR Inten    --     36.6384                12.1153                 0.0838

                     25                     26                     27
                      A                      A                      A
 Frequencies --    676.7335               682.6580               721.9273
 Red. masses --      3.6800                 3.0603                 3.0707
 Frc consts  --      0.9930                 0.8403                 0.9429
 IR Inten    --     43.3610                 5.9612                36.4885

                     28                     29                     30
                      A                      A                      A
 Frequencies --    769.7266               774.7651               801.9352
 Red. masses --      1.0944                 4.0566                 1.4262
 Frc consts  --      0.3820                 1.4347                 0.5404
 IR Inten    --     25.1015                18.2792                21.9238

                     31                     32                     33
                      A                      A                      A
 Frequencies --    837.3334               863.0491               887.9541
 Red. masses --      1.3169                 2.7689                 2.1222
 Frc consts  --      0.5440                 1.2152                 0.9859
 IR Inten    --     27.2613                 8.9590                51.8498

                     34                     35                     36
                      A                      A                      A
 Frequencies --    900.4238               922.0822               946.1375
 Red. masses --      1.8644                 1.6431                 5.9325
 Frc consts  --      0.8906                 0.8231                 3.1289
 IR Inten    --     15.0202                63.4701                19.5997

                     37                     38                     39
                      A                      A                      A
 Frequencies --    964.9300               989.2715              1027.6450
 Red. masses --      2.6860                 3.8817                 2.8994
 Frc consts  --      1.4735                 2.2382                 1.8040
 IR Inten    --     10.6176                 7.3358                23.8055

                     40                     41                     42
                      A                      A                      A
 Frequencies --   1032.7463              1075.3586              1116.8718
 Red. masses --      3.5811                 2.4065                 2.7115
 Frc consts  --      2.2504                 1.6396                 1.9928
 IR Inten    --      0.7256                20.5175                29.0070

                     43                     44                     45
                      A                      A                      A
 Frequencies --   1141.1455              1145.6940              1158.7051
 Red. masses --      1.7605                 1.8343                 1.8897
 Frc consts  --      1.3507                 1.4186                 1.4948
 IR Inten    --     26.7759                44.7344                 2.4499

                     46                     47                     48
                      A                      A                      A
 Frequencies --   1186.0481              1201.5427              1219.8551
 Red. masses --      1.5966                 2.1149                 1.3246
 Frc consts  --      1.3232                 1.7990                 1.1614
 IR Inten    --    100.2297               103.3100                 7.0285

                     49                     50                     51
                      A                      A                      A
 Frequencies --   1248.8070              1269.5693              1277.2403
 Red. masses --      1.2584                 1.5099                 2.1305
 Frc consts  --      1.1563                 1.4339                 2.0478
 IR Inten    --      8.5988                20.7810                 4.2333

                     52                     53                     54
                      A                      A                      A
 Frequencies --   1290.1525              1305.0004              1342.5044
 Red. masses --      1.4621                 1.3379                 1.3819
 Frc consts  --      1.4339                 1.3424                 1.4675
 IR Inten    --      8.4940                18.7905                 0.2839

                     55                     56                     57
                      A                      A                      A
 Frequencies --   1367.8609              1377.2036              1398.0677
 Red. masses --      1.2457                 1.4328                 1.5804
 Frc consts  --      1.3733                 1.6012                 1.8201
 IR Inten    --      4.1114                33.2374                38.2934

                     58                     59                     60
                      A                      A                      A
 Frequencies --   1400.6668              1439.1157              1446.7246
 Red. masses --      3.7007                 2.4387                 1.4570
 Frc consts  --      4.2777                 2.9758                 1.7967
 IR Inten    --     11.6999                85.8050                24.6966

                     61                     62                     63
                      A                      A                      A
 Frequencies --   1460.3063              1478.9834              1504.8614
 Red. masses --      2.5007                 1.1123                 1.1622
 Frc consts  --      3.1419                 1.4335                 1.5507
 IR Inten    --     76.2125                15.4860                13.0520

                     64                     65                     66
                      A                      A                      A
 Frequencies --   1519.7317              1530.0725              1564.1289
 Red. masses --      3.1841                 1.0877                 2.4738
 Frc consts  --      4.3328                 1.5004                 3.5658
 IR Inten    --     23.0839                 1.6011               324.1979

                     67                     68                     69
                      A                      A                      A
 Frequencies --   1630.2581              1691.6025              1743.2638
 Red. masses --      4.3268                 1.2041                 4.8903
 Frc consts  --      6.7753                 2.0301                 8.7561
 IR Inten    --     16.3702               107.6417               140.0786

                     70                     71                     72
                      A                      A                      A
 Frequencies --   1836.0240              2999.8729              3045.1775
 Red. masses --      9.6678                 1.0710                 1.0633
 Frc consts  --     19.2016                 5.6788                 5.8096
 IR Inten    --    269.2876                57.3311                13.0526

                     73                     74                     75
                      A                      A                      A
 Frequencies --   3061.5059              3087.0150              3089.3372
 Red. masses --      1.0652                 1.0921                 1.0841
 Frc consts  --      5.8823                 6.1316                 6.0963
 IR Inten    --     18.2727                37.8495                 8.8298

                     76                     77                     78
                      A                      A                      A
 Frequencies --   3098.6704              3117.5414              3252.1824
 Red. masses --      1.0992                 1.0991                 1.0960
 Frc consts  --      6.2183                 6.2940                 6.8296
 IR Inten    --     20.6702                10.5075                11.7798

                     79                     80                     81
                      A                      A                      A
 Frequencies --   3264.6343              3476.0027              3510.4083
 Red. masses --      1.0973                 1.0499                 1.0840
 Frc consts  --      6.8903                 7.4742                 7.8706
 IR Inten    --      3.6586                 5.0200               401.9959

                     82                     83                     84
                      A                      A                      A
 Frequencies --   3559.9986              3586.4654              3687.7101
 Red. masses --      1.0921                 1.0777                 1.0641
 Frc consts  --      8.1549                 8.1673                 8.5264
 IR Inten    --      0.6575                82.1423                72.9954

 - Thermochemistry -
 -------------------
 Temperature   298.150 Kelvin.  Pressure   1.00000 Atm.
 Atom     1 has atomic number  8 and mass  15.99491

 Molecular mass:   226.10659 amu.
 Principal axes and moments of inertia in atomic units:
                           1         2         3
     Eigenvalues --  3047.197554817.566097388.32714
           X            0.94370  -0.14764  -0.29601
           Y            0.19416   0.97173   0.13430
           Z            0.26782  -0.18421   0.94569
 This molecule is an asymmetric top.
 Rotational symmetry number  1.
 Warning -- assumption of classical behavior for rotation
           may cause significant error
 Rotational temperatures (Kelvin)      0.02842     0.01798     0.01172
 Rotational constants (GHZ):           0.59226     0.37462     0.24427
    1 imaginary frequencies ignored.
 Zero-point vibrational energy     647168.2 (Joules/Mol)
                                  154.67692 (Kcal/Mol)
 Warning -- explicit consideration of  20 degrees of freedom as
           vibrations may cause significant error
 Vibrational temperatures:     47.52    77.09    85.20   112.88   120.51
          (Kelvin)            166.24   195.89   213.20   278.77   360.04
                              421.88   424.30   460.90   469.40   507.11
                              583.95   628.12   763.39   814.16   867.50
                              906.91   915.67   931.18   973.67   982.19
                             1038.69  1107.46  1114.71  1153.80  1204.73
                             1241.73  1277.57  1295.51  1326.67  1361.28
                             1388.32  1423.34  1478.55  1485.89  1547.20
                             1606.93  1641.85  1648.40  1667.12  1706.46
                             1728.75  1755.10  1796.75  1826.62  1837.66
                             1856.24  1877.60  1931.56  1968.04  1981.49
                             2011.51  2015.24  2070.56  2081.51  2101.05
                             2127.92  2165.16  2186.55  2201.43  2250.43
                             2345.57  2433.84  2508.16  2641.63  4316.14
                             4381.33  4404.82  4441.52  4444.86  4458.29
                             4485.44  4679.16  4697.07  5001.19  5050.69
                             5122.04  5160.12  5305.79

 Zero-point correction=                           0.246493 (Hartree/Particle)
 Thermal correction to Energy=                    0.261390
 Thermal correction to Enthalpy=                  0.262335
 Thermal correction to Gibbs Free Energy=         0.202880
 Sum of electronic and zero-point Energies=           -795.895278
 Sum of electronic and thermal Energies=              -795.880381
 Sum of electronic and thermal Enthalpies=            -795.879437
 Sum of electronic and thermal Free Energies=         -795.938892

                     E (Thermal)             CV                S
                      KCal/Mol        Cal/Mol-Kelvin    Cal/Mol-Kelvin
 Total                  164.025             55.569            125.133
 Electronic               0.000              0.000              0.000
 Translational            0.889              2.981             42.150
 Rotational               0.889              2.981             33.050
 Vibrational            162.248             49.608             49.933
 Vibration     1          0.594              1.983              5.639
 Vibration     2          0.596              1.976              4.681
 Vibration     3          0.597              1.974              4.483
 Vibration     4          0.600              1.964              3.929
 Vibration     5          0.601              1.960              3.801
 Vibration     6          0.608              1.937              3.174
 Vibration     7          0.614              1.917              2.857
 Vibration     8          0.618              1.905              2.695
 Vibration     9          0.635              1.849              2.192
 Vibration    10          0.663              1.762              1.729
 Vibration    11          0.688              1.686              1.455
 Vibration    12          0.689              1.683              1.446
 Vibration    13          0.706              1.635              1.308
 Vibration    14          0.710              1.623              1.279
 Vibration    15          0.729              1.570              1.155
 Vibration    16          0.771              1.457              0.941
 Vibration    17          0.797              1.391              0.837
 Vibration    18          0.886              1.182              0.586
 Vibration    19          0.922              1.105              0.512
 Vibration    20          0.961              1.026              0.445

 Optimization completed on the basis of negligible forces.
    -- Stationary point found.
 Normal termination of Gaussian 09 at Tue Jul 27 02:11:50 2021.
