 Gaussian 09, Revision D.01,
 Gaussian 09:  ES64L-G09RevD.01 24-Apr-2013

 ----------------------------------------------------------------------
 # B3LYP/6-31G(d) EmpiricalDispersion=GD3BJ opt=calcfc freq=noraman nos
 ymm integral(ultrafinegrid)
 ----------------------------------------------------------------------

 ------------------------------------------------------------
 Candidate Structure: Conf:801 OPT and FREQ calc in gas phase
 ------------------------------------------------------------
 Symbolic Z-matrix:
 Charge =  0 Multiplicity = 1

 SCF Done:  E(RB3LYP) =  -796.125039035     A.U. after   14 cycles
 SCF Done:  E(RB3LYP) =  -796.128429896     A.U. after   15 cycles
 SCF Done:  E(RB3LYP) =  -796.104201839     A.U. after   15 cycles
 SCF Done:  E(RB3LYP) =  -796.128439301     A.U. after    8 cycles
 SCF Done:  E(RB3LYP) =  -796.128920963     A.U. after   14 cycles
 SCF Done:  E(RB3LYP) =  -796.095381353     A.U. after   15 cycles
 SCF Done:  E(RB3LYP) =  -796.128927416     A.U. after    8 cycles
 SCF Done:  E(RB3LYP) =  -796.129486369     A.U. after   12 cycles
 SCF Done:  E(RB3LYP) =  -796.129598064     A.U. after   12 cycles
 SCF Done:  E(RB3LYP) =  -796.129693974     A.U. after   11 cycles
 SCF Done:  E(RB3LYP) =  -796.129776278     A.U. after   11 cycles
 SCF Done:  E(RB3LYP) =  -796.129816505     A.U. after   11 cycles
 SCF Done:  E(RB3LYP) =  -796.129845351     A.U. after   11 cycles
 SCF Done:  E(RB3LYP) =  -796.129860572     A.U. after   10 cycles
 SCF Done:  E(RB3LYP) =  -796.129868561     A.U. after   11 cycles
 SCF Done:  E(RB3LYP) =  -796.129869100     A.U. after    9 cycles
 SCF Done:  E(RB3LYP) =  -796.129869148     A.U. after    7 cycles
 SCF Done:  E(RB3LYP) =  -796.129869160     A.U. after    7 cycles
 Optimization completed.
    -- Stationary point found.
 Normal termination of Gaussian 09 at Tue Jul 27 02:01:06 2021.

 --------------------------------------------------------------------
 #N Geom=AllCheck Guess=TCheck SCRF=Check GenChk RB3LYP/6-31G(d) Freq
 --------------------------------------------------------------------

 Structure from the checkpoint file:  "conf-801.chk"
 ------------------------------------------------------------
 Candidate Structure: Conf:801 OPT and FREQ calc in gas phase
 ------------------------------------------------------------
 Charge =  0 Multiplicity = 1

                          Input orientation:
 ---------------------------------------------------------------------
 Center     Atomic      Atomic             Coordinates (Angstroms)
 Number     Number       Type             X           Y           Z
 ---------------------------------------------------------------------
      1          8           0        1.495744    0.910568   -1.051144
      2          6           0        1.763789    0.265813   -0.039577
      3          7           0        0.800620   -0.088155    0.859206
      4          6           0       -0.552052    0.399105    0.734317
      5          6           0       -1.229370    0.245140    2.099225
      6          8           0       -2.439614    0.813195    2.229152
      7          8           0       -0.720779   -0.362399    3.014355
      8          6           0       -1.321601   -0.354266   -0.391274
      9          6           0       -2.710903    0.157620   -0.599205
     10          6           0       -3.202149    1.395465   -0.967653
     11          7           0       -4.582799    1.408069   -0.945815
     12          6           0       -4.934587    0.198753   -0.568195
     13          7           0       -3.843246   -0.594793   -0.341909
     14          6           0        3.176179   -0.181138    0.303028
     15          6           0        3.982243   -0.520070   -0.950794
     16          7           0        5.378795   -0.778420   -0.590806
     17          1           0        1.025858   -0.535339    1.740063
     18          1           0       -0.528513    1.461252    0.457817
     19          1           0       -2.718675    1.212574    1.379193
     20          1           0       -1.333874   -1.423067   -0.149328
     21          1           0       -0.721234   -0.227169   -1.296143
     22          1           0       -2.635880    2.265990   -1.271998
     23          1           0       -5.947275   -0.158038   -0.440076
     24          1           0       -3.851215   -1.551547   -0.017450
     25          1           0        3.153131   -1.033258    0.995294
     26          1           0        3.682426    0.639123    0.827816
     27          1           0        3.947145    0.344271   -1.619362
     28          1           0        3.487181   -1.350776   -1.484842
     29          1           0        5.447353   -1.661192   -0.085421
     30          1           0        5.933070   -0.897411   -1.436761
 ---------------------------------------------------------------------

 SCF Done:  E(RB3LYP) =  -796.129869160     A.U. after    1 cycles

 Alpha  occ. eigenvalues --  -19.20514 -19.15196 -19.11847 -14.41037 -14.36711
 Alpha  occ. eigenvalues --  -14.32784 -14.31550 -10.33492 -10.29259 -10.25916
 Alpha  occ. eigenvalues --  -10.25550 -10.24185 -10.22338 -10.21457 -10.21034
 Alpha  occ. eigenvalues --  -10.19565  -1.11491  -1.04012  -1.03362  -1.02944
 Alpha  occ. eigenvalues --   -0.93491  -0.88671  -0.88269  -0.81703  -0.76800
 Alpha  occ. eigenvalues --   -0.73929  -0.68651  -0.63637  -0.63171  -0.61794
 Alpha  occ. eigenvalues --   -0.60762  -0.58996  -0.56369  -0.54305  -0.50313
 Alpha  occ. eigenvalues --   -0.49927  -0.48343  -0.48054  -0.46624  -0.45893
 Alpha  occ. eigenvalues --   -0.45123  -0.44025  -0.43087  -0.42291  -0.42261
 Alpha  occ. eigenvalues --   -0.41877  -0.41129  -0.39237  -0.38798  -0.38436
 Alpha  occ. eigenvalues --   -0.35286  -0.34669  -0.32981  -0.29814  -0.29083
 Alpha  occ. eigenvalues --   -0.28043  -0.26861  -0.25620  -0.24090  -0.23785
 Alpha virt. eigenvalues --   -0.01040   0.01153   0.02076   0.04088   0.05768
 Alpha virt. eigenvalues --    0.07735   0.08826   0.09040   0.10855   0.11457
 Alpha virt. eigenvalues --    0.13078   0.13729   0.14287   0.15230   0.16022

 Mulliken charges:
               1
     1  O   -0.533915
     2  C    0.621893
     3  N   -0.623283
     4  C   -0.065342
     5  C    0.599770
     6  O   -0.573094
     7  O   -0.459181
     8  C   -0.339792
     9  C    0.258890
    10  C   -0.104067
    11  N   -0.410608
    12  C    0.208068
    13  N   -0.583929
    14  C   -0.356058
    15  C   -0.138145
    16  N   -0.718002
    17  H    0.351955
    18  H    0.188404
    19  H    0.433382
    20  H    0.152197
    21  H    0.216889
    22  H    0.155108
    23  H    0.167601
    24  H    0.340267
    25  H    0.136173
    26  H    0.189146
    27  H    0.174447
    28  H    0.119066
    29  H    0.291605
    30  H    0.300553
 Sum of Mulliken charges =   0.00000

 Dipole moment (field-independent basis, Debye):
    X=             -0.0084    Y=             -4.4526    Z=             -0.9028  Tot=              4.5432
 Quadrupole moment (field-independent basis, Debye-Ang):
   XX=            -90.7515   YY=            -89.1784   ZZ=           -108.1317
   XY=              5.1730   XZ=             -1.6775   YZ=              5.1559

  Exact polarizability: 167.721 -10.391 100.750   0.765 -13.469 102.033
 Approx polarizability: 205.722 -13.182 174.322   4.059 -34.881 161.019

                      1                      2                      3
                      A                      A                      A
 Frequencies --     16.0089                27.9168                46.8476
 Red. masses --      3.5956                 5.0231                 5.0091
 Frc consts  --      0.0005                 0.0023                 0.0065
 IR Inten    --      0.2895                 1.5985                 1.7549

                      4                      5                      6
                      A                      A                      A
 Frequencies --     53.1041                76.1217                82.2898
 Red. masses --      2.3000                 6.1246                 4.9840
 Frc consts  --      0.0038                 0.0209                 0.0199
 IR Inten    --      5.7462                10.1119                 5.1312

                      7                      8                      9
                      A                      A                      A
 Frequencies --     93.9195               102.2520               157.0576
 Red. masses --      4.6469                 7.5062                 4.0734
 Frc consts  --      0.0242                 0.0462                 0.0592
 IR Inten    --      1.0189                 2.7352                 7.8211

                     10                     11                     12
                      A                      A                      A
 Frequencies --    187.8783               215.6869               265.8487
 Red. masses --      4.7394                 4.8722                 1.2578
 Frc consts  --      0.0986                 0.1335                 0.0524
 IR Inten    --      9.0937                13.8104                50.5168

                     13                     14                     15
                      A                      A                      A
 Frequencies --    284.2404               326.2948               333.3053
 Red. masses --      4.5635                 6.3401                 2.4723
 Frc consts  --      0.2172                 0.3977                 0.1618
 IR Inten    --      6.1975                 2.3962                 3.6385

                     16                     17                     18
                      A                      A                      A
 Frequencies --    348.2849               391.9145               402.2728
 Red. masses --      5.7365                 4.3608                 3.9925
 Frc consts  --      0.4100                 0.3946                 0.3807
 IR Inten    --      8.9462                16.7799                 4.3543

                     19                     20                     21
                      A                      A                      A
 Frequencies --    526.8203               533.6167               558.5706
 Red. masses --      1.6928                 1.3889                 2.3597
 Frc consts  --      0.2768                 0.2330                 0.4338
 IR Inten    --     82.4599                67.0868                27.7072

                     22                     23                     24
                      A                      A                      A
 Frequencies --    621.6538               645.3310               657.5313
 Red. masses --      3.6112                 2.3236                 1.4512
 Frc consts  --      0.8222                 0.5701                 0.3697
 IR Inten    --     39.9179                 8.5625                51.2267

                     25                     26                     27
                      A                      A                      A
 Frequencies --    672.9407               683.4284               733.0394
 Red. masses --      2.9863                 3.1203                 2.9202
 Frc consts  --      0.7968                 0.8587                 0.9245
 IR Inten    --     13.3570                16.1654                14.8536

                     28                     29                     30
                      A                      A                      A
 Frequencies --    750.5348               768.9839               805.9253
 Red. masses --      3.6587                 3.7658                 1.4315
 Frc consts  --      1.2143                 1.3120                 0.5478
 IR Inten    --     11.5462                 8.7544                 6.6729

                     31                     32                     33
                      A                      A                      A
 Frequencies --    809.1039               831.2067               850.2966
 Red. masses --      1.4059                 2.2733                 1.4473
 Frc consts  --      0.5423                 0.9254                 0.6165
 IR Inten    --     23.0825                 3.4073                29.9738

                     34                     35                     36
                      A                      A                      A
 Frequencies --    883.5843               941.4928               959.6013
 Red. masses --      1.3185                 5.9384                 3.1197
 Frc consts  --      0.6065                 3.1014                 1.6926
 IR Inten    --    131.3346                12.9031                24.7046

                     37                     38                     39
                      A                      A                      A
 Frequencies --    994.2536              1017.3334              1034.6722
 Red. masses --      2.1792                 3.2491                 3.4750
 Frc consts  --      1.2692                 1.9813                 2.1918
 IR Inten    --      3.9899                 5.2186                 8.1499

                     40                     41                     42
                      A                      A                      A
 Frequencies --   1045.0458              1076.1688              1111.0843
 Red. masses --      3.5161                 2.7600                 1.9472
 Frc consts  --      2.2625                 1.8833                 1.4163
 IR Inten    --      7.7022                24.7512                17.1600

                     43                     44                     45
                      A                      A                      A
 Frequencies --   1122.2366              1141.8039              1152.7166
 Red. masses --      1.6020                 2.0903                 2.2143
 Frc consts  --      1.1887                 1.6056                 1.7335
 IR Inten    --     14.3287                13.9207                10.0163

                     46                     47                     48
                      A                      A                      A
 Frequencies --   1172.3537              1186.1619              1225.7297
 Red. masses --      1.3535                 1.8700                 1.8536
 Frc consts  --      1.0960                 1.5502                 1.6408
 IR Inten    --      5.7834                13.1349                34.5238

                     49                     50                     51
                      A                      A                      A
 Frequencies --   1240.1082              1267.3384              1278.3538
 Red. masses --      1.7063                 1.9239                 1.4420
 Frc consts  --      1.5460                 1.8206                 1.3884
 IR Inten    --     13.2564                19.8809                 7.9465

                     52                     53                     54
                      A                      A                      A
 Frequencies --   1289.8575              1321.8300              1339.0529
 Red. masses --      1.4478                 1.4638                 1.3634
 Frc consts  --      1.4192                 1.5069                 1.4403
 IR Inten    --      1.4022                10.4493                50.1223

                     55                     56                     57
                      A                      A                      A
 Frequencies --   1351.0848              1376.7485              1379.6373
 Red. masses --      1.1215                 1.3834                 1.5417
 Frc consts  --      1.2062                 1.5450                 1.7289
 IR Inten    --     20.4115                59.2173               125.8960

                     58                     59                     60
                      A                      A                      A
 Frequencies --   1411.9349              1423.7750              1445.4298
 Red. masses --      2.5707                 2.0455                 3.2031
 Frc consts  --      3.0194                 2.4431                 3.9428
 IR Inten    --     22.0593               156.5471                15.6131

                     61                     62                     63
                      A                      A                      A
 Frequencies --   1448.5406              1498.5706              1506.8783
 Red. masses --      1.5555                 1.0947                 3.6502
 Frc consts  --      1.9230                 1.4485                 4.8834
 IR Inten    --     52.6045                 6.5444                20.2780

                     64                     65                     66
                      A                      A                      A
 Frequencies --   1515.5866              1542.1300              1544.4485
 Red. masses --      1.1675                 2.3219                 1.0855
 Frc consts  --      1.5800                 3.2534                 1.5256
 IR Inten    --     13.7139               338.7614                 0.3638

                     67                     68                     69
                      A                      A                      A
 Frequencies --   1612.5118              1699.9043              1762.3716
 Red. masses --      4.1126                 1.0899                 9.6374
 Frc consts  --      6.3005                 1.8557                17.6363
 IR Inten    --     12.0466                22.3937               194.2510

                     70                     71                     72
                      A                      A                      A
 Frequencies --   1857.3275              2962.7475              3042.7518
 Red. masses --      9.3728                 1.0745                 1.0615
 Frc consts  --     19.0500                 5.5571                 5.7903
 IR Inten    --    257.6302                77.5632                18.0385

                     73                     74                     75
                      A                      A                      A
 Frequencies --   3051.0382              3070.9045              3084.5455
 Red. masses --      1.0814                 1.0650                 1.0987
 Frc consts  --      5.9313                 5.9175                 6.1591
 IR Inten    --      7.5536                19.1855                10.1625

                     76                     77                     78
                      A                      A                      A
 Frequencies --   3120.5558              3127.2039              3257.0919
 Red. masses --      1.0901                 1.1016                 1.0961
 Frc consts  --      6.2542                 6.3474                 6.8513
 IR Inten    --     18.8132                 2.3614                 3.9002

                     79                     80                     81
                      A                      A                      A
 Frequencies --   3273.9709              3463.2016              3548.8169
 Red. masses --      1.0979                 1.0503                 1.0917
 Frc consts  --      6.9338                 7.4223                 8.1010
 IR Inten    --      1.2962                 2.6741                 0.4673

                     82                     83                     84
                      A                      A                      A
 Frequencies --   3576.3966              3590.0603              3643.1729
 Red. masses --      1.0666                 1.0776                 1.0811
 Frc consts  --      8.0382                 8.1828                 8.4546
 IR Inten    --    231.9888               104.2698                47.4221

 - Thermochemistry -
 -------------------
 Temperature   298.150 Kelvin.  Pressure   1.00000 Atm.
 Atom     1 has atomic number  8 and mass  15.99491

 Molecular mass:   226.10659 amu.
 Principal axes and moments of inertia in atomic units:
                           1         2         3
     Eigenvalues --  1642.242697840.648048865.54075
           X            0.99322   0.02334   0.11390
           Y           -0.11082  -0.10630   0.98814
           Z           -0.03517   0.99406   0.10300
 This molecule is an asymmetric top.
 Rotational symmetry number  1.
 Warning -- assumption of classical behavior for rotation
           may cause significant error
 Rotational temperatures (Kelvin)      0.05274     0.01105     0.00977
 Rotational constants (GHZ):           1.09895     0.23018     0.20357
 Zero-point vibrational energy     645088.3 (Joules/Mol)
                                  154.17981 (Kcal/Mol)
 Warning -- explicit consideration of  21 degrees of freedom as
           vibrations may cause significant error
 Vibrational temperatures:     23.03    40.17    67.40    76.40   109.52
          (Kelvin)            118.40   135.13   147.12   225.97   270.31
                              310.32   382.50   408.96   469.46   479.55
                              501.10   563.88   578.78   757.98   767.75
                              803.66   894.42   928.49   946.04   968.21
                              983.30  1054.68  1079.85  1106.39  1159.55
                             1164.12  1195.92  1223.39  1271.28  1354.60
                             1380.65  1430.51  1463.71  1488.66  1503.59
                             1548.36  1598.60  1614.65  1642.80  1658.50
                             1686.75  1706.62  1763.55  1784.24  1823.42
                             1839.26  1855.81  1901.82  1926.60  1943.91
                             1980.83  1984.99  2031.46  2048.49  2079.65
                             2084.12  2156.11  2168.06  2180.59  2218.78
                             2222.11  2320.04  2445.78  2535.66  2672.28
                             4262.73  4377.84  4389.76  4418.34  4437.97
                             4489.78  4499.34  4686.22  4710.51  4982.77
                             5105.95  5145.63  5165.29  5241.71

 Zero-point correction=                           0.245701 (Hartree/Particle)
 Thermal correction to Energy=                    0.261849
 Thermal correction to Enthalpy=                  0.262794
 Thermal correction to Gibbs Free Energy=         0.198702
 Sum of electronic and zero-point Energies=           -795.884168
 Sum of electronic and thermal Energies=              -795.868020
 Sum of electronic and thermal Enthalpies=            -795.867076
 Sum of electronic and thermal Free Energies=         -795.931167

                     E (Thermal)             CV                S
                      KCal/Mol        Cal/Mol-Kelvin    Cal/Mol-Kelvin
 Total                  164.313             58.098            134.893
 Electronic               0.000              0.000              0.000
 Translational            0.889              2.981             42.150
 Rotational               0.889              2.981             33.101
 Vibrational            162.536             52.137             59.642
 Vibration     1          0.593              1.986              7.076
 Vibration     2          0.593              1.984              5.972
 Vibration     3          0.595              1.979              4.946
 Vibration     4          0.596              1.976              4.698
 Vibration     5          0.599              1.965              3.988
 Vibration     6          0.600              1.961              3.836
 Vibration     7          0.603              1.954              3.577
 Vibration     8          0.604              1.947              3.411
 Vibration     9          0.621              1.895              2.585
 Vibration    10          0.633              1.857              2.249
 Vibration    11          0.645              1.817              1.995
 Vibration    12          0.672              1.736              1.623
 Vibration    13          0.683              1.703              1.508
 Vibration    14          0.710              1.623              1.278
 Vibration    15          0.715              1.609              1.244
 Vibration    16          0.726              1.579              1.174
 Vibration    17          0.759              1.487              0.993
 Vibration    18          0.768              1.465              0.954
 Vibration    19          0.882              1.191              0.594
 Vibration    20          0.889              1.176              0.579
 Vibration    21          0.914              1.121              0.527

 Optimization completed.
    -- Stationary point found.
 Normal termination of Gaussian 09 at Tue Jul 27 02:15:41 2021.
