 Gaussian 09, Revision D.01,
 Gaussian 09:  ES64L-G09RevD.01 24-Apr-2013

 ----------------------------------------------------------------------
 # B3LYP/6-31G(d) EmpiricalDispersion=GD3BJ opt=calcfc freq=noraman nos
 ymm integral(ultrafinegrid)
 ----------------------------------------------------------------------

 ------------------------------------------------------------
 Candidate Structure: Conf:599 OPT and FREQ calc in gas phase
 ------------------------------------------------------------
 Symbolic Z-matrix:
 Charge =  0 Multiplicity = 1

 SCF Done:  E(RB3LYP) =  -796.127776522     A.U. after   15 cycles
 SCF Done:  E(RB3LYP) =  -796.129841570     A.U. after   15 cycles
 SCF Done:  E(RB3LYP) =  -796.126715235     A.U. after   15 cycles
 SCF Done:  E(RB3LYP) =  -796.130030231     A.U. after   11 cycles
 SCF Done:  E(RB3LYP) =  -796.130195894     A.U. after   12 cycles
 SCF Done:  E(RB3LYP) =  -796.130213172     A.U. after   11 cycles
 SCF Done:  E(RB3LYP) =  -796.130215454     A.U. after   10 cycles
 SCF Done:  E(RB3LYP) =  -796.130215644     A.U. after    8 cycles
 Optimization completed.
    -- Stationary point found.
 Normal termination of Gaussian 09 at Tue Jul 27 01:50:26 2021.

 --------------------------------------------------------------------
 #N Geom=AllCheck Guess=TCheck SCRF=Check GenChk RB3LYP/6-31G(d) Freq
 --------------------------------------------------------------------

 Structure from the checkpoint file:  "conf-599.chk"
 ------------------------------------------------------------
 Candidate Structure: Conf:599 OPT and FREQ calc in gas phase
 ------------------------------------------------------------
 Charge =  0 Multiplicity = 1

                          Input orientation:
 ---------------------------------------------------------------------
 Center     Atomic      Atomic             Coordinates (Angstroms)
 Number     Number       Type             X           Y           Z
 ---------------------------------------------------------------------
      1          8           0        2.745999    1.605399    0.696351
      2          6           0        1.917812    0.796981    0.310155
      3          7           0        1.100188    1.121274   -0.776810
      4          6           0       -0.197518    0.500354   -1.048575
      5          6           0       -0.419397    0.447931   -2.572316
      6          8           0        0.703754    0.426428   -3.301447
      7          8           0       -1.512542    0.401541   -3.092640
      8          6           0       -1.375187    1.165957   -0.293472
      9          6           0       -2.528055    0.254264   -0.031069
     10          6           0       -3.056744   -0.235988    1.142896
     11          7           0       -4.124935   -1.068244    0.892740
     12          6           0       -4.242786   -1.087569   -0.420616
     13          7           0       -3.306450   -0.302649   -1.027004
     14          6           0        1.751055   -0.585165    0.922461
     15          6           0        2.804252   -0.872302    2.009501
     16          7           0        4.195106   -0.893503    1.576630
     17          1           0        1.151535    2.119619   -0.971069
     18          1           0       -0.131965   -0.543320   -0.726827
     19          1           0        1.453080    0.533401   -2.676693
     20          1           0       -1.687238    2.064527   -0.841698
     21          1           0       -0.992175    1.500296    0.675892
     22          1           0       -2.732341   -0.022408    2.153444
     23          1           0       -4.980483   -1.646158   -0.980623
     24          1           0       -3.121302   -0.167853   -2.015259
     25          1           0        0.739542   -0.667292    1.346723
     26          1           0        1.808888   -1.342825    0.127761
     27          1           0        2.711213   -0.116046    2.795215
     28          1           0        2.563852   -1.839173    2.466336
     29          1           0        4.326573   -1.570210    0.826512
     30          1           0        4.436197    0.022790    1.205793
 ---------------------------------------------------------------------

 SCF Done:  E(RB3LYP) =  -796.130215644     A.U. after    1 cycles

 Alpha  occ. eigenvalues --  -19.22207 -19.16972 -19.15383 -14.40049 -14.38271
 Alpha  occ. eigenvalues --  -14.31452 -14.30837 -10.35255 -10.32495 -10.27965
 Alpha  occ. eigenvalues --  -10.23624 -10.22953 -10.22187 -10.22131 -10.21992
 Alpha  occ. eigenvalues --  -10.19737  -1.13393  -1.07288  -1.05129  -1.00889
 Alpha  occ. eigenvalues --   -0.96308  -0.88723  -0.86593  -0.81557  -0.77797
 Alpha  occ. eigenvalues --   -0.74726  -0.68850  -0.66102  -0.63893  -0.60775
 Alpha  occ. eigenvalues --   -0.59439  -0.58958  -0.57066  -0.54560  -0.53456
 Alpha  occ. eigenvalues --   -0.51156  -0.48985  -0.48485  -0.48069  -0.46885
 Alpha  occ. eigenvalues --   -0.45752  -0.44325  -0.43754  -0.43195  -0.42861
 Alpha  occ. eigenvalues --   -0.41638  -0.40796  -0.40514  -0.39872  -0.38749
 Alpha  occ. eigenvalues --   -0.38161  -0.36624  -0.34584  -0.31894  -0.30379
 Alpha  occ. eigenvalues --   -0.28296  -0.27566  -0.26226  -0.23837  -0.22477
 Alpha virt. eigenvalues --   -0.02788  -0.01906   0.02534   0.05180   0.06441
 Alpha virt. eigenvalues --    0.06923   0.08327   0.09083   0.10496   0.11769
 Alpha virt. eigenvalues --    0.12461   0.12887   0.13525   0.14863   0.15296

 Mulliken charges:
               1
     1  O   -0.479511
     2  C    0.599685
     3  N   -0.665345
     4  C   -0.078636
     5  C    0.620068
     6  O   -0.557141
     7  O   -0.469883
     8  C   -0.356765
     9  C    0.305620
    10  C   -0.083192
    11  N   -0.426331
    12  C    0.205354
    13  N   -0.606615
    14  C   -0.394904
    15  C   -0.132883
    16  N   -0.709722
    17  H    0.341121
    18  H    0.208197
    19  H    0.430745
    20  H    0.171932
    21  H    0.170943
    22  H    0.127489
    23  H    0.155988
    24  H    0.369628
    25  H    0.176113
    26  H    0.160242
    27  H    0.164656
    28  H    0.147743
    29  H    0.286234
    30  H    0.319168
 Sum of Mulliken charges =   0.00000

 Dipole moment (field-independent basis, Debye):
    X=              1.3911    Y=              0.5282    Z=             -2.0854  Tot=              2.5618
 Quadrupole moment (field-independent basis, Debye-Ang):
   XX=           -116.5724   YY=            -92.2642   ZZ=           -106.3914
   XY=             -6.0302   XZ=             -3.0533   YZ=              2.7223

  Exact polarizability: 148.864  20.114  96.729  10.193  -3.965 122.461
 Approx polarizability: 202.559  36.956 152.389  12.574  -0.931 190.402

                      1                      2                      3
                      A                      A                      A
 Frequencies --     17.6292                34.6971                52.1863
 Red. masses --      5.6856                 4.7958                 3.5363
 Frc consts  --      0.0010                 0.0034                 0.0057
 IR Inten    --      0.4401                 0.3321                 3.1222

                      4                      5                      6
                      A                      A                      A
 Frequencies --     66.0709                82.6752                90.8157
 Red. masses --      6.6465                 4.9811                 6.3189
 Frc consts  --      0.0171                 0.0201                 0.0307
 IR Inten    --      0.4777                 0.1780                 9.4771

                      7                      8                      9
                      A                      A                      A
 Frequencies --    137.2059               150.4261               161.6004
 Red. masses --      4.9894                 5.7967                 3.0360
 Frc consts  --      0.0553                 0.0773                 0.0467
 IR Inten    --      1.8407                12.8292                 6.0187

                     10                     11                     12
                      A                      A                      A
 Frequencies --    208.9710               249.2107               282.8020
 Red. masses --      4.3797                 3.0967                 4.6442
 Frc consts  --      0.1127                 0.1133                 0.2188
 IR Inten    --      6.6976                 7.5807                 8.7089

                     13                     14                     15
                      A                      A                      A
 Frequencies --    318.1281               338.6887               372.3104
 Red. masses --      4.1339                 2.9298                 1.1707
 Frc consts  --      0.2465                 0.1980                 0.0956
 IR Inten    --      1.2941                 4.9090                50.4015

                     16                     17                     18
                      A                      A                      A
 Frequencies --    374.4294               417.5806               447.1759
 Red. masses --      4.5123                 2.8395                 5.4853
 Frc consts  --      0.3727                 0.2917                 0.6463
 IR Inten    --     18.3935                11.9058                 0.6339

                     19                     20                     21
                      A                      A                      A
 Frequencies --    524.6036               552.8945               601.4648
 Red. masses --      2.4757                 2.7660                 4.0962
 Frc consts  --      0.4014                 0.4982                 0.8731
 IR Inten    --     21.3674                 2.6061                10.7407

                     22                     23                     24
                      A                      A                      A
 Frequencies --    624.6897               650.5188               675.7663
 Red. masses --      3.3541                 3.3762                 3.3324
 Frc consts  --      0.7712                 0.8418                 0.8966
 IR Inten    --     43.0836                 5.6575                28.0148

                     25                     26                     27
                      A                      A                      A
 Frequencies --    694.3530               721.3401               735.6397
 Red. masses --      1.5031                 3.4906                 1.2480
 Frc consts  --      0.4270                 1.0701                 0.3979
 IR Inten    --     80.1801                 5.0562                65.8566

                     28                     29                     30
                      A                      A                      A
 Frequencies --    748.9400               805.5700               812.6856
 Red. masses --      3.4995                 1.4513                 2.3838
 Frc consts  --      1.1565                 0.5549                 0.9276
 IR Inten    --      4.1321                 6.7887                81.5640

                     31                     32                     33
                      A                      A                      A
 Frequencies --    827.0582               840.1812               842.4673
 Red. masses --      1.5185                 1.5245                 1.6190
 Frc consts  --      0.6120                 0.6341                 0.6770
 IR Inten    --     41.6386                16.5958                70.0500

                     34                     35                     36
                      A                      A                      A
 Frequencies --    889.0040               897.3729               940.3201
 Red. masses --      1.5767                 2.5843                 1.5683
 Frc consts  --      0.7342                 1.2261                 0.8170
 IR Inten    --    141.8704                88.5968                21.4900

                     37                     38                     39
                      A                      A                      A
 Frequencies --    945.1515               994.7974              1034.0570
 Red. masses --      5.8309                 2.6764                 3.5005
 Frc consts  --      3.0689                 1.5606                 2.2053
 IR Inten    --     16.2795                 3.3038                11.2497

                     40                     41                     42
                      A                      A                      A
 Frequencies --   1036.2877              1064.6207              1124.5070
 Red. masses --      2.2730                 4.3927                 2.4072
 Frc consts  --      1.4381                 2.9334                 1.7934
 IR Inten    --     76.1904                21.9179                 7.1310

                     43                     44                     45
                      A                      A                      A
 Frequencies --   1134.3843              1140.3595              1158.4135
 Red. masses --      1.5724                 3.4104                 2.0788
 Frc consts  --      1.1922                 2.6130                 1.6436
 IR Inten    --     63.6592                29.9785                 8.4007

                     46                     47                     48
                      A                      A                      A
 Frequencies --   1176.6135              1208.3345              1226.7537
 Red. masses --      1.4076                 1.3175                 2.2674
 Frc consts  --      1.1481                 1.1334                 2.0105
 IR Inten    --     37.4847                 1.3650                20.1647

                     49                     50                     51
                      A                      A                      A
 Frequencies --   1257.7181              1277.3695              1285.3592
 Red. masses --      1.7642                 2.1672                 1.4501
 Frc consts  --      1.6442                 2.0834                 1.4115
 IR Inten    --     87.4440                13.0684                77.7961

                     52                     53                     54
                      A                      A                      A
 Frequencies --   1289.6224              1318.0610              1337.1760
 Red. masses --      1.6435                 1.2753                 1.3689
 Frc consts  --      1.6105                 1.3053                 1.4422
 IR Inten    --     65.0750                 2.8313                19.3586

                     55                     56                     57
                      A                      A                      A
 Frequencies --   1382.3231              1389.4020              1405.2499
 Red. masses --      1.5077                 1.7098                 3.5067
 Frc consts  --      1.6974                 1.9446                 4.0800
 IR Inten    --      0.6774               152.3813                22.4561

                     58                     59                     60
                      A                      A                      A
 Frequencies --   1409.2617              1415.4177              1427.9560
 Red. masses --      1.5904                 1.2768                 1.5365
 Frc consts  --      1.8609                 1.5071                 1.8459
 IR Inten    --    296.6972                29.8053                72.9103

                     61                     62                     63
                      A                      A                      A
 Frequencies --   1448.3022              1479.5689              1490.7311
 Red. masses --      2.8551                 1.2348                 1.2962
 Frc consts  --      3.5285                 1.5927                 1.6971
 IR Inten    --     36.4467                13.3761                27.5761

                     64                     65                     66
                      A                      A                      A
 Frequencies --   1502.4669              1511.8345              1518.3028
 Red. masses --      1.1665                 1.0920                 3.0272
 Frc consts  --      1.5514                 1.4705                 4.1116
 IR Inten    --     15.3105                 3.4111                16.0613

                     67                     68                     69
                      A                      A                      A
 Frequencies --   1621.9551              1697.9445              1799.6161
 Red. masses --      4.4643                 1.0942                 8.2359
 Frc consts  --      6.9196                 1.8586                15.7152
 IR Inten    --     14.3230                24.7570               360.2963

                     70                     71                     72
                      A                      A                      A
 Frequencies --   1855.2393              3024.2713              3046.5353
 Red. masses --      9.6132                 1.0606                 1.0657
 Frc consts  --     19.4949                 5.7155                 5.8279
 IR Inten    --    222.5644                19.1121                21.4017

                     73                     74                     75
                      A                      A                      A
 Frequencies --   3057.6935              3068.6881              3101.3854
 Red. masses --      1.0924                 1.0706                 1.0861
 Frc consts  --      6.0177                 5.9402                 6.1548
 IR Inten    --      7.6222                38.4258                10.0504

                     76                     77                     78
                      A                      A                      A
 Frequencies --   3108.0502              3115.0868              3248.2802
 Red. masses --      1.0941                 1.1036                 1.0962
 Frc consts  --      6.2271                 6.3094                 6.8148
 IR Inten    --      4.2043                20.8251                 9.5183

                     79                     80                     81
                      A                      A                      A
 Frequencies --   3268.5023              3474.7305              3522.6423
 Red. masses --      1.0974                 1.0499                 1.0749
 Frc consts  --      6.9071                 7.4685                 7.8590
 IR Inten    --      3.1580                 3.6723                20.2023

                     82                     83                     84
                      A                      A                      A
 Frequencies --   3560.7872              3570.1294              3584.3964
 Red. masses --      1.0646                 1.0917                 1.0819
 Frc consts  --      7.9529                 8.1984                 8.1899
 IR Inten    --    164.8525                 2.7403               205.2479

 - Thermochemistry -
 -------------------
 Temperature   298.150 Kelvin.  Pressure   1.00000 Atm.
 Atom     1 has atomic number  8 and mass  15.99491

 Molecular mass:   226.10659 amu.
 Principal axes and moments of inertia in atomic units:
                           1         2         3
     Eigenvalues --  2467.282116079.316187692.22242
           X            0.97081  -0.20151  -0.13012
           Y            0.06088  -0.31772   0.94623
           Z            0.23201   0.92653   0.29618
 This molecule is an asymmetric top.
 Rotational symmetry number  1.
 Warning -- assumption of classical behavior for rotation
           may cause significant error
 Rotational temperatures (Kelvin)      0.03510     0.01425     0.01126
 Rotational constants (GHZ):           0.73147     0.29687     0.23462
 Zero-point vibrational energy     647800.6 (Joules/Mol)
                                  154.82807 (Kcal/Mol)
 Warning -- explicit consideration of  21 degrees of freedom as
           vibrations may cause significant error
 Vibrational temperatures:     25.36    49.92    75.08    95.06   118.95
          (Kelvin)            130.66   197.41   216.43   232.51   300.66
                              358.56   406.89   457.71   487.30   535.67
                              538.72   600.80   643.39   754.79   795.49
                              865.37   898.79   935.95   972.28   999.02
                             1037.85  1058.42  1077.56  1159.03  1169.27
                             1189.95  1208.83  1212.12  1279.08  1291.12
                             1352.91  1359.86  1431.29  1487.78  1490.99
                             1531.75  1617.91  1632.12  1640.72  1666.70
                             1692.88  1738.52  1765.02  1809.57  1837.85
                             1849.34  1855.48  1896.39  1923.90  1988.85
                             1999.04  2021.84  2027.61  2036.47  2054.51
                             2083.78  2128.77  2144.83  2161.71  2175.19
                             2184.50  2333.63  2442.96  2589.24  2669.27
                             4351.25  4383.28  4399.33  4415.15  4462.20
                             4471.79  4481.91  4673.54  4702.64  4999.36
                             5068.29  5123.17  5136.61  5157.14

 Zero-point correction=                           0.246734 (Hartree/Particle)
 Thermal correction to Energy=                    0.262250
 Thermal correction to Enthalpy=                  0.263194
 Thermal correction to Gibbs Free Energy=         0.201340
 Sum of electronic and zero-point Energies=           -795.883481
 Sum of electronic and thermal Energies=              -795.867966
 Sum of electronic and thermal Enthalpies=            -795.867022
 Sum of electronic and thermal Free Energies=         -795.928876

                     E (Thermal)             CV                S
                      KCal/Mol        Cal/Mol-Kelvin    Cal/Mol-Kelvin
 Total                  164.564             57.221            130.183
 Electronic               0.000              0.000              0.000
 Translational            0.889              2.981             42.150
 Rotational               0.889              2.981             33.111
 Vibrational            162.787             51.260             54.922
 Vibration     1          0.593              1.986              6.885
 Vibration     2          0.594              1.983              5.541
 Vibration     3          0.596              1.977              4.733
 Vibration     4          0.597              1.970              4.267
 Vibration     5          0.600              1.961              3.826
 Vibration     6          0.602              1.956              3.642
 Vibration     7          0.614              1.916              2.842
 Vibration     8          0.618              1.902              2.667
 Vibration     9          0.622              1.889              2.531
 Vibration    10          0.642              1.827              2.053
 Vibration    11          0.662              1.764              1.736
 Vibration    12          0.682              1.706              1.517
 Vibration    13          0.705              1.639              1.320
 Vibration    14          0.719              1.598              1.218
 Vibration    15          0.744              1.529              1.070
 Vibration    16          0.746              1.525              1.062
 Vibration    17          0.781              1.432              0.900
 Vibration    18          0.806              1.367              0.804
 Vibration    19          0.880              1.196              0.599
 Vibration    20          0.908              1.133              0.538
 Vibration    21          0.960              1.029              0.447

 Optimization completed.
    -- Stationary point found.
 Normal termination of Gaussian 09 at Tue Jul 27 02:06:10 2021.
