 Gaussian 09, Revision D.01,
 Gaussian 09:  ES64L-G09RevD.01 24-Apr-2013

 ----------------------------------------------------------------------
 # B3LYP/6-31G(d) EmpiricalDispersion=GD3BJ opt=calcfc freq=noraman nos
 ymm integral(ultrafinegrid)
 ----------------------------------------------------------------------

 ------------------------------------------------------------
 Candidate Structure: Conf:422 OPT and FREQ calc in gas phase
 ------------------------------------------------------------
 Symbolic Z-matrix:
 Charge =  0 Multiplicity = 1

 SCF Done:  E(RB3LYP) =  -796.127309130     A.U. after   14 cycles
 SCF Done:  E(RB3LYP) =  -796.128943828     A.U. after   14 cycles
 SCF Done:  E(RB3LYP) =  -796.129081873     A.U. after   14 cycles
 SCF Done:  E(RB3LYP) =  -796.128277210     A.U. after   12 cycles
 SCF Done:  E(RB3LYP) =  -796.129091384     A.U. after    9 cycles
 SCF Done:  E(RB3LYP) =  -796.129120361     A.U. after   11 cycles
 SCF Done:  E(RB3LYP) =  -796.129129738     A.U. after   10 cycles
 SCF Done:  E(RB3LYP) =  -796.129135543     A.U. after   10 cycles
 SCF Done:  E(RB3LYP) =  -796.129136335     A.U. after    9 cycles
 SCF Done:  E(RB3LYP) =  -796.129136392     A.U. after    8 cycles
 Optimization completed.
    -- Stationary point found.
 Normal termination of Gaussian 09 at Tue Jul 27 01:51:27 2021.

 --------------------------------------------------------------------
 #N Geom=AllCheck Guess=TCheck SCRF=Check GenChk RB3LYP/6-31G(d) Freq
 --------------------------------------------------------------------

 Structure from the checkpoint file:  "conf-422.chk"
 ------------------------------------------------------------
 Candidate Structure: Conf:422 OPT and FREQ calc in gas phase
 ------------------------------------------------------------
 Charge =  0 Multiplicity = 1

                          Input orientation:
 ---------------------------------------------------------------------
 Center     Atomic      Atomic             Coordinates (Angstroms)
 Number     Number       Type             X           Y           Z
 ---------------------------------------------------------------------
      1          8           0        0.765312    0.657308    1.541802
      2          6           0        1.108086    0.086019    0.511819
      3          7           0        0.289301   -0.794493   -0.147843
      4          6           0       -0.963725   -1.234324    0.419699
      5          6           0       -0.911562   -2.741946    0.627348
      6          8           0       -1.911129   -3.174396    1.424806
      7          8           0       -0.102915   -3.483316    0.113205
      8          6           0       -2.185756   -0.892129   -0.464319
      9          6           0       -2.377958    0.578082   -0.658592
     10          6           0       -1.910252    1.698212   -0.009999
     11          7           0       -2.432400    2.847108   -0.573378
     12          6           0       -3.209246    2.437103   -1.550002
     13          7           0       -3.212924    1.071507   -1.649548
     14          6           0        2.444291    0.346145   -0.164666
     15          6           0        3.504694    0.823259    0.825917
     16          7           0        4.729090    1.184377    0.105036
     17          1           0        0.697910   -1.401943   -0.845915
     18          1           0       -1.067091   -0.741374    1.390055
     19          1           0       -1.824087   -4.145150    1.478807
     20          1           0       -3.072306   -1.345267   -0.001050
     21          1           0       -2.054293   -1.388383   -1.437403
     22          1           0       -1.210552    1.740474    0.812634
     23          1           0       -3.785982    3.066810   -2.214227
     24          1           0       -3.732178    0.519179   -2.316484
     25          1           0        2.784810   -0.553278   -0.696400
     26          1           0        2.299740    1.122501   -0.926840
     27          1           0        3.643862    0.054424    1.605729
     28          1           0        3.122440    1.712920    1.333236
     29          1           0        5.183398    0.341313   -0.244899
     30          1           0        5.391443    1.609172    0.751469
 ---------------------------------------------------------------------

 SCF Done:  E(RB3LYP) =  -796.129136392     A.U. after    1 cycles

 Alpha  occ. eigenvalues --  -19.21753 -19.16100 -19.11648 -14.38565 -14.36402
 Alpha  occ. eigenvalues --  -14.31078 -14.30072 -10.33928 -10.28980 -10.25179
 Alpha  occ. eigenvalues --  -10.23108 -10.21796 -10.21498 -10.20461 -10.19148
 Alpha  occ. eigenvalues --  -10.18224  -1.12676  -1.03923  -1.03385  -1.00364
 Alpha  occ. eigenvalues --   -0.93301  -0.87776  -0.86075  -0.80907  -0.75731
 Alpha  occ. eigenvalues --   -0.73438  -0.67867  -0.64394  -0.60811  -0.60471
 Alpha  occ. eigenvalues --   -0.58925  -0.57464  -0.54097  -0.51742  -0.50750
 Alpha  occ. eigenvalues --   -0.49663  -0.48040  -0.47961  -0.46920  -0.45150
 Alpha  occ. eigenvalues --   -0.44361  -0.43570  -0.42691  -0.41626  -0.40998
 Alpha  occ. eigenvalues --   -0.40267  -0.39550  -0.39170  -0.38103  -0.37521
 Alpha  occ. eigenvalues --   -0.35165  -0.34210  -0.33870  -0.29802  -0.27010
 Alpha  occ. eigenvalues --   -0.26411  -0.25500  -0.25261  -0.23306  -0.21503
 Alpha virt. eigenvalues --   -0.01011   0.02039   0.03451   0.05759   0.07223
 Alpha virt. eigenvalues --    0.07802   0.08142   0.08650   0.11420   0.13359
 Alpha virt. eigenvalues --    0.14194   0.14387   0.14910   0.16014   0.16893

 Mulliken charges:
               1
     1  O   -0.522493
     2  C    0.630057
     3  N   -0.587262
     4  C   -0.060265
     5  C    0.580105
     6  O   -0.560040
     7  O   -0.465664
     8  C   -0.358500
     9  C    0.334339
    10  C   -0.097403
    11  N   -0.431082
    12  C    0.206860
    13  N   -0.615466
    14  C   -0.358018
    15  C   -0.137636
    16  N   -0.719083
    17  H    0.334771
    18  H    0.216708
    19  H    0.416171
    20  H    0.179077
    21  H    0.145064
    22  H    0.175966
    23  H    0.151693
    24  H    0.325418
    25  H    0.134313
    26  H    0.194754
    27  H    0.122938
    28  H    0.174098
    29  H    0.290398
    30  H    0.300182
 Sum of Mulliken charges =   0.00000

 Dipole moment (field-independent basis, Debye):
    X=             -1.1924    Y=             -5.2528    Z=             -2.4218  Tot=              5.9058
 Quadrupole moment (field-independent basis, Debye-Ang):
   XX=            -73.1303   YY=           -100.9428   ZZ=            -88.3978
   XY=              7.3770   XZ=             12.1478   YZ=             -4.1019

  Exact polarizability: 129.896   1.912 135.141  11.918  -2.393 100.372
 Approx polarizability: 166.836   1.304 199.573  11.732  17.847 169.342

                      1                      2                      3
                      A                      A                      A
 Frequencies --     10.4526                27.7718                47.2512
 Red. masses --      3.1098                 2.9236                 9.2951
 Frc consts  --      0.0002                 0.0013                 0.0122
 IR Inten    --      1.5806                 2.6306                 2.1985

                      4                      5                      6
                      A                      A                      A
 Frequencies --     48.8224                61.5226                81.7103
 Red. masses --      4.1131                 3.7584                 7.2303
 Frc consts  --      0.0058                 0.0084                 0.0284
 IR Inten    --      2.7470                 5.3236                 7.9413

                      7                      8                      9
                      A                      A                      A
 Frequencies --     92.2441               103.4575               136.7721
 Red. masses --      4.9289                 3.8237                 4.0983
 Frc consts  --      0.0247                 0.0241                 0.0452
 IR Inten    --      0.6419                 3.0895                 3.9936

                     10                     11                     12
                      A                      A                      A
 Frequencies --    179.3916               222.3874               246.7458
 Red. masses --      6.5117                 3.9200                 3.3887
 Frc consts  --      0.1235                 0.1142                 0.1216
 IR Inten    --      2.2653                10.5782                 2.7205

                     13                     14                     15
                      A                      A                      A
 Frequencies --    267.3991               283.5553               312.0133
 Red. masses --      1.3451                 3.0256                 4.2329
 Frc consts  --      0.0567                 0.1433                 0.2428
 IR Inten    --     54.2886                 3.4953                 7.8821

                     16                     17                     18
                      A                      A                      A
 Frequencies --    351.6539               399.0179               447.4879
 Red. masses --      4.6390                 3.9323                 3.3607
 Frc consts  --      0.3380                 0.3689                 0.3965
 IR Inten    --      3.2994                14.8056                18.0356

                     19                     20                     21
                      A                      A                      A
 Frequencies --    479.0508               497.3431               532.5566
 Red. masses --      1.4377                 1.5454                 3.3116
 Frc consts  --      0.1944                 0.2252                 0.5534
 IR Inten    --     77.0089                80.5758                15.2932

                     22                     23                     24
                      A                      A                      A
 Frequencies --    608.1370               618.1755               647.4614
 Red. masses --      1.5379                 2.2262                 3.1634
 Frc consts  --      0.3351                 0.5012                 0.7813
 IR Inten    --     77.6480                12.6371                47.1936

                     25                     26                     27
                      A                      A                      A
 Frequencies --    652.3176               681.6983               701.3525
 Red. masses --      3.4602                 3.5241                 2.8185
 Frc consts  --      0.8675                 0.9649                 0.8168
 IR Inten    --     25.5646                 5.4940                35.5211

                     28                     29                     30
                      A                      A                      A
 Frequencies --    734.4293               785.0553               786.3044
 Red. masses --      4.5152                 1.7017                 2.5725
 Frc consts  --      1.4349                 0.6179                 0.9371
 IR Inten    --     10.6721                23.3554                12.6795

                     31                     32                     33
                      A                      A                      A
 Frequencies --    807.6510               883.2507               884.8277
 Red. masses --      1.3220                 1.3642                 1.3505
 Frc consts  --      0.5081                 0.6270                 0.6230
 IR Inten    --     12.0551                13.6207               135.0394

                     34                     35                     36
                      A                      A                      A
 Frequencies --    911.4969               925.8515               942.3789
 Red. masses --      1.8362                 4.1279                 5.7835
 Frc consts  --      0.8988                 2.0848                 3.0261
 IR Inten    --     11.1401                11.9048                10.1762

                     37                     38                     39
                      A                      A                      A
 Frequencies --    987.5117              1008.2366              1033.3633
 Red. masses --      2.7330                 2.5239                 3.6303
 Frc consts  --      1.5702                 1.5116                 2.2840
 IR Inten    --      6.9546                11.4083                11.1289

                     40                     41                     42
                      A                      A                      A
 Frequencies --   1070.9289              1074.9425              1112.4507
 Red. masses --      3.0377                 2.8574                 1.9153
 Frc consts  --      2.0527                 1.9454                 1.3965
 IR Inten    --     17.0692                16.8387                25.1241

                     43                     44                     45
                      A                      A                      A
 Frequencies --   1120.8993              1135.7512              1155.4354
 Red. masses --      1.5890                 2.4651                 2.4691
 Frc consts  --      1.1763                 1.8735                 1.9421
 IR Inten    --     13.6038                60.4818                21.3899

                     46                     47                     48
                      A                      A                      A
 Frequencies --   1173.6682              1192.8718              1216.6503
 Red. masses --      1.6002                 2.0354                 1.9350
 Frc consts  --      1.2987                 1.7064                 1.6876
 IR Inten    --     95.3812                91.0727                42.5984

                     49                     50                     51
                      A                      A                      A
 Frequencies --   1240.6910              1265.6338              1281.5475
 Red. masses --      1.6026                 1.4330                 1.4368
 Frc consts  --      1.4535                 1.3524                 1.3903
 IR Inten    --     28.7655                32.5096                13.8415

                     52                     53                     54
                      A                      A                      A
 Frequencies --   1295.7410              1307.3788              1350.9217
 Red. masses --      1.3291                 1.4772                 1.1281
 Frc consts  --      1.3147                 1.4877                 1.2129
 IR Inten    --     20.7042                 5.4429                 4.1413

                     55                     56                     57
                      A                      A                      A
 Frequencies --   1354.5588              1367.8563              1388.9155
 Red. masses --      1.5683                 1.6587                 1.6275
 Frc consts  --      1.6954                 1.8285                 1.8498
 IR Inten    --      1.1293                 3.2587                10.1232

                     58                     59                     60
                      A                      A                      A
 Frequencies --   1414.5219              1426.2690              1443.5103
 Red. masses --      2.4582                 2.1735                 2.8605
 Frc consts  --      2.8979                 2.6051                 3.5119
 IR Inten    --    102.2634                42.4874                19.9100

                     61                     62                     63
                      A                      A                      A
 Frequencies --   1451.1076              1496.2207              1509.6589
 Red. masses --      1.5531                 1.0906                 1.7989
 Frc consts  --      1.9268                 1.4385                 2.4155
 IR Inten    --     41.2023                 7.1797                25.6475

                     64                     65                     66
                      A                      A                      A
 Frequencies --   1523.8792              1542.3521              1557.1575
 Red. masses --      1.7553                 1.0853                 1.8712
 Frc consts  --      2.4016                 1.5211                 2.6732
 IR Inten    --      6.2967                 1.0625               244.3772

                     67                     68                     69
                      A                      A                      A
 Frequencies --   1625.8261              1699.8981              1773.0694
 Red. masses --      4.2294                 1.0894                 9.0200
 Frc consts  --      6.5869                 1.8547                16.7073
 IR Inten    --     15.4219                22.4800               175.0798

                     70                     71                     72
                      A                      A                      A
 Frequencies --   1843.7084              2972.4991              3017.4568
 Red. masses --      9.9105                 1.0746                 1.0639
 Frc consts  --     19.8486                 5.5940                 5.7072
 IR Inten    --    238.3245                72.7844                34.9592

                     73                     74                     75
                      A                      A                      A
 Frequencies --   3036.6362              3058.4333              3082.5771
 Red. masses --      1.0639                 1.0970                 1.0961
 Frc consts  --      5.7802                 6.0456                 6.1364
 IR Inten    --     20.4061                15.9841                 8.9356

                     76                     77                     78
                      A                      A                      A
 Frequencies --   3119.0667              3121.8160              3263.8346
 Red. masses --      1.0839                 1.0901                 1.0962
 Frc consts  --      6.2128                 6.2596                 6.8799
 IR Inten    --     10.2786                17.1977                 4.3606

                     79                     80                     81
                      A                      A                      A
 Frequencies --   3276.3044              3461.9652              3547.8659
 Red. masses --      1.0987                 1.0504                 1.0916
 Frc consts  --      6.9483                 7.4177                 8.0955
 IR Inten    --      2.9839                 2.9072                 0.5265

                     82                     83                     84
                      A                      A                      A
 Frequencies --   3611.4021              3644.3301              3680.5989
 Red. masses --      1.0766                 1.0807                 1.0641
 Frc consts  --      8.2730                 8.4562                 8.4929
 IR Inten    --     32.2307                34.3169                58.0735

 - Thermochemistry -
 -------------------
 Temperature   298.150 Kelvin.  Pressure   1.00000 Atm.
 Atom     1 has atomic number  8 and mass  15.99491

 Molecular mass:   226.10659 amu.
 Principal axes and moments of inertia in atomic units:
                           1         2         3
     Eigenvalues --  3389.272775076.296557712.12415
           X            0.97960   0.08819  -0.18056
           Y           -0.04164   0.96814   0.24694
           Z            0.19658  -0.23438   0.95206
 This molecule is an asymmetric top.
 Rotational symmetry number  1.
 Warning -- assumption of classical behavior for rotation
           may cause significant error
 Rotational temperatures (Kelvin)      0.02556     0.01706     0.01123
 Rotational constants (GHZ):           0.53249     0.35552     0.23401
 Zero-point vibrational energy     644409.8 (Joules/Mol)
                                  154.01765 (Kcal/Mol)
 Warning -- explicit consideration of  23 degrees of freedom as
           vibrations may cause significant error
 Vibrational temperatures:     15.04    39.96    67.98    70.24    88.52
          (Kelvin)            117.56   132.72   148.85   196.78   258.10
                              319.97   355.01   384.73   407.97   448.92
                              505.95   574.10   643.83   689.25   715.56
                              766.23   874.97   889.42   931.55   938.54
                              980.81  1009.09  1056.68  1129.52  1131.32
                             1162.03  1270.80  1273.07  1311.44  1332.09
                             1355.87  1420.81  1450.63  1486.78  1540.83
                             1546.60  1600.57  1612.72  1634.09  1662.41
                             1688.64  1716.27  1750.49  1785.08  1820.96
                             1843.86  1864.28  1881.02  1943.67  1948.91
                             1968.04  1998.34  2035.18  2052.08  2076.89
                             2087.82  2152.73  2172.06  2192.52  2219.10
                             2240.40  2339.20  2445.77  2551.05  2652.68
                             4276.76  4341.44  4369.04  4400.40  4435.14
                             4487.64  4491.59  4695.92  4713.87  4980.99
                             5104.58  5196.00  5243.37  5295.55

 Zero-point correction=                           0.245443 (Hartree/Particle)
 Thermal correction to Energy=                    0.261868
 Thermal correction to Enthalpy=                  0.262812
 Thermal correction to Gibbs Free Energy=         0.197465
 Sum of electronic and zero-point Energies=           -795.883694
 Sum of electronic and thermal Energies=              -795.867268
 Sum of electronic and thermal Enthalpies=            -795.866324
 Sum of electronic and thermal Free Energies=         -795.931672

                     E (Thermal)             CV                S
                      KCal/Mol        Cal/Mol-Kelvin    Cal/Mol-Kelvin
 Total                  164.325             58.544            137.535
 Electronic               0.000              0.000              0.000
 Translational            0.889              2.981             42.150
 Rotational               0.889              2.981             33.250
 Vibrational            162.547             52.583             62.135
 Vibration     1          0.593              1.987              7.923
 Vibration     2          0.593              1.984              5.983
 Vibration     3          0.595              1.979              4.929
 Vibration     4          0.595              1.978              4.865
 Vibration     5          0.597              1.973              4.408
 Vibration     6          0.600              1.962              3.849
 Vibration     7          0.602              1.955              3.612
 Vibration     8          0.605              1.946              3.388
 Vibration     9          0.614              1.917              2.849
 Vibration    10          0.629              1.868              2.335
 Vibration    11          0.648              1.807              1.940
 Vibration    12          0.661              1.768              1.754
 Vibration    13          0.673              1.733              1.613
 Vibration    14          0.682              1.704              1.512
 Vibration    15          0.700              1.651              1.352
 Vibration    16          0.728              1.572              1.159
 Vibration    17          0.765              1.472              0.966
 Vibration    18          0.807              1.366              0.803
 Vibration    19          0.835              1.297              0.713
 Vibration    20          0.853              1.256              0.665
 Vibration    21          0.888              1.178              0.582
 Vibration    22          0.967              1.015              0.436
 Vibration    23          0.978              0.993              0.419

 Normal termination of Gaussian 09 at Tue Jul 27 02:06:41 2021.
