 Gaussian 09, Revision D.01,
 Gaussian 09:  ES64L-G09RevD.01 24-Apr-2013

 ----------------------------------------------------------------------
 # B3LYP/6-31G(d) EmpiricalDispersion=GD3BJ opt=calcfc freq=noraman nos
 ymm integral(ultrafinegrid)
 ----------------------------------------------------------------------

 ------------------------------------------------------------
 Candidate Structure: Conf:273 OPT and FREQ calc in gas phase
 ------------------------------------------------------------
 Symbolic Z-matrix:
 Charge =  0 Multiplicity = 1

 SCF Done:  E(RB3LYP) =  -796.130062737     A.U. after   15 cycles
 SCF Done:  E(RB3LYP) =  -796.133638438     A.U. after   15 cycles
 SCF Done:  E(RB3LYP) =  -796.132953365     A.U. after   14 cycles
 SCF Done:  E(RB3LYP) =  -796.133649084     A.U. after    9 cycles
 SCF Done:  E(RB3LYP) =  -796.133944073     A.U. after   12 cycles
 SCF Done:  E(RB3LYP) =  -796.133965820     A.U. after   11 cycles
 SCF Done:  E(RB3LYP) =  -796.133972279     A.U. after   10 cycles
 SCF Done:  E(RB3LYP) =  -796.133972583     A.U. after   10 cycles
 SCF Done:  E(RB3LYP) =  -796.133972884     A.U. after    9 cycles
 SCF Done:  E(RB3LYP) =  -796.133972886     A.U. after    7 cycles
 Optimization completed.
    -- Stationary point found.
 Normal termination of Gaussian 09 at Tue Jul 27 01:52:10 2021.

 --------------------------------------------------------------------
 #N Geom=AllCheck Guess=TCheck SCRF=Check GenChk RB3LYP/6-31G(d) Freq
 --------------------------------------------------------------------

 Structure from the checkpoint file:  "conf-273.chk"
 ------------------------------------------------------------
 Candidate Structure: Conf:273 OPT and FREQ calc in gas phase
 ------------------------------------------------------------
 Charge =  0 Multiplicity = 1

                          Input orientation:
 ---------------------------------------------------------------------
 Center     Atomic      Atomic             Coordinates (Angstroms)
 Number     Number       Type             X           Y           Z
 ---------------------------------------------------------------------
      1          8           0        0.684485   -1.714492    1.597073
      2          6           0        0.874205   -0.673067    0.951078
      3          7           0        0.297168   -0.475425   -0.259629
      4          6           0       -0.808714   -1.308742   -0.749539
      5          6           0       -0.296924   -2.663914   -1.299055
      6          8           0        0.353553   -3.425637   -0.419187
      7          8           0       -0.496211   -3.011727   -2.440845
      8          6           0       -1.588258   -0.566995   -1.833784
      9          6           0       -2.129841    0.751215   -1.375886
     10          6           0       -2.233547    1.367536   -0.147549
     11          7           0       -2.844870    2.599807   -0.257236
     12          6           0       -3.113938    2.739560   -1.535845
     13          7           0       -2.699129    1.653704   -2.259060
     14          6           0        1.747839    0.446171    1.477221
     15          6           0        2.948335   -0.084192    2.264248
     16          7           0        3.673033    1.035653    2.867361
     17          1           0        0.390869    0.437722   -0.684998
     18          1           0       -1.463783   -1.525924    0.105451
     19          1           0        0.431064   -2.950772    0.452812
     20          1           0       -2.391519   -1.233263   -2.168077
     21          1           0       -0.934790   -0.443340   -2.707342
     22          1           0       -1.905602    0.992454    0.812167
     23          1           0       -3.596799    3.591265   -1.995459
     24          1           0       -2.805373    1.517019   -3.254337
     25          1           0        2.076378    1.093631    0.653872
     26          1           0        1.141380    1.070524    2.145953
     27          1           0        2.572966   -0.728490    3.063688
     28          1           0        3.559245   -0.724119    1.603559
     29          1           0        4.384688    0.680183    3.502679
     30          1           0        4.174053    1.553960    2.146702
 ---------------------------------------------------------------------

 SCF Done:  E(RB3LYP) =  -796.133972886     A.U. after    1 cycles

 Alpha  occ. eigenvalues --  -19.17460 -19.14861 -19.13029 -14.40256 -14.39167
 Alpha  occ. eigenvalues --  -14.32326 -14.32002 -10.31652 -10.31536 -10.26063
 Alpha  occ. eigenvalues --  -10.24910 -10.23423 -10.22208 -10.22080 -10.21089
 Alpha  occ. eigenvalues --  -10.20725  -1.09238  -1.06267  -1.02236  -1.00888
 Alpha  occ. eigenvalues --   -0.95473  -0.89164  -0.87947  -0.81928  -0.77460
 Alpha  occ. eigenvalues --   -0.74320  -0.68116  -0.64458  -0.62486  -0.61169
 Alpha  occ. eigenvalues --   -0.59984  -0.59374  -0.55944  -0.53148  -0.52763
 Alpha  occ. eigenvalues --   -0.51440  -0.49884  -0.47120  -0.46116  -0.45597
 Alpha  occ. eigenvalues --   -0.44236  -0.43948  -0.43243  -0.42507  -0.42293
 Alpha  occ. eigenvalues --   -0.41639  -0.41348  -0.39737  -0.39058  -0.37006
 Alpha  occ. eigenvalues --   -0.36820  -0.35976  -0.30569  -0.30146  -0.28965
 Alpha  occ. eigenvalues --   -0.28463  -0.27442  -0.25975  -0.24590  -0.23445
 Alpha virt. eigenvalues --   -0.00849   0.01062   0.01526   0.05590   0.06225
 Alpha virt. eigenvalues --    0.06629   0.07087   0.09421   0.10488   0.12575
 Alpha virt. eigenvalues --    0.13040   0.13808   0.13981   0.15569   0.16483

 Mulliken charges:
               1
     1  O   -0.558915
     2  C    0.632627
     3  N   -0.595713
     4  C   -0.092652
     5  C    0.632721
     6  O   -0.596099
     7  O   -0.461007
     8  C   -0.378468
     9  C    0.309351
    10  C   -0.087352
    11  N   -0.425662
    12  C    0.211052
    13  N   -0.609899
    14  C   -0.355234
    15  C   -0.141721
    16  N   -0.717878
    17  H    0.344898
    18  H    0.190167
    19  H    0.450473
    20  H    0.193139
    21  H    0.172959
    22  H    0.137434
    23  H    0.161023
    24  H    0.336047
    25  H    0.143107
    26  H    0.200418
    27  H    0.177191
    28  H    0.128496
    29  H    0.304913
    30  H    0.294584
 Sum of Mulliken charges =   0.00000

 Dipole moment (field-independent basis, Debye):
    X=              1.2450    Y=              3.7195    Z=             -2.1317  Tot=              4.4642
 Quadrupole moment (field-independent basis, Debye-Ang):
   XX=            -79.9614   YY=           -115.9440   ZZ=            -90.9947
   XY=              4.2828   XZ=             13.6071   YZ=            -18.4154

  Exact polarizability: 107.312 -13.936 129.281  27.339   3.234 129.078
 Approx polarizability: 137.516 -16.323 186.372  23.197   1.387 214.534

                      1                      2                      3
                      A                      A                      A
 Frequencies --     16.7521                28.9445                46.8965
 Red. masses --      3.5062                 3.4287                 3.2770
 Frc consts  --      0.0006                 0.0017                 0.0042
 IR Inten    --      0.8108                 1.9240                 4.4012

                      4                      5                      6
                      A                      A                      A
 Frequencies --     65.0236                66.8745                83.4507
 Red. masses --      6.3274                 3.6979                 5.9895
 Frc consts  --      0.0158                 0.0097                 0.0246
 IR Inten    --      6.6846                 9.0990                 0.3462

                      7                      8                      9
                      A                      A                      A
 Frequencies --     87.6469               160.7188               171.7879
 Red. masses --      4.1861                 4.4329                 4.3345
 Frc consts  --      0.0189                 0.0675                 0.0754
 IR Inten    --      1.3425                10.9311                 6.0607

                     10                     11                     12
                      A                      A                      A
 Frequencies --    215.9106               233.8386               251.1963
 Red. masses --      6.4549                 4.3427                 1.9124
 Frc consts  --      0.1773                 0.1399                 0.0711
 IR Inten    --      5.1409                12.2571                11.9179

                     13                     14                     15
                      A                      A                      A
 Frequencies --    267.6797               286.4478               316.4744
 Red. masses --      1.8473                 3.2198                 6.1966
 Frc consts  --      0.0780                 0.1557                 0.3657
 IR Inten    --     23.2132                30.5770                 6.1374

                     16                     17                     18
                      A                      A                      A
 Frequencies --    361.4465               387.2727               439.6931
 Red. masses --      5.7879                 4.5199                 3.0498
 Frc consts  --      0.4455                 0.3994                 0.3474
 IR Inten    --      1.9139                 2.4484                 5.1625

                     19                     20                     21
                      A                      A                      A
 Frequencies --    488.3580               512.3373               547.8114
 Red. masses --      1.3021                 1.4721                 4.3905
 Frc consts  --      0.1830                 0.2277                 0.7763
 IR Inten    --     91.8255                93.2247                17.3638

                     22                     23                     24
                      A                      A                      A
 Frequencies --    623.5431               624.5833               649.6552
 Red. masses --      5.4395                 2.7637                 2.4819
 Frc consts  --      1.2461                 0.6352                 0.6172
 IR Inten    --     11.0096                15.6830                17.0446

                     25                     26                     27
                      A                      A                      A
 Frequencies --    681.1319               732.1925               756.0250
 Red. masses --      3.1505                 4.6535                 4.1813
 Frc consts  --      0.8612                 1.4699                 1.4081
 IR Inten    --      2.0305                 2.8000                 5.2961

                     28                     29                     30
                      A                      A                      A
 Frequencies --    771.0543               797.0898               807.1253
 Red. masses --      4.4355                 1.3668                 1.4232
 Frc consts  --      1.5537                 0.5117                 0.5462
 IR Inten    --     32.7415                14.4644                 7.6549

                     31                     32                     33
                      A                      A                      A
 Frequencies --    837.2559               876.6050               879.9371
 Red. masses --      1.2919                 2.0364                 1.3271
 Frc consts  --      0.5336                 0.9220                 0.6054
 IR Inten    --     12.1227                51.5753                76.1710

                     34                     35                     36
                      A                      A                      A
 Frequencies --    890.7608               939.5203               951.5947
 Red. masses --      1.2432                 5.6897                 3.4186
 Frc consts  --      0.5812                 2.9590                 1.8239
 IR Inten    --    101.4266                12.6977                 3.4148

                     37                     38                     39
                      A                      A                      A
 Frequencies --    974.0800              1010.1381              1032.0924
 Red. masses --      2.9144                 2.5432                 3.7448
 Frc consts  --      1.6292                 1.5290                 2.3503
 IR Inten    --      4.2438                 2.4249                 8.6387

                     40                     41                     42
                      A                      A                      A
 Frequencies --   1075.8253              1094.2004              1114.5944
 Red. masses --      2.8159                 2.4051                 2.0846
 Frc consts  --      1.9202                 1.6966                 1.5258
 IR Inten    --     26.0304                10.3918                19.3610

                     43                     44                     45
                      A                      A                      A
 Frequencies --   1122.0028              1128.9017              1160.5829
 Red. masses --      1.6436                 2.7588                 2.3426
 Frc consts  --      1.2191                 2.0715                 1.8591
 IR Inten    --     15.8540                 7.6066                14.1803

                     46                     47                     48
                      A                      A                      A
 Frequencies --   1173.9114              1211.4655              1235.7989
 Red. masses --      1.3451                 1.6120                 2.2269
 Frc consts  --      1.0921                 1.3939                 2.0037
 IR Inten    --      4.2949                15.1762                10.0329

                     49                     50                     51
                      A                      A                      A
 Frequencies --   1253.0565              1277.9323              1292.5506
 Red. masses --      1.6501                 1.5326                 1.4792
 Frc consts  --      1.5265                 1.4747                 1.4561
 IR Inten    --     23.9091                12.1242                 0.5631

                     52                     53                     54
                      A                      A                      A
 Frequencies --   1296.9061              1328.9378              1354.0652
 Red. masses --      1.4633                 1.8430                 1.1293
 Frc consts  --      1.4501                 1.9177                 1.2199
 IR Inten    --     43.9216                14.8182                 4.8296

                     55                     56                     57
                      A                      A                      A
 Frequencies --   1368.5388              1385.3521              1399.6969
 Red. masses --      1.8276                 1.4816                 1.5307
 Frc consts  --      2.0167                 1.6753                 1.7669
 IR Inten    --      0.9496                 7.0761                15.8295

                     58                     59                     60
                      A                      A                      A
 Frequencies --   1433.7933              1441.3488              1449.2476
 Red. masses --      2.2905                 2.8520                 1.5130
 Frc consts  --      2.7744                 3.4909                 1.8723
 IR Inten    --      6.8175                19.3051                33.1691

                     61                     62                     63
                      A                      A                      A
 Frequencies --   1477.2752              1493.9847              1505.5072
 Red. masses --      1.4173                 1.0941                 1.2525
 Frc consts  --      1.8223                 1.4389                 1.6726
 IR Inten    --    298.9108                10.6069                25.4576

                     64                     65                     66
                      A                      A                      A
 Frequencies --   1519.7069              1543.6359              1558.4692
 Red. masses --      2.8507                 1.0850                 2.1955
 Frc consts  --      3.8790                 1.5233                 3.1418
 IR Inten    --     12.3892                 1.0316               326.5786

                     67                     68                     69
                      A                      A                      A
 Frequencies --   1623.4014              1701.2381              1723.2977
 Red. masses --      4.2569                 1.0984                 7.2558
 Frc consts  --      6.6100                 1.8731                12.6957
 IR Inten    --     10.9389                21.5906               211.3280

                     70                     71                     72
                      A                      A                      A
 Frequencies --   1861.0282              2970.1516              3040.0086
 Red. masses --      8.8862                 1.0744                 1.0814
 Frc consts  --     18.1332                 5.5843                 5.8883
 IR Inten    --    309.6831                69.0174                 4.1994

                     73                     74                     75
                      A                      A                      A
 Frequencies --   3046.3617              3053.2991              3086.1129
 Red. masses --      1.0608                 1.0663                 1.0995
 Frc consts  --      5.8005                 5.8567                 6.1698
 IR Inten    --     15.1397                16.2040                 6.8195

                     76                     77                     78
                      A                      A                      A
 Frequencies --   3089.5379              3122.0936              3261.5610
 Red. masses --      1.0979                 1.0906                 1.0954
 Frc consts  --      6.1747                 6.2635                 6.8654
 IR Inten    --      8.9383                17.0206                11.2071

                     79                     80                     81
                      A                      A                      A
 Frequencies --   3266.6982              3269.6502              3467.6184
 Red. masses --      1.0721                 1.0981                 1.0505
 Frc consts  --      6.7408                 6.9166                 7.4426
 IR Inten    --    644.3608                 1.0436                 1.4897

                     82                     83                     84
                      A                      A                      A
 Frequencies --   3553.5717              3606.3567              3641.5959
 Red. masses --      1.0918                 1.0778                 1.0809
 Frc consts  --      8.1228                 8.2592                 8.4456
 IR Inten    --      0.0758                42.3975                45.2878

 - Thermochemistry -
 -------------------
 Temperature   298.150 Kelvin.  Pressure   1.00000 Atm.
 Atom     1 has atomic number  8 and mass  15.99491

 Molecular mass:   226.10659 amu.
 Principal axes and moments of inertia in atomic units:
                           1         2         3
     Eigenvalues --  3127.775705365.102717961.72931
           X            0.78832   0.04725  -0.61344
           Y           -0.28938   0.90835  -0.30191
           Z            0.54296   0.41553   0.72975
 This molecule is an asymmetric top.
 Rotational symmetry number  1.
 Warning -- assumption of classical behavior for rotation
           may cause significant error
 Rotational temperatures (Kelvin)      0.02769     0.01614     0.01088
 Rotational constants (GHZ):           0.57700     0.33639     0.22668
 Zero-point vibrational energy     645695.3 (Joules/Mol)
                                  154.32487 (Kcal/Mol)
 Warning -- explicit consideration of  21 degrees of freedom as
           vibrations may cause significant error
 Vibrational temperatures:     24.10    41.64    67.47    93.55    96.22
          (Kelvin)            120.07   126.10   231.24   247.16   310.65
                              336.44   361.42   385.13   412.13   455.34
                              520.04   557.20   632.62   702.64   737.14
                              788.18   897.14   898.63   934.71   980.00
                             1053.46  1087.75  1109.37  1146.83  1161.27
                             1204.62  1261.24  1266.03  1281.60  1351.76
                             1369.13  1401.48  1453.36  1484.95  1547.87
                             1574.31  1603.65  1614.31  1624.24  1669.82
                             1688.99  1743.03  1778.04  1802.87  1838.66
                             1859.69  1865.96  1912.04  1948.20  1969.02
                             1993.21  2013.85  2062.91  2073.78  2085.14
                             2125.47  2149.51  2166.09  2186.52  2220.95
                             2242.29  2335.71  2447.70  2479.44  2677.60
                             4273.38  4373.89  4383.03  4393.01  4440.22
                             4445.15  4491.99  4692.65  4700.04  4704.29
                             4989.12  5112.79  5188.74  5239.44

 Zero-point correction=                           0.245932 (Hartree/Particle)
 Thermal correction to Energy=                    0.261927
 Thermal correction to Enthalpy=                  0.262872
 Thermal correction to Gibbs Free Energy=         0.199337
 Sum of electronic and zero-point Energies=           -795.888041
 Sum of electronic and thermal Energies=              -795.872045
 Sum of electronic and thermal Enthalpies=            -795.871101
 Sum of electronic and thermal Free Energies=         -795.934636

                     E (Thermal)             CV                S
                      KCal/Mol        Cal/Mol-Kelvin    Cal/Mol-Kelvin
 Total                  164.362             57.736            133.719
 Electronic               0.000              0.000              0.000
 Translational            0.889              2.981             42.150
 Rotational               0.889              2.981             33.257
 Vibrational            162.584             51.775             58.312
 Vibration     1          0.593              1.986              6.986
 Vibration     2          0.593              1.984              5.900
 Vibration     3          0.595              1.979              4.944
 Vibration     4          0.597              1.971              4.299
 Vibration     5          0.598              1.970              4.243
 Vibration     6          0.600              1.961              3.808
 Vibration     7          0.601              1.958              3.712
 Vibration     8          0.622              1.891              2.541
 Vibration     9          0.626              1.877              2.416
 Vibration    10          0.645              1.817              1.993
 Vibration    11          0.654              1.789              1.849
 Vibration    12          0.663              1.761              1.722
 Vibration    13          0.673              1.732              1.611
 Vibration    14          0.684              1.699              1.495
 Vibration    15          0.703              1.642              1.328
 Vibration    16          0.736              1.552              1.116
 Vibration    17          0.756              1.497              1.011
 Vibration    18          0.800              1.384              0.828
 Vibration    19          0.844              1.276              0.688
 Vibration    20          0.867              1.223              0.628
 Vibration    21          0.903              1.144              0.549

 Normal termination of Gaussian 09 at Tue Jul 27 02:08:00 2021.
