 Gaussian 09, Revision D.01,
 Gaussian 09:  ES64L-G09RevD.01 24-Apr-2013

 ----------------------------------------------------------------------
 # B3LYP/6-31G(d) EmpiricalDispersion=GD3BJ opt=calcfc freq=noraman nos
 ymm integral(ultrafinegrid)
 ----------------------------------------------------------------------

 ------------------------------------------------------------
 Candidate Structure: Conf:340 OPT and FREQ calc in gas phase
 ------------------------------------------------------------
 Symbolic Z-matrix:
 Charge =  0 Multiplicity = 1

 SCF Done:  E(RB3LYP) =  -796.132924606     A.U. after   14 cycles
 SCF Done:  E(RB3LYP) =  -796.136013048     A.U. after   14 cycles
 SCF Done:  E(RB3LYP) =  -796.136014876     A.U. after   14 cycles
 SCF Done:  E(RB3LYP) =  -796.135873098     A.U. after   14 cycles
 SCF Done:  E(RB3LYP) =  -796.136145555     A.U. after   10 cycles
 SCF Done:  E(RB3LYP) =  -796.136353877     A.U. after   12 cycles
 SCF Done:  E(RB3LYP) =  -796.136377567     A.U. after   11 cycles
 SCF Done:  E(RB3LYP) =  -796.136389803     A.U. after   10 cycles
 SCF Done:  E(RB3LYP) =  -796.136390598     A.U. after    8 cycles
 SCF Done:  E(RB3LYP) =  -796.136390682     A.U. after    8 cycles
 Optimization completed.
    -- Stationary point found.
 Normal termination of Gaussian 09 at Tue Jul 27 01:52:15 2021.

 --------------------------------------------------------------------
 #N Geom=AllCheck Guess=TCheck SCRF=Check GenChk RB3LYP/6-31G(d) Freq
 --------------------------------------------------------------------

 Structure from the checkpoint file:  "conf-340.chk"
 ------------------------------------------------------------
 Candidate Structure: Conf:340 OPT and FREQ calc in gas phase
 ------------------------------------------------------------
 Charge =  0 Multiplicity = 1

                          Input orientation:
 ---------------------------------------------------------------------
 Center     Atomic      Atomic             Coordinates (Angstroms)
 Number     Number       Type             X           Y           Z
 ---------------------------------------------------------------------
      1          8           0        0.589739   -0.998644   -0.724352
      2          6           0        1.372830   -0.189054   -0.213250
      3          7           0        0.932902    0.982065    0.315739
      4          6           0       -0.455406    1.339478    0.166097
      5          6           0       -0.635390    2.826821    0.426381
      6          8           0       -1.897882    3.271974    0.275714
      7          8           0        0.264458    3.562369    0.756977
      8          6           0       -1.408125    0.494997    1.081408
      9          6           0       -2.601905    0.054381    0.309796
     10          6           0       -3.938893    0.392442    0.305847
     11          7           0       -4.604441   -0.262850   -0.711277
     12          6           0       -3.682423   -0.979800   -1.320784
     13          7           0       -2.453069   -0.824246   -0.746454
     14          6           0        2.865801   -0.444555   -0.143101
     15          6           0        3.175219   -1.903204    0.202013
     16          7           0        4.616534   -2.139933    0.104008
     17          1           0        1.562836    1.707385    0.637762
     18          1           0       -0.744230    1.144744   -0.873944
     19          1           0       -2.495038    2.540427    0.015622
     20          1           0       -0.840522   -0.369242    1.436136
     21          1           0       -1.712385    1.066903    1.963232
     22          1           0       -4.462875    1.039300    0.998331
     23          1           0       -3.847430   -1.627070   -2.171428
     24          1           0       -1.552222   -1.209366   -1.021822
     25          1           0        3.301005   -0.224491   -1.125808
     26          1           0        3.339384    0.235186    0.576778
     27          1           0        2.666413   -2.538640   -0.527977
     28          1           0        2.738158   -2.141414    1.188453
     29          1           0        4.809202   -3.133409    0.216240
     30          1           0        5.097631   -1.672442    0.871523
 ---------------------------------------------------------------------

 SCF Done:  E(RB3LYP) =  -796.136390682     A.U. after    1 cycles

 Alpha  occ. eigenvalues --  -19.20933 -19.15561 -19.13798 -14.38936 -14.38162
 Alpha  occ. eigenvalues --  -14.32349 -14.31577 -10.33843 -10.30874 -10.26165
 Alpha  occ. eigenvalues --  -10.24445 -10.22923 -10.22325 -10.22086 -10.20677
 Alpha  occ. eigenvalues --  -10.20664  -1.11729  -1.05541  -1.03745  -1.01613
 Alpha  occ. eigenvalues --   -0.94744  -0.89155  -0.87351  -0.81622  -0.77353
 Alpha  occ. eigenvalues --   -0.74084  -0.68650  -0.64414  -0.62313  -0.61662
 Alpha  occ. eigenvalues --   -0.60551  -0.59415  -0.56248  -0.54951  -0.51122
 Alpha  occ. eigenvalues --   -0.50122  -0.49393  -0.48012  -0.47115  -0.46031
 Alpha  occ. eigenvalues --   -0.45512  -0.43887  -0.43457  -0.42477  -0.41950
 Alpha  occ. eigenvalues --   -0.41386  -0.40719  -0.40087  -0.39708  -0.39053
 Alpha  occ. eigenvalues --   -0.36272  -0.35812  -0.33239  -0.29660  -0.28364
 Alpha  occ. eigenvalues --   -0.28086  -0.27563  -0.26878  -0.24619  -0.23390
 Alpha virt. eigenvalues --   -0.01128   0.00507   0.01926   0.05172   0.06942
 Alpha virt. eigenvalues --    0.07753   0.08045   0.10534   0.10799   0.11329
 Alpha virt. eigenvalues --    0.12996   0.13259   0.14017   0.15045   0.15502

 Mulliken charges:
               1
     1  O   -0.557019
     2  C    0.631239
     3  N   -0.617874
     4  C   -0.057029
     5  C    0.602403
     6  O   -0.571443
     7  O   -0.455041
     8  C   -0.375811
     9  C    0.273648
    10  C   -0.100325
    11  N   -0.422892
    12  C    0.210090
    13  N   -0.594765
    14  C   -0.354813
    15  C   -0.139602
    16  N   -0.717156
    17  H    0.354195
    18  H    0.195369
    19  H    0.420302
    20  H    0.192338
    21  H    0.179466
    22  H    0.142870
    23  H    0.161683
    24  H    0.375397
    25  H    0.192526
    26  H    0.140274
    27  H    0.173072
    28  H    0.121239
    29  H    0.303091
    30  H    0.294567
 Sum of Mulliken charges =   0.00000

 Dipole moment (field-independent basis, Debye):
    X=              3.3561    Y=             -2.6112    Z=              1.3610  Tot=              4.4648
 Quadrupole moment (field-independent basis, Debye-Ang):
   XX=           -106.3323   YY=           -104.3719   ZZ=            -89.6438
   XY=             -3.0759   XZ=              5.1607   YZ=             -3.3996

  Exact polarizability: 158.497  -4.903 119.506  10.642  20.852  92.606
 Approx polarizability: 216.098   2.789 177.996  16.873  39.099 149.395

                      1                      2                      3
                      A                      A                      A
 Frequencies --     18.3640                41.6486                60.2372
 Red. masses --      3.4415                 5.6624                 2.6527
 Frc consts  --      0.0007                 0.0058                 0.0057
 IR Inten    --      0.8503                 2.0549                 5.1432

                      4                      5                      6
                      A                      A                      A
 Frequencies --     78.0975                86.1274                90.6781
 Red. masses --      4.2269                 6.2515                 5.2229
 Frc consts  --      0.0152                 0.0273                 0.0253
 IR Inten    --      2.6478                 2.3609                 1.8893

                      7                      8                      9
                      A                      A                      A
 Frequencies --    102.0199               119.2074               167.9995
 Red. masses --      6.3770                 5.7508                 4.3647
 Frc consts  --      0.0391                 0.0481                 0.0726
 IR Inten    --      6.3666                 6.1623                 7.7140

                     10                     11                     12
                      A                      A                      A
 Frequencies --    195.7391               209.9217               262.9435
 Red. masses --      5.3559                 4.0250                 1.4407
 Frc consts  --      0.1209                 0.1045                 0.0587
 IR Inten    --     10.9455                 9.3505                41.4388

                     13                     14                     15
                      A                      A                      A
 Frequencies --    281.4982               321.2714               344.0619
 Red. masses --      3.1821                 5.6084                 2.3942
 Frc consts  --      0.1486                 0.3411                 0.1670
 IR Inten    --     15.7511                 2.5508                 6.3389

                     16                     17                     18
                      A                      A                      A
 Frequencies --    361.1111               397.8666               413.0102
 Red. masses --      5.9601                 4.0297                 3.8889
 Frc consts  --      0.4579                 0.3758                 0.3908
 IR Inten    --      8.9657                 7.6478                 9.3552

                     19                     20                     21
                      A                      A                      A
 Frequencies --    525.4710               553.9670               614.0800
 Red. masses --      1.4160                 2.7046                 3.0911
 Frc consts  --      0.2304                 0.4890                 0.6868
 IR Inten    --     63.7877                15.5469                22.5578

                     22                     23                     24
                      A                      A                      A
 Frequencies --    642.5226               648.5094               663.1729
 Red. masses --      1.7486                 3.4261                 2.4495
 Frc consts  --      0.4253                 0.8489                 0.6347
 IR Inten    --    114.8887                 6.9712                 4.4183

                     25                     26                     27
                      A                      A                      A
 Frequencies --    681.7165               716.5636               749.7836
 Red. masses --      3.9136                 3.0618                 1.2914
 Frc consts  --      1.0716                 0.9263                 0.4277
 IR Inten    --      7.9063                 5.3378                54.3426

                     28                     29                     30
                      A                      A                      A
 Frequencies --    758.7541               775.2847               810.2347
 Red. masses --      2.7506                 3.9540                 1.3626
 Frc consts  --      0.9330                 1.4003                 0.5270
 IR Inten    --     15.2626                 4.0025                 8.5075

                     31                     32                     33
                      A                      A                      A
 Frequencies --    818.5024               838.3828               867.4414
 Red. masses --      1.4017                 1.2825                 2.8463
 Frc consts  --      0.5533                 0.5311                 1.2618
 IR Inten    --     21.0826                25.3918                 8.5178

                     34                     35                     36
                      A                      A                      A
 Frequencies --    882.0958               944.8310               958.6024
 Red. masses --      1.3320                 5.8835                 2.8176
 Frc consts  --      0.6106                 3.0945                 1.5255
 IR Inten    --    133.0633                15.2930                10.9189

                     37                     38                     39
                      A                      A                      A
 Frequencies --    993.9403               998.1373              1027.6753
 Red. masses --      2.2251                 5.2258                 3.5066
 Frc consts  --      1.2952                 3.0675                 2.1820
 IR Inten    --      3.3430                 2.0084                15.3307

                     40                     41                     42
                      A                      A                      A
 Frequencies --   1041.6086              1077.5385              1111.8640
 Red. masses --      3.0675                 2.7500                 1.9928
 Frc consts  --      1.9609                 1.8812                 1.4515
 IR Inten    --      3.3793                23.3304                17.6190

                     43                     44                     45
                      A                      A                      A
 Frequencies --   1130.7211              1150.7901              1152.3690
 Red. masses --      1.6744                 1.7575                 2.0554
 Frc consts  --      1.2613                 1.3713                 1.6082
 IR Inten    --     39.7566                 5.5519                 6.7196

                     46                     47                     48
                      A                      A                      A
 Frequencies --   1180.9790              1207.4915              1221.6563
 Red. masses --      1.4421                 1.7812                 2.0560
 Frc consts  --      1.1850                 1.5302                 1.8079
 IR Inten    --      3.9713                25.7007                17.2460

                     49                     50                     51
                      A                      A                      A
 Frequencies --   1241.7851              1270.9547              1277.5304
 Red. masses --      1.5446                 2.2414                 1.4040
 Frc consts  --      1.4034                 2.1331                 1.3501
 IR Inten    --     19.7813                22.5657                 2.6021

                     52                     53                     54
                      A                      A                      A
 Frequencies --   1289.0340              1324.8341              1345.9279
 Red. masses --      1.3639                 1.3272                 1.3246
 Frc consts  --      1.3352                 1.3725                 1.4138
 IR Inten    --      5.7320                28.8909                 4.9007

                     55                     56                     57
                      A                      A                      A
 Frequencies --   1352.9189              1372.5823              1387.8733
 Red. masses --      1.1704                 1.7707                 1.6634
 Frc consts  --      1.2622                 1.9655                 1.8878
 IR Inten    --     37.5778               209.4628                17.3677

                     58                     59                     60
                      A                      A                      A
 Frequencies --   1400.2594              1431.8943              1447.3432
 Red. masses --      2.4283                 1.7535                 1.5369
 Frc consts  --      2.8052                 2.1183                 1.8969
 IR Inten    --     22.9786                62.5515                46.9215

                     61                     62                     63
                      A                      A                      A
 Frequencies --   1450.6696              1499.4088              1512.3896
 Red. masses --      2.5937                 1.1008                 1.1526
 Frc consts  --      3.2160                 1.4582                 1.5533
 IR Inten    --     81.1928                 8.0366                11.0658

                     64                     65                     66
                      A                      A                      A
 Frequencies --   1520.8601              1542.9279              1545.0679
 Red. masses --      3.2974                 2.6524                 1.0854
 Frc consts  --      4.4937                 3.7203                 1.5267
 IR Inten    --     43.8134               276.3512                 0.5622

                     67                     68                     69
                      A                      A                      A
 Frequencies --   1625.9841              1700.5696              1732.3789
 Red. masses --      4.4743                 1.0935                 8.6276
 Frc consts  --      6.9696                 1.8631                15.2554
 IR Inten    --     12.8649                20.9827               182.1444

                     70                     71                     72
                      A                      A                      A
 Frequencies --   1869.7061              2960.4734              3048.8556
 Red. masses --      9.7165                 1.0744                 1.0609
 Frc consts  --     20.0127                 5.5480                 5.8105
 IR Inten    --    288.4260                77.4708                15.8315

                     73                     74                     75
                      A                      A                      A
 Frequencies --   3053.9849              3085.0198              3090.8096
 Red. masses --      1.0823                 1.0608                 1.0990
 Frc consts  --      5.9473                 5.9483                 6.1857
 IR Inten    --      9.4181                15.7069                 7.1595

                     76                     77                     78
                      A                      A                      A
 Frequencies --   3119.6993              3128.9264              3248.1778
 Red. masses --      1.0909                 1.1055                 1.0961
 Frc consts  --      6.2553                 6.3767                 6.8136
 IR Inten    --     20.4573                 8.0000                 5.4466

                     79                     80                     81
                      A                      A                      A
 Frequencies --   3270.4429              3466.4302              3543.4276
 Red. masses --      1.0975                 1.0504                 1.0834
 Frc consts  --      6.9164                 7.4364                 8.0145
 IR Inten    --      2.3284                 1.8568               199.9164

                     82                     83                     84
                      A                      A                      A
 Frequencies --   3551.9766              3588.9778              3595.4818
 Red. masses --      1.0918                 1.0676                 1.0778
 Frc consts  --      8.1162                 8.1019                 8.2093
 IR Inten    --      0.1071               184.4191               131.9442

 - Thermochemistry -
 -------------------
 Temperature   298.150 Kelvin.  Pressure   1.00000 Atm.
 Atom     1 has atomic number  8 and mass  15.99491

 Molecular mass:   226.10659 amu.
 Principal axes and moments of inertia in atomic units:
                           1         2         3
     Eigenvalues --  2434.707206065.045498112.83515
           X            0.95960   0.26154  -0.10373
           Y           -0.27930   0.92996  -0.23911
           Z            0.03393   0.25842   0.96544
 This molecule is an asymmetric top.
 Rotational symmetry number  1.
 Warning -- assumption of classical behavior for rotation
           may cause significant error
 Rotational temperatures (Kelvin)      0.03557     0.01428     0.01068
 Rotational constants (GHZ):           0.74126     0.29756     0.22246
 Zero-point vibrational energy     647132.3 (Joules/Mol)
                                  154.66833 (Kcal/Mol)
 Warning -- explicit consideration of  21 degrees of freedom as
           vibrations may cause significant error
 Vibrational temperatures:     26.42    59.92    86.67   112.36   123.92
          (Kelvin)            130.47   146.78   171.51   241.71   281.62
                              302.03   378.32   405.01   462.24   495.03
                              519.56   572.44   594.23   756.03   797.03
                              883.52   924.45   933.06   954.16   980.84
                             1030.97  1078.77  1091.68  1115.46  1165.75
                             1177.64  1206.24  1248.05  1269.14  1359.40
                             1379.21  1430.06  1436.10  1478.59  1498.64
                             1550.34  1599.72  1626.85  1655.73  1658.00
                             1699.16  1737.31  1757.69  1786.65  1828.62
                             1838.08  1854.63  1906.14  1936.49  1946.55
                             1974.84  1996.84  2014.66  2060.17  2082.40
                             2087.19  2157.31  2175.99  2188.18  2219.93
                             2223.01  2339.43  2446.74  2492.50  2690.09
                             4259.46  4386.62  4394.00  4438.65  4446.98
                             4488.55  4501.82  4673.40  4705.43  4987.41
                             5098.20  5110.50  5163.73  5173.09

 Zero-point correction=                           0.246480 (Hartree/Particle)
 Thermal correction to Energy=                    0.262283
 Thermal correction to Enthalpy=                  0.263227
 Thermal correction to Gibbs Free Energy=         0.200903
 Sum of electronic and zero-point Energies=           -795.889911
 Sum of electronic and thermal Energies=              -795.874108
 Sum of electronic and thermal Enthalpies=            -795.873164
 Sum of electronic and thermal Free Energies=         -795.935488

                     E (Thermal)             CV                S
                      KCal/Mol        Cal/Mol-Kelvin    Cal/Mol-Kelvin
 Total                  164.585             57.535            131.171
 Electronic               0.000              0.000              0.000
 Translational            0.889              2.981             42.150
 Rotational               0.889              2.981             33.149
 Vibrational            162.807             51.573             55.873
 Vibration     1          0.593              1.986              6.804
 Vibration     2          0.594              1.981              5.179
 Vibration     3          0.597              1.973              4.449
 Vibration     4          0.599              1.964              3.938
 Vibration     5          0.601              1.959              3.746
 Vibration     6          0.602              1.956              3.645
 Vibration     7          0.604              1.948              3.415
 Vibration     8          0.609              1.933              3.113
 Vibration     9          0.625              1.882              2.458
 Vibration    10          0.636              1.846              2.173
 Vibration    11          0.642              1.826              2.044
 Vibration    12          0.670              1.741              1.642
 Vibration    13          0.681              1.708              1.525
 Vibration    14          0.707              1.633              1.304
 Vibration    15          0.723              1.587              1.193
 Vibration    16          0.735              1.552              1.117
 Vibration    17          0.764              1.475              0.971
 Vibration    18          0.777              1.442              0.916
 Vibration    19          0.880              1.194              0.597
 Vibration    20          0.909              1.131              0.536
 Vibration    21          0.973              1.002              0.426

 Optimization completed.
    -- Stationary point found.
 Normal termination of Gaussian 09 at Tue Jul 27 02:07:48 2021.
