 Gaussian 09, Revision D.01,
 Gaussian 09:  ES64L-G09RevD.01 24-Apr-2013

 ----------------------------------------------------------------------
 # B3LYP/6-31G(d) EmpiricalDispersion=GD3BJ opt=calcfc freq=noraman nos
 ymm integral(ultrafinegrid)
 ----------------------------------------------------------------------

 ------------------------------------------------------------
 Candidate Structure: Conf:609 OPT and FREQ calc in gas phase
 ------------------------------------------------------------
 Symbolic Z-matrix:
 Charge =  0 Multiplicity = 1

 SCF Done:  E(RB3LYP) =  -796.126178492     A.U. after   14 cycles
 SCF Done:  E(RB3LYP) =  -796.128389749     A.U. after   14 cycles
 SCF Done:  E(RB3LYP) =  -796.128659928     A.U. after   14 cycles
 SCF Done:  E(RB3LYP) =  -796.129032049     A.U. after   12 cycles
 SCF Done:  E(RB3LYP) =  -796.129094449     A.U. after   14 cycles
 SCF Done:  E(RB3LYP) =  -796.129371967     A.U. after   13 cycles
 SCF Done:  E(RB3LYP) =  -796.129398405     A.U. after   11 cycles
 SCF Done:  E(RB3LYP) =  -796.129395081     A.U. after   12 cycles
 SCF Done:  E(RB3LYP) =  -796.129415741     A.U. after   11 cycles
 SCF Done:  E(RB3LYP) =  -796.129416612     A.U. after   10 cycles
 SCF Done:  E(RB3LYP) =  -796.129416649     A.U. after    8 cycles
 Optimization completed.
    -- Stationary point found.
 Normal termination of Gaussian 09 at Tue Jul 27 01:54:01 2021.

 --------------------------------------------------------------------
 #N Geom=AllCheck Guess=TCheck SCRF=Check GenChk RB3LYP/6-31G(d) Freq
 --------------------------------------------------------------------

 Structure from the checkpoint file:  "conf-609.chk"
 ------------------------------------------------------------
 Candidate Structure: Conf:609 OPT and FREQ calc in gas phase
 ------------------------------------------------------------
 Charge =  0 Multiplicity = 1

                          Input orientation:
 ---------------------------------------------------------------------
 Center     Atomic      Atomic             Coordinates (Angstroms)
 Number     Number       Type             X           Y           Z
 ---------------------------------------------------------------------
      1          8           0        1.373305    1.343963   -0.377471
      2          6           0        1.617184    0.446322    0.421249
      3          7           0        0.630967   -0.401047    0.867404
      4          6           0       -0.647945   -0.413694    0.170437
      5          6           0       -0.381844   -0.714533   -1.313023
      6          8           0       -1.291388   -0.162176   -2.158540
      7          8           0        0.516265   -1.416090   -1.712199
      8          6           0       -1.489824    0.858849    0.455169
      9          6           0       -2.966767    0.634978    0.444212
     10          6           0       -3.894682    0.607218    1.461586
     11          7           0       -5.160013    0.353306    0.977458
     12          6           0       -5.007543    0.223867   -0.324285
     13          7           0       -3.704502    0.387320   -0.699731
     14          6           0        3.018005    0.162503    0.921575
     15          6           0        3.871425   -0.426819   -0.230460
     16          7           0        5.261490   -0.718546    0.101253
     17          1           0        0.924327   -1.266610    1.298302
     18          1           0       -1.205385   -1.274814    0.556544
     19          1           0       -1.011255   -0.427960   -3.055257
     20          1           0       -1.213564    1.191257    1.459401
     21          1           0       -1.184012    1.650870   -0.232645
     22          1           0       -3.717378    0.767945    2.517140
     23          1           0       -5.794463    0.015853   -1.036863
     24          1           0       -3.303440    0.306702   -1.623259
     25          1           0        3.458850    1.109173    1.252373
     26          1           0        3.012658   -0.524948    1.777350
     27          1           0        3.399340   -1.347395   -0.592797
     28          1           0        3.851172    0.280749   -1.064935
     29          1           0        5.308545   -1.375881    0.878503
     30          1           0        5.730543    0.129644    0.415960
 ---------------------------------------------------------------------

 SCF Done:  E(RB3LYP) =  -796.129416649     A.U. after    1 cycles

 Alpha  occ. eigenvalues --  -19.22338 -19.15812 -19.12509 -14.37980 -14.37435
 Alpha  occ. eigenvalues --  -14.31970 -14.30236 -10.34111 -10.29619 -10.26068
 Alpha  occ. eigenvalues --  -10.23074 -10.21570 -10.21245 -10.20462 -10.20062
 Alpha  occ. eigenvalues --  -10.18804  -1.12874  -1.04720  -1.03494  -1.00286
 Alpha  occ. eigenvalues --   -0.93861  -0.88749  -0.86017  -0.80636  -0.76254
 Alpha  occ. eigenvalues --   -0.73271  -0.67659  -0.64969  -0.62059  -0.60661
 Alpha  occ. eigenvalues --   -0.58759  -0.57962  -0.54399  -0.52046  -0.51297
 Alpha  occ. eigenvalues --   -0.50576  -0.50248  -0.47888  -0.46297  -0.44886
 Alpha  occ. eigenvalues --   -0.44413  -0.42911  -0.42605  -0.41873  -0.41241
 Alpha  occ. eigenvalues --   -0.40266  -0.39855  -0.39243  -0.38702  -0.38209
 Alpha  occ. eigenvalues --   -0.36918  -0.35024  -0.33703  -0.29568  -0.27819
 Alpha  occ. eigenvalues --   -0.27000  -0.26578  -0.25647  -0.23705  -0.21608
 Alpha virt. eigenvalues --   -0.01299   0.01188   0.03415   0.05251   0.05658
 Alpha virt. eigenvalues --    0.07628   0.07808   0.11423   0.12210   0.12323
 Alpha virt. eigenvalues --    0.12684   0.14598   0.15092   0.15446   0.16238

 Mulliken charges:
               1
     1  O   -0.521734
     2  C    0.616433
     3  N   -0.584777
     4  C   -0.055044
     5  C    0.618078
     6  O   -0.586860
     7  O   -0.461619
     8  C   -0.349444
     9  C    0.300426
    10  C   -0.082274
    11  N   -0.427284
    12  C    0.203033
    13  N   -0.603870
    14  C   -0.369262
    15  C   -0.149368
    16  N   -0.699055
    17  H    0.333142
    18  H    0.185768
    19  H    0.420070
    20  H    0.172612
    21  H    0.197010
    22  H    0.126377
    23  H    0.149930
    24  H    0.347357
    25  H    0.165736
    26  H    0.127773
    27  H    0.163274
    28  H    0.175139
    29  H    0.292169
    30  H    0.296264
 Sum of Mulliken charges =   0.00000

 Dipole moment (field-independent basis, Debye):
    X=              1.9854    Y=             -1.6671    Z=             -0.0675  Tot=              2.5933
 Quadrupole moment (field-independent basis, Debye-Ang):
   XX=           -114.4858   YY=            -96.3876   ZZ=            -82.9104
   XY=              4.8261   XZ=             26.8845   YZ=             -3.0057

  Exact polarizability: 169.809  -2.610  86.899   2.958   1.889 114.614
 Approx polarizability: 211.267  -0.562 143.794  -1.452  -6.590 184.830

                      1                      2                      3
                      A                      A                      A
 Frequencies --     18.0437                23.6176                37.8404
 Red. masses --      4.0243                 5.4943                 6.0232
 Frc consts  --      0.0008                 0.0018                 0.0051
 IR Inten    --      2.8514                 7.1882                 4.1034

                      4                      5                      6
                      A                      A                      A
 Frequencies --     53.7921                71.5359                93.4529
 Red. masses --      5.0566                 3.0675                 2.3598
 Frc consts  --      0.0086                 0.0092                 0.0121
 IR Inten    --      1.6982                 3.8257                 2.7201

                      7                      8                      9
                      A                      A                      A
 Frequencies --     97.5952               131.0886               150.4698
 Red. masses --      8.8606                 6.4612                 6.3419
 Frc consts  --      0.0497                 0.0654                 0.0846
 IR Inten    --      3.0088                 1.7075                 5.7900

                     10                     11                     12
                      A                      A                      A
 Frequencies --    193.0291               221.5618               286.1468
 Red. masses --      4.6827                 5.3796                 3.8289
 Frc consts  --      0.1028                 0.1556                 0.1847
 IR Inten    --     10.8504                 2.0945                 9.0371

                     13                     14                     15
                      A                      A                      A
 Frequencies --    308.0499               317.9409               339.4261
 Red. masses --      2.9624                 1.1378                 4.4837
 Frc consts  --      0.1656                 0.0678                 0.3044
 IR Inten    --      7.2674                48.2757                 1.6024

                     16                     17                     18
                      A                      A                      A
 Frequencies --    370.3545               391.8214               433.3924
 Red. masses --      3.2332                 3.6047                 2.9042
 Frc consts  --      0.2613                 0.3261                 0.3214
 IR Inten    --      1.9739                12.7029                 4.7118

                     19                     20                     21
                      A                      A                      A
 Frequencies --    476.3227               517.5922               551.8178
 Red. masses --      1.5996                 3.5968                 3.0287
 Frc consts  --      0.2138                 0.5677                 0.5434
 IR Inten    --     80.3139                32.9931                34.8131

                     22                     23                     24
                      A                      A                      A
 Frequencies --    584.7840               620.2137               674.7361
 Red. masses --      1.5710                 2.0086                 2.9479
 Frc consts  --      0.3165                 0.4552                 0.7907
 IR Inten    --     40.6188                90.1201                43.1398

                     25                     26                     27
                      A                      A                      A
 Frequencies --    693.5548               694.1002               730.5359
 Red. masses --      2.7462                 2.0462                 3.4044
 Frc consts  --      0.7783                 0.5808                 1.0705
 IR Inten    --     31.2385                 7.8879                33.2578

                     28                     29                     30
                      A                      A                      A
 Frequencies --    741.5731               777.6338               781.5860
 Red. masses --      6.0349                 1.3387                 2.4947
 Frc consts  --      1.9554                 0.4770                 0.8979
 IR Inten    --      6.4720                 1.5046                 2.8957

                     31                     32                     33
                      A                      A                      A
 Frequencies --    792.6955               838.0043               851.7469
 Red. masses --      1.3909                 1.4759                 2.7216
 Frc consts  --      0.5149                 0.6106                 1.1633
 IR Inten    --     15.5884                29.8716                17.6750

                     34                     35                     36
                      A                      A                      A
 Frequencies --    876.3091               920.3441               942.9752
 Red. masses --      1.6593                 2.5394                 5.8089
 Frc consts  --      0.7508                 1.2673                 3.0433
 IR Inten    --    210.7210                 1.7863                15.7835

                     37                     38                     39
                      A                      A                      A
 Frequencies --    977.2141               995.7014              1017.3384
 Red. masses --      1.9646                 1.8258                 4.3393
 Frc consts  --      1.1054                 1.0665                 2.6461
 IR Inten    --      6.2838                13.3791               117.2425

                     40                     41                     42
                      A                      A                      A
 Frequencies --   1035.6919              1056.4571              1097.4975
 Red. masses --      3.5975                 4.5415                 1.6602
 Frc consts  --      2.2736                 2.9864                 1.1782
 IR Inten    --     15.0108                 5.5587                 8.3972

                     43                     44                     45
                      A                      A                      A
 Frequencies --   1120.4984              1128.4397              1150.4524
 Red. masses --      3.1406                 1.5394                 1.7553
 Frc consts  --      2.3232                 1.1550                 1.3688
 IR Inten    --     11.0626                42.6306                32.5290

                     46                     47                     48
                      A                      A                      A
 Frequencies --   1157.0004              1177.5368              1211.3673
 Red. masses --      2.1980                 2.2378                 1.5366
 Frc consts  --      1.7336                 1.8282                 1.3285
 IR Inten    --     42.5004               180.1292                43.7404

                     49                     50                     51
                      A                      A                      A
 Frequencies --   1268.3636              1274.9108              1285.9162
 Red. masses --      1.8045                 2.0605                 1.4463
 Frc consts  --      1.7104                 1.9733                 1.4091
 IR Inten    --     43.3989                41.0454                 1.9771

                     52                     53                     54
                      A                      A                      A
 Frequencies --   1306.5045              1314.0738              1341.6034
 Red. masses --      1.3342                 1.2813                 1.4872
 Frc consts  --      1.3418                 1.3036                 1.5771
 IR Inten    --      4.5437                 2.1134                59.3442

                     55                     56                     57
                      A                      A                      A
 Frequencies --   1342.2127              1367.1706              1396.5991
 Red. masses --      1.3998                 1.9216                 1.8892
 Frc consts  --      1.4858                 2.1162                 2.1711
 IR Inten    --      3.4895                11.1034                 5.1027

                     58                     59                     60
                      A                      A                      A
 Frequencies --   1401.0168              1408.9734              1410.5449
 Red. masses --      1.2442                 2.7663                 1.2191
 Frc consts  --      1.4389                 3.2356                 1.4292
 IR Inten    --     16.7643                14.0899                 4.7494

                     61                     62                     63
                      A                      A                      A
 Frequencies --   1445.3679              1509.6773              1509.7365
 Red. masses --      2.8668                 1.2732                 1.1189
 Frc consts  --      3.5286                 1.7097                 1.5026
 IR Inten    --     32.0814                14.1031                 3.7170

                     64                     65                     66
                      A                      A                      A
 Frequencies --   1518.7072              1527.8360              1537.9519
 Red. masses --      2.4831                 1.0933                 1.8763
 Frc consts  --      3.3743                 1.5036                 2.6148
 IR Inten    --     22.6129                 5.1684               195.5148

                     67                     68                     69
                      A                      A                      A
 Frequencies --   1624.7754              1701.6296              1776.6554
 Red. masses --      4.4460                 1.0895                 9.2320
 Frc consts  --      6.9152                 1.8587                17.1693
 IR Inten    --      8.8265                22.9484               165.5535

                     70                     71                     72
                      A                      A                      A
 Frequencies --   1851.9268              3046.2151              3069.0802
 Red. masses --     10.1710                 1.0623                 1.0646
 Frc consts  --     20.5523                 5.8080                 5.9083
 IR Inten    --    259.5618                19.7482                21.6857

                     73                     74                     75
                      A                      A                      A
 Frequencies --   3074.0015              3094.7006              3098.9416
 Red. masses --      1.0830                 1.0619                 1.0979
 Frc consts  --      6.0295                 5.9922                 6.2124
 IR Inten    --      4.6919                10.0396                 7.2516

                     76                     77                     78
                      A                      A                      A
 Frequencies --   3124.5002              3139.3370              3251.5644
 Red. masses --      1.1058                 1.1035                 1.0959
 Frc consts  --      6.3607                 6.4076                 6.8269
 IR Inten    --     27.3449                 3.7152                10.5295

                     79                     80                     81
                      A                      A                      A
 Frequencies --   3264.3913              3462.1582              3547.4480
 Red. masses --      1.0973                 1.0490                 1.0927
 Frc consts  --      6.8896                 7.4086                 8.1021
 IR Inten    --      3.5001                 1.1300                 0.3965

                     82                     83                     84
                      A                      A                      A
 Frequencies --   3620.1608              3649.4757              3678.4212
 Red. masses --      1.0779                 1.0808                 1.0640
 Frc consts  --      8.3231                 8.4809                 8.4821
 IR Inten    --     20.1781               114.5835                58.8452

 - Thermochemistry -
 -------------------
 Temperature   298.150 Kelvin.  Pressure   1.00000 Atm.
 Atom     1 has atomic number  8 and mass  15.99491

 Molecular mass:   226.10659 amu.
 Principal axes and moments of inertia in atomic units:
                           1         2         3
     Eigenvalues --  1261.975497830.302708517.24719
           X            0.99610   0.04842   0.07379
           Y           -0.08623   0.35576   0.93059
           Z           -0.01881   0.93332  -0.35854
 This molecule is an asymmetric top.
 Rotational symmetry number  1.
 Warning -- assumption of classical behavior for rotation
           may cause significant error
 Rotational temperatures (Kelvin)      0.06863     0.01106     0.01017
 Rotational constants (GHZ):           1.43009     0.23048     0.21189
 Zero-point vibrational energy     645824.5 (Joules/Mol)
                                  154.35577 (Kcal/Mol)
 Warning -- explicit consideration of  23 degrees of freedom as
           vibrations may cause significant error
 Vibrational temperatures:     25.96    33.98    54.44    77.39   102.92
          (Kelvin)            134.46   140.42   188.61   216.49   277.73
                              318.78   411.70   443.21   457.45   488.36
                              532.86   563.74   623.55   685.32   744.70
                              793.94   841.37   892.35   970.79   997.87
                              998.65  1051.08  1066.96  1118.84  1124.53
                             1140.51  1205.70  1225.47  1260.81  1324.17
                             1356.73  1405.99  1432.59  1463.72  1490.13
                             1520.00  1579.05  1612.15  1623.57  1655.24
                             1664.66  1694.21  1742.89  1824.89  1834.31
                             1850.14  1879.77  1890.66  1930.27  1931.14
                             1967.05  2009.39  2015.75  2027.20  2029.46
                             2079.56  2172.09  2172.17  2185.08  2198.21
                             2212.77  2337.69  2448.26  2556.21  2664.51
                             4382.82  4415.72  4422.80  4452.58  4458.68
                             4495.45  4516.80  4678.27  4696.73  4981.27
                             5103.98  5208.60  5250.77  5292.42

 Zero-point correction=                           0.245982 (Hartree/Particle)
 Thermal correction to Energy=                    0.262066
 Thermal correction to Enthalpy=                  0.263010
 Thermal correction to Gibbs Free Energy=         0.199228
 Sum of electronic and zero-point Energies=           -795.883435
 Sum of electronic and thermal Energies=              -795.867351
 Sum of electronic and thermal Enthalpies=            -795.866407
 Sum of electronic and thermal Free Energies=         -795.930188

                     E (Thermal)             CV                S
                      KCal/Mol        Cal/Mol-Kelvin    Cal/Mol-Kelvin
 Total                  164.449             58.315            134.240
 Electronic               0.000              0.000              0.000
 Translational            0.889              2.981             42.150
 Rotational               0.889              2.981             32.798
 Vibrational            162.671             52.353             59.292
 Vibration     1          0.593              1.986              6.839
 Vibration     2          0.593              1.985              6.304
 Vibration     3          0.594              1.982              5.369
 Vibration     4          0.596              1.976              4.673
 Vibration     5          0.598              1.968              4.111
 Vibration     6          0.602              1.954              3.586
 Vibration     7          0.603              1.951              3.502
 Vibration     8          0.612              1.922              2.930
 Vibration     9          0.618              1.902              2.666
 Vibration    10          0.635              1.850              2.199
 Vibration    11          0.648              1.808              1.946
 Vibration    12          0.684              1.699              1.497
 Vibration    13          0.698              1.658              1.373
 Vibration    14          0.704              1.639              1.321
 Vibration    15          0.719              1.597              1.215
 Vibration    16          0.742              1.533              1.078
 Vibration    17          0.759              1.488              0.993
 Vibration    18          0.794              1.397              0.848
 Vibration    19          0.833              1.303              0.720
 Vibration    20          0.873              1.211              0.616
 Vibration    21          0.907              1.136              0.540
 Vibration    22          0.942              1.064              0.477
 Vibration    23          0.980              0.989              0.416

 Normal termination of Gaussian 09 at Tue Jul 27 02:09:34 2021.
