 Gaussian 09, Revision D.01,
 Gaussian 09:  ES64L-G09RevD.01 24-Apr-2013

 ----------------------------------------------------------------------
 # B3LYP/6-31G(d) EmpiricalDispersion=GD3BJ opt=calcfc freq=noraman nos
 ymm integral(ultrafinegrid)
 ----------------------------------------------------------------------

 ------------------------------------------------------------
 Candidate Structure: Conf:295 OPT and FREQ calc in gas phase
 ------------------------------------------------------------
 Symbolic Z-matrix:
 Charge =  0 Multiplicity = 1

 SCF Done:  E(RB3LYP) =  -796.130282080     A.U. after   14 cycles
 SCF Done:  E(RB3LYP) =  -796.133812726     A.U. after   14 cycles
 SCF Done:  E(RB3LYP) =  -796.133595884     A.U. after   14 cycles
 SCF Done:  E(RB3LYP) =  -796.134005305     A.U. after   11 cycles
 SCF Done:  E(RB3LYP) =  -796.134302750     A.U. after   11 cycles
 SCF Done:  E(RB3LYP) =  -796.134475157     A.U. after   12 cycles
 SCF Done:  E(RB3LYP) =  -796.134522607     A.U. after   11 cycles
 SCF Done:  E(RB3LYP) =  -796.134546285     A.U. after   11 cycles
 SCF Done:  E(RB3LYP) =  -796.134555546     A.U. after   10 cycles
 SCF Done:  E(RB3LYP) =  -796.134561054     A.U. after   10 cycles
 SCF Done:  E(RB3LYP) =  -796.134562235     A.U. after   10 cycles
 SCF Done:  E(RB3LYP) =  -796.134562316     A.U. after    8 cycles
 Optimization completed.
    -- Stationary point found.
 Normal termination of Gaussian 09 at Tue Jul 27 01:54:26 2021.

 --------------------------------------------------------------------
 #N Geom=AllCheck Guess=TCheck SCRF=Check GenChk RB3LYP/6-31G(d) Freq
 --------------------------------------------------------------------

 Structure from the checkpoint file:  "conf-295.chk"
 ------------------------------------------------------------
 Candidate Structure: Conf:295 OPT and FREQ calc in gas phase
 ------------------------------------------------------------
 Charge =  0 Multiplicity = 1

                          Input orientation:
 ---------------------------------------------------------------------
 Center     Atomic      Atomic             Coordinates (Angstroms)
 Number     Number       Type             X           Y           Z
 ---------------------------------------------------------------------
      1          8           0        1.295359    0.894195   -0.729300
      2          6           0        1.732136    0.036466    0.036696
      3          7           0        0.919975   -0.596540    0.930010
      4          6           0       -0.472431   -0.223263    1.069735
      5          6           0       -0.940740   -0.793758    2.395379
      6          8           0       -2.229035   -0.484158    2.684964
      7          8           0       -0.266816   -1.474901    3.136554
      8          6           0       -1.336515   -0.721620   -0.136179
      9          6           0       -2.490760    0.150299   -0.500398
     10          6           0       -2.719988    0.913931   -1.622596
     11          7           0       -3.936048    1.557527   -1.547943
     12          6           0       -4.443682    1.196499   -0.387951
     13          7           0       -3.617723    0.338701    0.282042
     14          6           0        3.189609   -0.410259    0.057260
     15          6           0        4.039479    0.338113   -0.968501
     16          7           0        3.614655   -0.015663   -2.325317
     17          1           0        1.295316   -1.230377    1.624029
     18          1           0       -0.556118    0.869980    1.102047
     19          1           0       -2.419214   -0.906161    3.544707
     20          1           0       -0.662851   -0.730265   -0.994268
     21          1           0       -1.644821   -1.760360    0.042508
     22          1           0       -2.068560    1.030336   -2.478380
     23          1           0       -5.395046    1.517088    0.015218
     24          1           0       -3.725873   -0.014013    1.221721
     25          1           0        3.589864   -0.261843    1.069550
     26          1           0        3.230501   -1.485845   -0.155280
     27          1           0        5.083161    0.028311   -0.841525
     28          1           0        3.989295    1.417356   -0.747039
     29          1           0        2.700220    0.407889   -2.476784
     30          1           0        4.246674    0.412338   -2.999718
 ---------------------------------------------------------------------

 SCF Done:  E(RB3LYP) =  -796.134562316     A.U. after    1 cycles

 Alpha  occ. eigenvalues --  -19.23793 -19.17837 -19.12190 -14.38010 -14.36803
 Alpha  occ. eigenvalues --  -14.30109 -14.29879 -10.35708 -10.29366 -10.26098
 Alpha  occ. eigenvalues --  -10.23036 -10.21229 -10.21178 -10.20601 -10.19547
 Alpha  occ. eigenvalues --  -10.18611  -1.14566  -1.05530  -1.04071  -1.00228
 Alpha  occ. eigenvalues --   -0.93677  -0.87065  -0.85971  -0.80882  -0.75927
 Alpha  occ. eigenvalues --   -0.73689  -0.68385  -0.65173  -0.60962  -0.60400
 Alpha  occ. eigenvalues --   -0.59501  -0.57893  -0.54130  -0.52340  -0.51938
 Alpha  occ. eigenvalues --   -0.49751  -0.49423  -0.47996  -0.47526  -0.45726
 Alpha  occ. eigenvalues --   -0.45321  -0.43816  -0.42575  -0.41667  -0.40938
 Alpha  occ. eigenvalues --   -0.39858  -0.39639  -0.39058  -0.38795  -0.36894
 Alpha  occ. eigenvalues --   -0.35831  -0.35704  -0.35175  -0.31383  -0.27101
 Alpha  occ. eigenvalues --   -0.26709  -0.25851  -0.25518  -0.22616  -0.21529
 Alpha virt. eigenvalues --   -0.02643   0.01811   0.03288   0.03877   0.07669
 Alpha virt. eigenvalues --    0.08590   0.09924   0.11051   0.12270   0.12379
 Alpha virt. eigenvalues --    0.13578   0.13954   0.15265   0.16179   0.16878

 Mulliken charges:
               1
     1  O   -0.531297
     2  C    0.623877
     3  N   -0.626879
     4  C   -0.006698
     5  C    0.582364
     6  O   -0.583061
     7  O   -0.460377
     8  C   -0.369515
     9  C    0.316848
    10  C   -0.070984
    11  N   -0.426802
    12  C    0.203696
    13  N   -0.608482
    14  C   -0.363739
    15  C   -0.126315
    16  N   -0.732054
    17  H    0.349603
    18  H    0.205858
    19  H    0.423057
    20  H    0.204051
    21  H    0.154938
    22  H    0.138746
    23  H    0.149339
    24  H    0.343058
    25  H    0.154437
    26  H    0.176990
    27  H    0.134610
    28  H    0.130359
    29  H    0.321174
    30  H    0.293197
 Sum of Mulliken charges =   0.00000

 Dipole moment (field-independent basis, Debye):
    X=              0.2946    Y=             -2.1725    Z=              5.1219  Tot=              5.5714
 Quadrupole moment (field-independent basis, Debye-Ang):
   XX=            -86.7034   YY=            -99.2764   ZZ=            -90.7116
   XY=             10.8147   XZ=            -17.6737   YZ=              1.8060

  Exact polarizability: 151.900 -17.215  92.743  -8.595 -22.819 124.239
 Approx polarizability: 193.313 -29.419 153.926  -5.592 -42.349 190.123

 ******    1 imaginary frequencies (negative Signs) ******

                      1                      2                      3
                      A                      A                      A
 Frequencies --    -10.4818                27.4916                29.5399
 Red. masses --      3.5364                 4.6068                 7.0728
 Frc consts  --      0.0002                 0.0021                 0.0036
 IR Inten    --      1.7105                 1.0668                 1.8485

                      4                      5                      6
                      A                      A                      A
 Frequencies --     48.9520                66.6160                74.2854
 Red. masses --      4.5632                 6.5589                 6.1266
 Frc consts  --      0.0064                 0.0171                 0.0199
 IR Inten    --      1.4298                 1.3606                 2.3628

                      7                      8                      9
                      A                      A                      A
 Frequencies --    128.0249               133.3763               165.2821
 Red. masses --      5.2007                 5.1809                 3.7013
 Frc consts  --      0.0502                 0.0543                 0.0596
 IR Inten    --      3.1930                 5.9789                 3.7571

                     10                     11                     12
                      A                      A                      A
 Frequencies --    195.4700               247.3218               277.8335
 Red. masses --      4.5730                 2.8323                 5.8281
 Frc consts  --      0.1029                 0.1021                 0.2651
 IR Inten    --      0.7925                31.3613                 0.4869

                     13                     14                     15
                      A                      A                      A
 Frequencies --    309.8935               330.3535               334.2835
 Red. masses --      2.4031                 4.5753                 1.9414
 Frc consts  --      0.1360                 0.2942                 0.1278
 IR Inten    --      8.8739                 0.4141                24.7565

                     16                     17                     18
                      A                      A                      A
 Frequencies --    350.3349               379.8956               429.4954
 Red. masses --      1.9328                 4.1277                 2.5302
 Frc consts  --      0.1398                 0.3510                 0.2750
 IR Inten    --     44.6886                 5.6548                37.5202

                     19                     20                     21
                      A                      A                      A
 Frequencies --    481.8245               553.6612               566.5959
 Red. masses --      1.3680                 1.5996                 2.9697
 Frc consts  --      0.1871                 0.2889                 0.5617
 IR Inten    --     77.9410                60.2748                20.7130

                     22                     23                     24
                      A                      A                      A
 Frequencies --    598.5202               614.4642               636.2357
 Red. masses --      1.8559                 2.2511                 2.9304
 Frc consts  --      0.3917                 0.5008                 0.6989
 IR Inten    --     33.1053                 5.6630                36.3160

                     25                     26                     27
                      A                      A                      A
 Frequencies --    669.5359               685.3799               687.4592
 Red. masses --      2.2918                 3.4062                 2.3243
 Frc consts  --      0.6053                 0.9427                 0.6472
 IR Inten    --     90.5560                 8.2869                 3.0538

                     28                     29                     30
                      A                      A                      A
 Frequencies --    738.1084               774.7454               791.7799
 Red. masses --      2.9937                 3.7389                 1.4127
 Frc consts  --      0.9610                 1.3222                 0.5218
 IR Inten    --     36.1222                 3.7120                16.5249

                     31                     32                     33
                      A                      A                      A
 Frequencies --    819.1070               847.0022               889.1924
 Red. masses --      2.7149                 1.3997                 2.3559
 Frc consts  --      1.0732                 0.5916                 1.0975
 IR Inten    --     12.6478                17.5315                39.8656

                     34                     35                     36
                      A                      A                      A
 Frequencies --    896.6154               932.8137               942.0182
 Red. masses --      1.9149                 1.5582                 5.7247
 Frc consts  --      0.9070                 0.7988                 2.9931
 IR Inten    --     10.6750                78.9250                13.5696

                     37                     38                     39
                      A                      A                      A
 Frequencies --    968.6533              1018.6118              1021.2967
 Red. masses --      2.1222                 4.7027                 3.1136
 Frc consts  --      1.1732                 2.8748                 1.9135
 IR Inten    --     17.6323                 6.5816                14.3081

                     40                     41                     42
                      A                      A                      A
 Frequencies --   1037.7393              1076.8012              1119.4571
 Red. masses --      3.4156                 2.5357                 3.1743
 Frc consts  --      2.1671                 1.7323                 2.3438
 IR Inten    --      8.8642                21.9898                28.7254

                     43                     44                     45
                      A                      A                      A
 Frequencies --   1129.8959              1140.1432              1156.0837
 Red. masses --      1.5637                 1.6044                 2.0864
 Frc consts  --      1.1762                 1.2288                 1.6430
 IR Inten    --     36.4949                18.3429                13.8596

                     46                     47                     48
                      A                      A                      A
 Frequencies --   1180.7885              1201.5750              1205.4828
 Red. masses --      1.5734                 1.4127                 2.3471
 Frc consts  --      1.2925                 1.2017                 2.0096
 IR Inten    --    113.5234                90.8398                37.1247

                     49                     50                     51
                      A                      A                      A
 Frequencies --   1244.1470              1255.5603              1277.1551
 Red. masses --      1.2383                 1.5781                 2.0784
 Frc consts  --      1.1294                 1.4657                 1.9975
 IR Inten    --      5.4740                18.8654                21.3536

                     52                     53                     54
                      A                      A                      A
 Frequencies --   1287.8430              1319.5919              1336.1219
 Red. masses --      1.5588                 1.4217                 1.2305
 Frc consts  --      1.5233                 1.4586                 1.2943
 IR Inten    --      6.4564                11.0099                 2.1784

                     55                     56                     57
                      A                      A                      A
 Frequencies --   1369.6939              1375.1080              1390.7600
 Red. masses --      1.2090                 1.7122                 1.5234
 Frc consts  --      1.3363                 1.9076                 1.7361
 IR Inten    --      4.0893                51.5125                10.7224

                     58                     59                     60
                      A                      A                      A
 Frequencies --   1403.6686              1431.9136              1446.9827
 Red. masses --      2.8480                 2.3432                 2.7482
 Frc consts  --      3.3062                 2.8307                 3.3901
 IR Inten    --     29.3565                68.5789                30.3460

                     61                     62                     63
                      A                      A                      A
 Frequencies --   1450.0783              1479.3120              1497.1413
 Red. masses --      1.4112                 1.1212                 1.1891
 Frc consts  --      1.7484                 1.4456                 1.5704
 IR Inten    --     16.8997                21.2765                23.4109

                     64                     65                     66
                      A                      A                      A
 Frequencies --   1519.4063              1533.0407              1548.4939
 Red. masses --      3.0398                 1.0909                 2.2277
 Frc consts  --      4.1347                 1.5105                 3.1472
 IR Inten    --     18.8903                 1.1793               330.4696

                     67                     68                     69
                      A                      A                      A
 Frequencies --   1625.4520              1690.5992              1763.0855
 Red. masses --      4.4127                 1.1602                 6.0757
 Frc consts  --      6.8691                 1.9537                11.1274
 IR Inten    --      5.9797                97.2234               129.7037

                     70                     71                     72
                      A                      A                      A
 Frequencies --   1840.9917              2985.5214              3041.4826
 Red. masses --      9.4458                 1.0719                 1.0720
 Frc consts  --     18.8621                 5.6293                 5.8429
 IR Inten    --    265.0524                66.2022                26.9952

                     73                     74                     75
                      A                      A                      A
 Frequencies --   3042.3892              3066.6682              3079.1090
 Red. masses --      1.0621                 1.0828                 1.0904
 Frc consts  --      5.7924                 6.0000                 6.0909
 IR Inten    --     14.3598                12.6145                46.6454

                     76                     77                     78
                      A                      A                      A
 Frequencies --   3089.1103              3147.8068              3260.1916
 Red. masses --      1.1004                 1.0919                 1.0948
 Frc consts  --      6.1866                 6.3747                 6.8560
 IR Inten    --     16.3864                 1.5606                10.3075

                     79                     80                     81
                      A                      A                      A
 Frequencies --   3264.1966              3471.1243              3556.5952
 Red. masses --      1.0988                 1.0499                 1.0920
 Frc consts  --      6.8981                 7.4532                 8.1382
 IR Inten    --      0.8653                11.2549                 3.0508

                     82                     83                     84
                      A                      A                      A
 Frequencies --   3603.9912              3656.3795              3678.6431
 Red. masses --      1.0777                 1.0805                 1.0640
 Frc consts  --      8.2471                 8.5111                 8.4835
 IR Inten    --     66.6547               105.0834                67.2906

 - Thermochemistry -
 -------------------
 Temperature   298.150 Kelvin.  Pressure   1.00000 Atm.
 Atom     1 has atomic number  8 and mass  15.99491

 Molecular mass:   226.10659 amu.
 Principal axes and moments of inertia in atomic units:
                           1         2         3
     Eigenvalues --  2460.369655979.988048147.40701
           X            0.98828   0.08776   0.12487
           Y           -0.07872  -0.40785   0.90965
           Z           -0.13076   0.90882   0.39617
 This molecule is an asymmetric top.
 Rotational symmetry number  1.
 Warning -- assumption of classical behavior for rotation
           may cause significant error
 Rotational temperatures (Kelvin)      0.03520     0.01448     0.01063
 Rotational constants (GHZ):           0.73352     0.30180     0.22151
    1 imaginary frequencies ignored.
 Zero-point vibrational energy     645620.9 (Joules/Mol)
                                  154.30711 (Kcal/Mol)
 Warning -- explicit consideration of  22 degrees of freedom as
           vibrations may cause significant error
 Vibrational temperatures:     39.55    42.50    70.43    95.85   106.88
          (Kelvin)            184.20   191.90   237.80   281.24   355.84
                              399.74   445.87   475.30   480.96   504.05
                              546.58   617.95   693.24   796.59   815.20
                              861.14   884.08   915.40   963.31   986.11
                              989.10  1061.97  1114.68  1139.19  1178.51
                             1218.65  1279.35  1290.03  1342.11  1355.35
                             1393.67  1465.55  1469.42  1493.07  1549.27
                             1610.65  1625.67  1640.41  1663.34  1698.89
                             1728.80  1734.42  1790.05  1806.47  1837.54
                             1852.92  1898.60  1922.38  1970.68  1978.47
                             2000.99  2019.56  2060.20  2081.88  2086.34
                             2128.40  2154.05  2186.08  2205.70  2227.93
                             2338.66  2432.39  2536.68  2648.77  4295.49
                             4376.01  4377.31  4412.25  4430.15  4444.54
                             4528.99  4690.68  4696.45  4994.17  5117.14
                             5185.33  5260.71  5292.74

 Zero-point correction=                           0.245904 (Hartree/Particle)
 Thermal correction to Energy=                    0.261031
 Thermal correction to Enthalpy=                  0.261975
 Thermal correction to Gibbs Free Energy=         0.201245
 Sum of electronic and zero-point Energies=           -795.888658
 Sum of electronic and thermal Energies=              -795.873531
 Sum of electronic and thermal Enthalpies=            -795.872587
 Sum of electronic and thermal Free Energies=         -795.933317

                     E (Thermal)             CV                S
                      KCal/Mol        Cal/Mol-Kelvin    Cal/Mol-Kelvin
 Total                  163.799             56.158            127.817
 Electronic               0.000              0.000              0.000
 Translational            0.889              2.981             42.150
 Rotational               0.889              2.981             33.149
 Vibrational            162.022             50.196             52.517
 Vibration     1          0.593              1.984              6.003
 Vibration     2          0.593              1.984              5.860
 Vibration     3          0.595              1.978              4.859
 Vibration     4          0.598              1.970              4.251
 Vibration     5          0.599              1.966              4.036
 Vibration     6          0.611              1.925              2.976
 Vibration     7          0.613              1.920              2.897
 Vibration     8          0.624              1.885              2.488
 Vibration     9          0.636              1.846              2.175
 Vibration    10          0.661              1.767              1.750
 Vibration    11          0.679              1.714              1.547
 Vibration    12          0.699              1.655              1.363
 Vibration    13          0.713              1.615              1.258
 Vibration    14          0.716              1.607              1.239
 Vibration    15          0.727              1.575              1.165
 Vibration    16          0.750              1.513              1.040
 Vibration    17          0.791              1.406              0.860
 Vibration    18          0.838              1.290              0.705
 Vibration    19          0.909              1.132              0.537
 Vibration    20          0.923              1.104              0.511
 Vibration    21          0.957              1.035              0.452
 Vibration    22          0.974              1.001              0.425

 Normal termination of Gaussian 09 at Tue Jul 27 02:09:28 2021.
