 Gaussian 09, Revision D.01,
 Gaussian 09:  ES64L-G09RevD.01 24-Apr-2013

 ----------------------------------------------------------------------
 # B3LYP/6-311G(d,p) opt=calcfc freq=noraman nosymm integral(ultrafineg
 rid)
 ----------------------------------------------------------------------

 ------------------------------------------------------------
 Candidate Structure: Conf:273 OPT and FREQ calc in gas phase
 ------------------------------------------------------------
 Symbolic Z-matrix:
 Charge =  0 Multiplicity = 1

 SCF Done:  E(RB3LYP) =  -796.308398757     A.U. after   14 cycles
 SCF Done:  E(RB3LYP) =  -796.310590648     A.U. after   12 cycles
 SCF Done:  E(RB3LYP) =  -796.310865932     A.U. after   14 cycles
 SCF Done:  E(RB3LYP) =  -796.310113976     A.U. after   14 cycles
 SCF Done:  E(RB3LYP) =  -796.311006428     A.U. after   14 cycles
 SCF Done:  E(RB3LYP) =  -796.311062679     A.U. after   11 cycles
 SCF Done:  E(RB3LYP) =  -796.311065363     A.U. after   10 cycles
 SCF Done:  E(RB3LYP) =  -796.311065483     A.U. after    7 cycles
 SCF Done:  E(RB3LYP) =  -796.311065492     A.U. after    7 cycles
 Optimization completed.
    -- Stationary point found.
 Normal termination of Gaussian 09 at Wed Jul 28 22:51:41 2021.

 ----------------------------------------------------------------------
 #N Geom=AllCheck Guess=TCheck SCRF=Check GenChk RB3LYP/6-311G(d,p) Fre
 q
 ----------------------------------------------------------------------

 Structure from the checkpoint file:  "conf-273.chk"
 ------------------------------------------------------------
 Candidate Structure: Conf:273 OPT and FREQ calc in gas phase
 ------------------------------------------------------------
 Charge =  0 Multiplicity = 1

                          Input orientation:
 ---------------------------------------------------------------------
 Center     Atomic      Atomic             Coordinates (Angstroms)
 Number     Number       Type             X           Y           Z
 ---------------------------------------------------------------------
      1          8           0        0.690764   -1.686438    1.616080
      2          6           0        0.904922   -0.658429    0.966981
      3          7           0        0.312947   -0.444681   -0.233692
      4          6           0       -0.800991   -1.263470   -0.736683
      5          6           0       -0.309330   -2.637828   -1.268748
      6          8           0        0.307638   -3.404732   -0.372009
      7          8           0       -0.497075   -2.991764   -2.403338
      8          6           0       -1.557937   -0.518319   -1.835729
      9          6           0       -2.175056    0.772647   -1.390746
     10          6           0       -2.361109    1.374625   -0.168348
     11          7           0       -3.033469    2.570014   -0.299310
     12          6           0       -3.258672    2.701498   -1.582567
     13          7           0       -2.757695    1.645012   -2.292350
     14          6           0        1.824312    0.432709    1.476938
     15          6           0        3.014851   -0.122702    2.263108
     16          7           0        3.758503    0.979703    2.878557
     17          1           0        0.469472    0.440417   -0.692389
     18          1           0       -1.469368   -1.467019    0.108873
     19          1           0        0.392787   -2.928400    0.491458
     20          1           0       -2.321084   -1.201476   -2.218813
     21          1           0       -0.874195   -0.354752   -2.677334
     22          1           0       -2.053197    1.015034    0.801040
     23          1           0       -3.768457    3.526335   -2.056949
     24          1           0       -2.818637    1.510059   -3.289585
     25          1           0        2.166107    1.062846    0.648566
     26          1           0        1.242843    1.078346    2.144490
     27          1           0        2.627141   -0.767056    3.053600
     28          1           0        3.619786   -0.762318    1.601284
     29          1           0        4.430612    0.616627    3.546213
     30          1           0        4.293550    1.483817    2.177440
 ---------------------------------------------------------------------

 SCF Done:  E(RB3LYP) =  -796.311065492     A.U. after    1 cycles

 Alpha  occ. eigenvalues --  -19.14817 -19.11978 -19.10359 -14.37947 -14.37093
 Alpha  occ. eigenvalues --  -14.29867 -14.29773 -10.30287 -10.30251 -10.25076
 Alpha  occ. eigenvalues --  -10.23278 -10.22083 -10.20987 -10.20696 -10.19750
 Alpha  occ. eigenvalues --  -10.19168  -1.10214  -1.07203  -1.02899  -1.01966
 Alpha  occ. eigenvalues --   -0.96004  -0.89553  -0.88525  -0.82452  -0.77952
 Alpha  occ. eigenvalues --   -0.74865  -0.68697  -0.65013  -0.62910  -0.61685
 Alpha  occ. eigenvalues --   -0.60812  -0.59953  -0.56631  -0.53840  -0.53357
 Alpha  occ. eigenvalues --   -0.52012  -0.50416  -0.47733  -0.46741  -0.46263
 Alpha  occ. eigenvalues --   -0.45138  -0.44730  -0.43991  -0.43291  -0.43121
 Alpha  occ. eigenvalues --   -0.42173  -0.42006  -0.40436  -0.39730  -0.37820
 Alpha  occ. eigenvalues --   -0.37547  -0.36430  -0.31670  -0.31110  -0.29663
 Alpha  occ. eigenvalues --   -0.29240  -0.28032  -0.26889  -0.25302  -0.24115
 Alpha virt. eigenvalues --   -0.01616   0.00061   0.00618   0.01888   0.02495
 Alpha virt. eigenvalues --    0.03271   0.04414   0.05250   0.06012   0.07799
 Alpha virt. eigenvalues --    0.07919   0.08257   0.10154   0.10683   0.11770

 Mulliken charges:
               1
     1  O   -0.437568
     2  C    0.401283
     3  N   -0.393381
     4  C   -0.209225
     5  C    0.438835
     6  O   -0.309607
     7  O   -0.325296
     8  C   -0.172741
     9  C    0.067860
    10  C   -0.064479
    11  N   -0.294644
    12  C    0.152829
    13  N   -0.370703
    14  C   -0.236704
    15  C   -0.108023
    16  N   -0.458528
    17  H    0.246112
    18  H    0.175478
    19  H    0.268737
    20  H    0.156757
    21  H    0.136483
    22  H    0.101682
    23  H    0.112875
    24  H    0.231045
    25  H    0.111357
    26  H    0.159232
    27  H    0.137346
    28  H    0.101493
    29  H    0.196380
    30  H    0.185114
 Sum of Mulliken charges =   0.00000

 Dipole moment (field-independent basis, Debye):
    X=              1.6214    Y=              3.6728    Z=             -2.1884  Tot=              4.5725
 Quadrupole moment (field-independent basis, Debye-Ang):
   XX=            -82.3979   YY=           -117.3147   ZZ=            -91.1822
   XY=              4.6351   XZ=             13.7698   YZ=            -17.8031

  Exact polarizability: 119.559 -14.664 134.714  27.250   2.458 136.098
 Approx polarizability: 154.320 -16.368 194.251  20.026   0.036 223.781

                      1                      2                      3
                      A                      A                      A
 Frequencies --     25.8807                30.9888                46.6625
 Red. masses --      4.7695                 3.1429                 3.1433
 Frc consts  --      0.0019                 0.0018                 0.0040
 IR Inten    --      0.7313                 1.9583                 5.6765

                      4                      5                      6
                      A                      A                      A
 Frequencies --     62.7018                71.6024                84.5248
 Red. masses --      5.6189                 3.7770                 4.3663
 Frc consts  --      0.0130                 0.0114                 0.0184
 IR Inten    --      5.7180                 9.1418                 0.5306

                      7                      8                      9
                      A                      A                      A
 Frequencies --     88.3641               156.3422               169.8093
 Red. masses --      5.0188                 4.5939                 4.0504
 Frc consts  --      0.0231                 0.0662                 0.0688
 IR Inten    --      1.2406                12.1914                 3.2634

                     10                     11                     12
                      A                      A                      A
 Frequencies --    215.5979               226.0574               239.7792
 Red. masses --      6.8158                 3.3861                 1.6164
 Frc consts  --      0.1867                 0.1020                 0.0548
 IR Inten    --      5.9685                13.8744                16.5020

                     13                     14                     15
                      A                      A                      A
 Frequencies --    260.8885               281.5881               312.9181
 Red. masses --      2.2770                 3.7999                 6.3433
 Frc consts  --      0.0913                 0.1775                 0.3660
 IR Inten    --     19.6065                21.4770                 7.1271

                     16                     17                     18
                      A                      A                      A
 Frequencies --    357.7170               386.3672               438.5293
 Red. masses --      5.7964                 4.5521                 2.9503
 Frc consts  --      0.4370                 0.4004                 0.3343
 IR Inten    --      2.1571                 1.9029                 5.1749

                     19                     20                     21
                      A                      A                      A
 Frequencies --    473.4519               525.5120               543.3462
 Red. masses --      1.2825                 1.4760                 4.3789
 Frc consts  --      0.1694                 0.2402                 0.7617
 IR Inten    --     86.6999                71.1199                18.2632

                     22                     23                     24
                      A                      A                      A
 Frequencies --    622.8455               628.9616               650.1854
 Red. masses --      5.1437                 2.7209                 2.3621
 Frc consts  --      1.1757                 0.6342                 0.5883
 IR Inten    --     15.6018                13.7011                18.7852

                     25                     26                     27
                      A                      A                      A
 Frequencies --    679.8549               727.4709               751.6376
 Red. masses --      3.0167                 4.5576                 3.8440
 Frc consts  --      0.8215                 1.4211                 1.2795
 IR Inten    --      4.8230                 2.1197                 9.2576

                     28                     29                     30
                      A                      A                      A
 Frequencies --    772.4507               805.1393               817.1866
 Red. masses --      4.8525                 1.4654                 1.3982
 Frc consts  --      1.7059                 0.5597                 0.5501
 IR Inten    --     27.0699                10.1064                19.0931

                     31                     32                     33
                      A                      A                      A
 Frequencies --    841.6089               852.9571               874.3292
 Red. masses --      1.3515                 1.3353                 2.2952
 Frc consts  --      0.5640                 0.5724                 1.0338
 IR Inten    --     10.7728               107.7565                17.7192

                     34                     35                     36
                      A                      A                      A
 Frequencies --    897.7751               933.6527               943.5680
 Red. masses --      1.1593                 5.1642                 3.7583
 Frc consts  --      0.5505                 2.6523                 1.9715
 IR Inten    --     89.3639                15.2688                 5.2227

                     37                     38                     39
                      A                      A                      A
 Frequencies --    964.3585               998.4533              1023.5397
 Red. masses --      2.7805                 2.5746                 3.8618
 Frc consts  --      1.5235                 1.5122                 2.3837
 IR Inten    --      4.5042                 2.2185                 8.6124

                     40                     41                     42
                      A                      A                      A
 Frequencies --   1061.8712              1082.0734              1097.1944
 Red. masses --      2.8789                 2.4766                 2.2474
 Frc consts  --      1.9126                 1.7085                 1.5940
 IR Inten    --     22.7273                10.6314                23.0286

                     43                     44                     45
                      A                      A                      A
 Frequencies --   1108.0221              1113.0053              1147.5395
 Red. masses --      1.7069                 2.7658                 2.3664
 Frc consts  --      1.2347                 2.0186                 1.8360
 IR Inten    --     15.4846                 8.8572                15.5294

                     46                     47                     48
                      A                      A                      A
 Frequencies --   1161.5002              1197.8068              1218.7365
 Red. masses --      1.3443                 1.6981                 2.4520
 Frc consts  --      1.0685                 1.4354                 2.1458
 IR Inten    --      3.6279                20.5247                22.5137

                     49                     50                     51
                      A                      A                      A
 Frequencies --   1234.8783              1263.7743              1276.3793
 Red. masses --      1.6059                 1.5063                 1.4730
 Frc consts  --      1.4429                 1.4174                 1.4139
 IR Inten    --     25.5143                 7.7614                 0.8281

                     52                     53                     54
                      A                      A                      A
 Frequencies --   1282.5778              1314.2994              1341.1786
 Red. masses --      1.5037                 1.6857                 1.1198
 Frc consts  --      1.4574                 1.7156                 1.1868
 IR Inten    --     51.3856                15.0555                 5.8896

                     55                     56                     57
                      A                      A                      A
 Frequencies --   1353.2001              1368.2397              1381.6886
 Red. masses --      1.7910                 1.4984                 1.5094
 Frc consts  --      1.9323                 1.6527                 1.6977
 IR Inten    --      1.7021                 7.4118                10.2501

                     58                     59                     60
                      A                      A                      A
 Frequencies --   1418.1226              1427.1242              1428.8890
 Red. masses --      2.2899                 2.7652                 1.4814
 Frc consts  --      2.7132                 3.3182                 1.7820
 IR Inten    --      9.7672                17.1045                27.3994

                     61                     62                     63
                      A                      A                      A
 Frequencies --   1459.4480              1466.2688              1483.3342
 Red. masses --      1.3545                 1.0957                 1.1556
 Frc consts  --      1.6999                 1.3879                 1.4981
 IR Inten    --    258.1431                12.1933                25.7376

                     64                     65                     66
                      A                      A                      A
 Frequencies --   1503.1054              1519.2659              1536.9771
 Red. masses --      3.5700                 1.0833                 2.1597
 Frc consts  --      4.7522                 1.4733                 3.0059
 IR Inten    --     16.9130                 2.0709               339.2868

                     67                     68                     69
                      A                      A                      A
 Frequencies --   1606.9909              1666.0873              1697.2000
 Red. masses --      4.2363                 1.0937                 7.3680
 Frc consts  --      6.4456                 1.7888                12.5045
 IR Inten    --     10.3100                23.9459               229.9388

                     70                     71                     72
                      A                      A                      A
 Frequencies --   1837.1352              2952.7534              3016.9133
 Red. masses --      9.0676                 1.0743                 1.0781
 Frc consts  --     18.0312                 5.5184                 5.7812
 IR Inten    --    343.5931                65.7187                 4.1078

                     73                     74                     75
                      A                      A                      A
 Frequencies --   3026.0075              3029.2546              3062.0095
 Red. masses --      1.0598                 1.0722                 1.0993
 Frc consts  --      5.7178                 5.7969                 6.0724
 IR Inten    --     15.0269                18.3249                 7.4427

                     76                     77                     78
                      A                      A                      A
 Frequencies --   3066.1036              3096.3236              3237.6329
 Red. masses --      1.0938                 1.0908                 1.0945
 Frc consts  --      6.0582                 6.1613                 6.7593
 IR Inten    --      7.0782                16.0648                 8.5885

                     79                     80                     81
                      A                      A                      A
 Frequencies --   3241.2336              3306.8227              3489.8554
 Red. masses --      1.0991                 1.0730                 1.0502
 Frc consts  --      6.8032                 6.9132                 7.5360
 IR Inten    --      1.3316               682.3788                 0.6149

                     82                     83                     84
                      A                      A                      A
 Frequencies --   3566.8740              3616.2048              3642.0325
 Red. masses --      1.0921                 1.0781                 1.0812
 Frc consts  --      8.1866                 8.3062                 8.4495
 IR Inten    --      0.2474                38.8330                52.6206

 - Thermochemistry -
 -------------------
 Temperature   298.150 Kelvin.  Pressure   1.00000 Atm.
 Atom     1 has atomic number  8 and mass  15.99491

 Molecular mass:   226.10659 amu.
 Principal axes and moments of inertia in atomic units:
                           1         2         3
     Eigenvalues --  3051.463105619.196648108.70280
           X            0.79521   0.05035  -0.60424
           Y           -0.28986   0.90687  -0.30591
           Z            0.53256   0.41840   0.73574
 This molecule is an asymmetric top.
 Rotational symmetry number  1.
 Warning -- assumption of classical behavior for rotation
           may cause significant error
 Rotational temperatures (Kelvin)      0.02838     0.01541     0.01068
 Rotational constants (GHZ):           0.59143     0.32117     0.22257
 Zero-point vibrational energy     641129.8 (Joules/Mol)
                                  153.23371 (Kcal/Mol)
 Warning -- explicit consideration of  21 degrees of freedom as
           vibrations may cause significant error
 Vibrational temperatures:     37.24    44.59    67.14    90.21   103.02
          (Kelvin)            121.61   127.14   224.94   244.32   310.20
                              325.25   344.99   375.36   405.14   450.22
                              514.67   555.90   630.95   681.19   756.09
                              781.75   896.13   904.93   935.47   978.16
                             1046.67  1081.44  1111.38  1158.41  1175.75
                             1210.89  1227.21  1257.96  1291.70  1343.32
                             1357.58  1387.50  1436.55  1472.64  1527.79
                             1556.86  1578.62  1594.19  1601.36  1651.05
                             1671.14  1723.37  1753.49  1776.71  1818.29
                             1836.42  1845.34  1890.98  1929.65  1946.95
                             1968.59  1987.94  2040.36  2053.31  2055.85
                             2099.82  2109.63  2134.18  2162.63  2185.88
                             2211.36  2312.10  2397.13  2441.89  2643.22
                             4248.35  4340.66  4353.74  4358.42  4405.54
                             4411.43  4454.91  4658.23  4663.41  4757.77
                             5021.12  5131.93  5202.91  5240.07

 Zero-point correction=                           0.244193 (Hartree/Particle)
 Thermal correction to Energy=                    0.260255
 Thermal correction to Enthalpy=                  0.261199
 Thermal correction to Gibbs Free Energy=         0.197962
 Sum of electronic and zero-point Energies=           -796.066872
 Sum of electronic and thermal Energies=              -796.050810
 Sum of electronic and thermal Enthalpies=            -796.049866
 Sum of electronic and thermal Free Energies=         -796.113103

                     E (Thermal)             CV                S
                      KCal/Mol        Cal/Mol-Kelvin    Cal/Mol-Kelvin
 Total                  163.313             58.108            133.094
 Electronic               0.000              0.000              0.000
 Translational            0.889              2.981             42.150
 Rotational               0.889              2.981             33.297
 Vibrational            161.535             52.146             57.647
 Vibration     1          0.593              1.985              6.122
 Vibration     2          0.594              1.984              5.765
 Vibration     3          0.595              1.979              4.954
 Vibration     4          0.597              1.972              4.370
 Vibration     5          0.598              1.968              4.109
 Vibration     6          0.601              1.960              3.783
 Vibration     7          0.601              1.957              3.696
 Vibration     8          0.620              1.896              2.594
 Vibration     9          0.625              1.880              2.438
 Vibration    10          0.645              1.817              1.996
 Vibration    11          0.650              1.801              1.910
 Vibration    12          0.657              1.780              1.805
 Vibration    13          0.669              1.744              1.656
 Vibration    14          0.681              1.708              1.524
 Vibration    15          0.701              1.649              1.347
 Vibration    16          0.733              1.559              1.132
 Vibration    17          0.755              1.499              1.014
 Vibration    18          0.799              1.386              0.831
 Vibration    19          0.830              1.309              0.728
 Vibration    20          0.880              1.194              0.597
 Vibration    21          0.898              1.154              0.558

 Optimization completed.
    -- Stationary point found.
 Normal termination of Gaussian 09 at Wed Jul 28 23:23:05 2021.
