 Gaussian 09, Revision D.01,
 Gaussian 09:  ES64L-G09RevD.01 24-Apr-2013

 ----------------------------------------------------------------------
 # B3LYP/6-311G(d,p) opt=calcfc freq=noraman nosymm integral(ultrafineg
 rid)
 ----------------------------------------------------------------------

 ------------------------------------------------------------
 Candidate Structure: Conf:118 OPT and FREQ calc in gas phase
 ------------------------------------------------------------
 Symbolic Z-matrix:
 Charge =  0 Multiplicity = 1

 SCF Done:  E(RB3LYP) =  -796.318915075     A.U. after   14 cycles
 SCF Done:  E(RB3LYP) =  -796.321149711     A.U. after   14 cycles
 SCF Done:  E(RB3LYP) =  -796.321674434     A.U. after   14 cycles
 SCF Done:  E(RB3LYP) =  -796.321958113     A.U. after   11 cycles
 SCF Done:  E(RB3LYP) =  -796.322021179     A.U. after   12 cycles
 SCF Done:  E(RB3LYP) =  -796.322023702     A.U. after   11 cycles
 SCF Done:  E(RB3LYP) =  -796.322039610     A.U. after   11 cycles
 SCF Done:  E(RB3LYP) =  -796.322041214     A.U. after    9 cycles
 SCF Done:  E(RB3LYP) =  -796.322041220     A.U. after    6 cycles
 Optimization completed.
    -- Stationary point found.
 Normal termination of Gaussian 09 at Wed Jul 28 22:52:55 2021.

 ----------------------------------------------------------------------
 #N Geom=AllCheck Guess=TCheck SCRF=Check GenChk RB3LYP/6-311G(d,p) Fre
 q
 ----------------------------------------------------------------------

 Structure from the checkpoint file:  "conf-118.chk"
 ------------------------------------------------------------
 Candidate Structure: Conf:118 OPT and FREQ calc in gas phase
 ------------------------------------------------------------
 Charge =  0 Multiplicity = 1

                          Input orientation:
 ---------------------------------------------------------------------
 Center     Atomic      Atomic             Coordinates (Angstroms)
 Number     Number       Type             X           Y           Z
 ---------------------------------------------------------------------
      1          8           0       -1.026229   -1.859217    1.782327
      2          6           0       -1.052415   -1.230077    0.717654
      3          7           0        0.062301   -0.653391    0.212961
      4          6           0        1.395171   -0.848358    0.788453
      5          6           0        1.582571   -0.041340    2.098135
      6          8           0        0.757561   -0.372818    3.083299
      7          8           0        2.433188    0.807463    2.235849
      8          6           0        2.472881   -0.532743   -0.268037
      9          6           0        2.315378    0.786154   -0.956681
     10          6           0        1.948539    1.111868   -2.244300
     11          7           0        1.940605    2.475300   -2.424186
     12          6           0        2.296684    2.974607   -1.261449
     13          7           0        2.537541    1.999903   -0.340646
     14          6           0       -2.334900   -1.064270   -0.068868
     15          6           0       -3.483501   -0.502970    0.804325
     16          7           0       -4.779310   -0.401418    0.145331
     17          1           0        0.008261   -0.069963   -0.612403
     18          1           0        1.474243   -1.904685    1.069653
     19          1           0        0.106710   -1.055616    2.775707
     20          1           0        2.436772   -1.316925   -1.028253
     21          1           0        3.447918   -0.600624    0.220555
     22          1           0        1.719709    0.435410   -3.055209
     23          1           0        2.395336    4.024458   -1.030537
     24          1           0        2.768749    2.088031    0.641978
     25          1           0       -2.618229   -2.059501   -0.429155
     26          1           0       -2.181315   -0.430359   -0.948071
     27          1           0       -3.585542   -1.137120    1.686855
     28          1           0       -3.205904    0.492243    1.165447
     29          1           0       -4.730899    0.197872   -0.672489
     30          1           0       -5.101780   -1.311907   -0.166760
 ---------------------------------------------------------------------

 SCF Done:  E(RB3LYP) =  -796.322041220     A.U. after    1 cycles

 Alpha  occ. eigenvalues --  -19.16181 -19.12227 -19.12051 -14.37442 -14.36586
 Alpha  occ. eigenvalues --  -14.30176 -14.29253 -10.31764 -10.30661 -10.25568
 Alpha  occ. eigenvalues --  -10.22645 -10.21441 -10.21205 -10.21190 -10.20231
 Alpha  occ. eigenvalues --  -10.18955  -1.11612  -1.07558  -1.03383  -1.02126
 Alpha  occ. eigenvalues --   -0.96376  -0.89948  -0.87727  -0.82405  -0.78052
 Alpha  occ. eigenvalues --   -0.74847  -0.68715  -0.65687  -0.62653  -0.62317
 Alpha  occ. eigenvalues --   -0.61197  -0.59935  -0.56625  -0.55551  -0.52870
 Alpha  occ. eigenvalues --   -0.51623  -0.51057  -0.48021  -0.46856  -0.46523
 Alpha  occ. eigenvalues --   -0.45748  -0.45182  -0.44343  -0.43730  -0.42821
 Alpha  occ. eigenvalues --   -0.41748  -0.41672  -0.41267  -0.40160  -0.39349
 Alpha  occ. eigenvalues --   -0.38185  -0.36535  -0.33132  -0.32061  -0.29906
 Alpha  occ. eigenvalues --   -0.28999  -0.28105  -0.27457  -0.25296  -0.23975
 Alpha virt. eigenvalues --   -0.02404  -0.01241   0.00905   0.01980   0.03204
 Alpha virt. eigenvalues --    0.03771   0.05909   0.06534   0.06618   0.06777
 Alpha virt. eigenvalues --    0.08176   0.08725   0.10378   0.10866   0.11179

 Mulliken charges:
               1
     1  O   -0.442104
     2  C    0.386731
     3  N   -0.392742
     4  C   -0.171109
     5  C    0.446109
     6  O   -0.297465
     7  O   -0.362432
     8  C   -0.178925
     9  C    0.039066
    10  C   -0.079763
    11  N   -0.295144
    12  C    0.153728
    13  N   -0.353003
    14  C   -0.243159
    15  C   -0.104107
    16  N   -0.441354
    17  H    0.253754
    18  H    0.173574
    19  H    0.272538
    20  H    0.134845
    21  H    0.154088
    22  H    0.095718
    23  H    0.112303
    24  H    0.256179
    25  H    0.136208
    26  H    0.107016
    27  H    0.141921
    28  H    0.123129
    29  H    0.186369
    30  H    0.188033
 Sum of Mulliken charges =   0.00000

 Dipole moment (field-independent basis, Debye):
    X=             -0.8261    Y=             -2.3945    Z=             -2.2711  Tot=              3.4021
 Quadrupole moment (field-independent basis, Debye-Ang):
   XX=            -97.3029   YY=            -93.5476   ZZ=           -114.5583
   XY=             -1.8116   XZ=              7.8776   YZ=              9.3456

  Exact polarizability: 136.964  17.719 128.654   2.131 -12.711 127.625
 Approx polarizability: 178.659  22.536 200.026   8.986 -16.805 201.905

                      1                      2                      3
                      A                      A                      A
 Frequencies --     23.5967                45.8920                59.9785
 Red. masses --      4.3588                 7.4080                 2.7058
 Frc consts  --      0.0014                 0.0092                 0.0057
 IR Inten    --      0.2005                 1.6485                 4.5164

                      4                      5                      6
                      A                      A                      A
 Frequencies --     77.0913                86.6719                95.8610
 Red. masses --      3.7032                 3.3113                 4.8769
 Frc consts  --      0.0130                 0.0147                 0.0264
 IR Inten    --      6.0426                 0.0566                 4.7618

                      7                      8                      9
                      A                      A                      A
 Frequencies --    133.5277               156.3180               188.5552
 Red. masses --      8.7955                 5.4527                 4.2330
 Frc consts  --      0.0924                 0.0785                 0.0887
 IR Inten    --      9.2149                 7.6161                 9.0647

                     10                     11                     12
                      A                      A                      A
 Frequencies --    215.0964               230.8372               269.9804
 Red. masses --      4.9387                 6.8638                 6.7793
 Frc consts  --      0.1346                 0.2155                 0.2911
 IR Inten    --      6.0245                12.9614                 0.9250

                     13                     14                     15
                      A                      A                      A
 Frequencies --    302.2091               308.4512               344.1940
 Red. masses --      5.6346                 1.1080                 4.7244
 Frc consts  --      0.3032                 0.0621                 0.3298
 IR Inten    --      2.2628                42.2247                 4.6782

                     16                     17                     18
                      A                      A                      A
 Frequencies --    359.9882               381.7898               438.1415
 Red. masses --      2.4679                 4.0095                 3.4118
 Frc consts  --      0.1884                 0.3443                 0.3859
 IR Inten    --      5.9099                 5.0685                24.1561

                     19                     20                     21
                      A                      A                      A
 Frequencies --    549.8964               575.2384               608.8352
 Red. masses --      1.3389                 4.3751                 3.9453
 Frc consts  --      0.2385                 0.8530                 0.8617
 IR Inten    --     44.4396                13.3891                 9.9113

                     22                     23                     24
                      A                      A                      A
 Frequencies --    631.2759               655.9581               672.9981
 Red. masses --      3.6132                 2.6386                 3.4660
 Frc consts  --      0.8484                 0.6689                 0.9249
 IR Inten    --      6.8105                 4.7810                40.1224

                     25                     26                     27
                      A                      A                      A
 Frequencies --    729.4011               744.4066               760.6860
 Red. masses --      2.9356                 1.3192                 3.9120
 Frc consts  --      0.9202                 0.4307                 1.3337
 IR Inten    --      3.5309                68.8808                10.9868

                     28                     29                     30
                      A                      A                      A
 Frequencies --    772.1182               785.9672               825.4382
 Red. masses --      1.6115                 3.4287                 1.4962
 Frc consts  --      0.5661                 1.2479                 0.6006
 IR Inten    --      7.1276                 2.1413               291.6097

                     31                     32                     33
                      A                      A                      A
 Frequencies --    833.8273               845.0095               858.2984
 Red. masses --      1.4027                 1.7167                 2.0656
 Frc consts  --      0.5746                 0.7222                 0.8965
 IR Inten    --     20.6538                17.5899                12.6433

                     34                     35                     36
                      A                      A                      A
 Frequencies --    917.6191               939.5680               944.0255
 Red. masses --      1.2153                 4.7719                 2.5075
 Frc consts  --      0.6029                 2.4820                 1.3166
 IR Inten    --     67.2774                 9.6063                15.3853

                     37                     38                     39
                      A                      A                      A
 Frequencies --    977.8108               985.3672              1011.1433
 Red. masses --      1.3996                 4.6213                 3.8102
 Frc consts  --      0.7884                 2.6437                 2.2952
 IR Inten    --      1.7755                 5.0396                13.0406

                     40                     41                     42
                      A                      A                      A
 Frequencies --   1013.7787              1058.1098              1090.9398
 Red. masses --      4.7550                 2.4190                 2.4708
 Frc consts  --      2.8793                 1.5957                 1.7326
 IR Inten    --     61.0419                11.3419                 6.6973

                     43                     44                     45
                      A                      A                      A
 Frequencies --   1106.2889              1116.6839              1140.7869
 Red. masses --      3.5466                 1.5982                 1.3644
 Frc consts  --      2.5574                 1.1742                 1.0462
 IR Inten    --     12.9283                53.2959                 3.8915

                     46                     47                     48
                      A                      A                      A
 Frequencies --   1146.1530              1222.5677              1237.1087
 Red. masses --      2.0647                 1.5918                 2.3456
 Frc consts  --      1.5981                 1.4018                 2.1150
 IR Inten    --      7.0820                 7.9829                42.4761

                     49                     50                     51
                      A                      A                      A
 Frequencies --   1247.7645              1261.3511              1286.0805
 Red. masses --      1.6103                 2.2372                 1.3087
 Frc consts  --      1.4771                 2.0972                 1.2754
 IR Inten    --     28.7920                 3.4799                 5.9090

                     52                     53                     54
                      A                      A                      A
 Frequencies --   1293.7958              1308.9997              1352.1231
 Red. masses --      1.3240                 1.5313                 1.6174
 Frc consts  --      1.3058                 1.5459                 1.7422
 IR Inten    --      1.8353                26.9192                 5.4454

                     55                     56                     57
                      A                      A                      A
 Frequencies --   1369.1958              1383.7435              1387.7285
 Red. masses --      1.6008                 1.4465                 1.2514
 Frc consts  --      1.7681                 1.6319                 1.4199
 IR Inten    --      9.9962                 1.9145                14.9997

                     58                     59                     60
                      A                      A                      A
 Frequencies --   1394.0563              1394.7812              1428.6994
 Red. masses --      1.7140                 1.7147                 2.7163
 Frc consts  --      1.9625                 1.9654                 3.2667
 IR Inten    --     19.6969                25.7890                62.2382

                     61                     62                     63
                      A                      A                      A
 Frequencies --   1462.1319              1472.4242              1473.6082
 Red. masses --      1.3945                 1.1216                 1.1364
 Frc consts  --      1.7564                 1.4326                 1.4539
 IR Inten    --    232.9461                 3.9324                19.6150

                     64                     65                     66
                      A                      A                      A
 Frequencies --   1502.2500              1503.1133              1534.6300
 Red. masses --      3.4562                 1.0894                 2.3541
 Frc consts  --      4.5955                 1.4501                 3.2665
 IR Inten    --     17.4167                 6.8104               454.5451

                     67                     68                     69
                      A                      A                      A
 Frequencies --   1599.6286              1666.2618              1683.8270
 Red. masses --      4.3050                 1.1152                 6.6118
 Frc consts  --      6.4902                 1.8243                11.0450
 IR Inten    --     14.4788                50.1306               195.0723

                     70                     71                     72
                      A                      A                      A
 Frequencies --   1811.5453              3024.9872              3030.1538
 Red. masses --      8.2657                 1.0589                 1.0824
 Frc consts  --     15.9818                 5.7089                 5.8553
 IR Inten    --    346.8790                 4.6077                 5.2178

                     73                     74                     75
                      A                      A                      A
 Frequencies --   3039.9722              3054.8034              3065.3283
 Red. masses --      1.0673                 1.0611                 1.0997
 Frc consts  --      5.8114                 5.8342                 6.0883
 IR Inten    --     30.3314                20.2445                 8.5158

                     76                     77                     78
                      A                      A                      A
 Frequencies --   3094.3768              3098.9245              3221.1091
 Red. masses --      1.1039                 1.1023                 1.0961
 Frc consts  --      6.2280                 6.2370                 6.7003
 IR Inten    --      6.3031                20.5930                 6.8992

                     79                     80                     81
                      A                      A                      A
 Frequencies --   3240.6502              3267.4585              3491.2421
 Red. masses --      1.0974                 1.0739                 1.0483
 Frc consts  --      6.7902                 6.7549                 7.5283
 IR Inten    --      1.7896               676.7280                 0.4100

                     82                     83                     84
                      A                      A                      A
 Frequencies --   3564.2017              3570.0354              3571.2171
 Red. masses --      1.0790                 1.0939                 1.0826
 Frc consts  --      8.0762                 8.2146                 8.1348
 IR Inten    --     85.8786                 0.0857               222.3808

 - Thermochemistry -
 -------------------
 Temperature   298.150 Kelvin.  Pressure   1.00000 Atm.
 Atom     1 has atomic number  8 and mass  15.99491

 Molecular mass:   226.10659 amu.
 Principal axes and moments of inertia in atomic units:
                           1         2         3
     Eigenvalues --  2606.121675637.090187156.79999
           X            0.87241   0.41620  -0.25626
           Y            0.41497  -0.35370   0.83827
           Z           -0.25825   0.83766   0.48128
 This molecule is an asymmetric top.
 Rotational symmetry number  1.
 Warning -- assumption of classical behavior for rotation
           may cause significant error
 Rotational temperatures (Kelvin)      0.03323     0.01536     0.01210
 Rotational constants (GHZ):           0.69250     0.32015     0.25217
 Zero-point vibrational energy     643756.5 (Joules/Mol)
                                  153.86150 (Kcal/Mol)
 Warning -- explicit consideration of  21 degrees of freedom as
           vibrations may cause significant error
 Vibrational temperatures:     33.95    66.03    86.30   110.92   124.70
          (Kelvin)            137.92   192.12   224.91   271.29   309.48
                              332.12   388.44   434.81   443.79   495.22
                              517.94   549.31   630.39   791.18   827.64
                              875.98   908.26   943.78   968.29  1049.44
                             1071.03  1094.46  1110.90  1130.83  1187.62
                             1199.69  1215.78  1234.90  1320.25  1351.83
                             1358.24  1406.85  1417.72  1454.81  1458.60
                             1522.38  1569.62  1591.70  1606.66  1641.34
                             1649.06  1759.00  1779.92  1795.25  1814.80
                             1850.38  1861.48  1883.36  1945.40  1969.96
                             1990.90  1996.63  2005.73  2006.78  2055.58
                             2103.68  2118.49  2120.19  2161.40  2162.64
                             2207.99  2301.51  2397.38  2422.65  2606.41
                             4352.28  4359.71  4373.84  4395.18  4410.32
                             4452.11  4458.66  4634.45  4662.57  4701.14
                             5023.11  5128.08  5136.48  5138.18

 Zero-point correction=                           0.245194 (Hartree/Particle)
 Thermal correction to Energy=                    0.260667
 Thermal correction to Enthalpy=                  0.261612
 Thermal correction to Gibbs Free Energy=         0.200618
 Sum of electronic and zero-point Energies=           -796.076847
 Sum of electronic and thermal Energies=              -796.061374
 Sum of electronic and thermal Enthalpies=            -796.060430
 Sum of electronic and thermal Free Energies=         -796.121423

                     E (Thermal)             CV                S
                      KCal/Mol        Cal/Mol-Kelvin    Cal/Mol-Kelvin
 Total                  163.571             57.199            128.372
 Electronic               0.000              0.000              0.000
 Translational            0.889              2.981             42.150
 Rotational               0.889              2.981             33.019
 Vibrational            161.794             51.238             53.203
 Vibration     1          0.593              1.985              6.306
 Vibration     2          0.595              1.979              4.987
 Vibration     3          0.597              1.973              4.458
 Vibration     4          0.599              1.964              3.964
 Vibration     5          0.601              1.958              3.734
 Vibration     6          0.603              1.952              3.537
 Vibration     7          0.613              1.920              2.895
 Vibration     8          0.620              1.896              2.594
 Vibration     9          0.633              1.856              2.242
 Vibration    10          0.645              1.818              2.000
 Vibration    11          0.653              1.794              1.872
 Vibration    12          0.674              1.728              1.596
 Vibration    13          0.694              1.670              1.405
 Vibration    14          0.698              1.658              1.371
 Vibration    15          0.723              1.587              1.193
 Vibration    16          0.734              1.555              1.122
 Vibration    17          0.751              1.509              1.032
 Vibration    18          0.798              1.387              0.832
 Vibration    19          0.905              1.140              0.544
 Vibration    20          0.932              1.085              0.494
 Vibration    21          0.968              1.013              0.435

 Optimization completed.
    -- Stationary point found.
 Normal termination of Gaussian 09 at Wed Jul 28 23:25:17 2021.
