 Gaussian 09, Revision D.01,
 Gaussian 09:  ES64L-G09RevD.01 24-Apr-2013

 ----------------------------------------------------------------------
 # B3LYP/6-311G(d,p) opt=calcfc freq=noraman nosymm integral(ultrafineg
 rid)
 ----------------------------------------------------------------------

 ------------------------------------------------------------
 Candidate Structure: Conf:338 OPT and FREQ calc in gas phase
 ------------------------------------------------------------
 Symbolic Z-matrix:
 Charge =  0 Multiplicity = 1

 SCF Done:  E(RB3LYP) =  -796.315042359     A.U. after   14 cycles
 SCF Done:  E(RB3LYP) =  -796.317047941     A.U. after   12 cycles
 SCF Done:  E(RB3LYP) =  -796.317292118     A.U. after   13 cycles
 SCF Done:  E(RB3LYP) =  -796.317473666     A.U. after   12 cycles
 SCF Done:  E(RB3LYP) =  -796.317604043     A.U. after   12 cycles
 SCF Done:  E(RB3LYP) =  -796.310835731     A.U. after   15 cycles
 SCF Done:  E(RB3LYP) =  -796.319431287     A.U. after   12 cycles
 SCF Done:  E(RB3LYP) =  -796.319560361     A.U. after   12 cycles
 SCF Done:  E(RB3LYP) =  -796.316961967     A.U. after   14 cycles
 SCF Done:  E(RB3LYP) =  -796.320790399     A.U. after   10 cycles
 SCF Done:  E(RB3LYP) =  -796.322235539     A.U. after   12 cycles
 SCF Done:  E(RB3LYP) =  -796.322401656     A.U. after   12 cycles
 SCF Done:  E(RB3LYP) =  -796.322571200     A.U. after   11 cycles
 SCF Done:  E(RB3LYP) =  -796.322457288     A.U. after   12 cycles
 SCF Done:  E(RB3LYP) =  -796.322692532     A.U. after    9 cycles
 SCF Done:  E(RB3LYP) =  -796.322751185     A.U. after   10 cycles
 SCF Done:  E(RB3LYP) =  -796.322766207     A.U. after   10 cycles
 SCF Done:  E(RB3LYP) =  -796.322767631     A.U. after    9 cycles
 SCF Done:  E(RB3LYP) =  -796.322767935     A.U. after    7 cycles
 Optimization completed.
    -- Stationary point found.
 Normal termination of Gaussian 09 at Wed Jul 28 23:25:34 2021.

 ----------------------------------------------------------------------
 #N Geom=AllCheck Guess=TCheck SCRF=Check GenChk RB3LYP/6-311G(d,p) Fre
 q
 ----------------------------------------------------------------------

 Structure from the checkpoint file:  "conf-338.chk"
 ------------------------------------------------------------
 Candidate Structure: Conf:338 OPT and FREQ calc in gas phase
 ------------------------------------------------------------
 Charge =  0 Multiplicity = 1

                          Input orientation:
 ---------------------------------------------------------------------
 Center     Atomic      Atomic             Coordinates (Angstroms)
 Number     Number       Type             X           Y           Z
 ---------------------------------------------------------------------
      1          8           0        0.560435    0.414000    1.789998
      2          6           0        1.275314    0.000453    0.875610
      3          7           0        0.789072   -0.574138   -0.246201
      4          6           0       -0.630790   -0.793601   -0.447636
      5          6           0       -0.792615   -1.890137   -1.485738
      6          8           0       -2.072177   -2.306416   -1.555697
      7          8           0        0.085462   -2.330971   -2.183311
      8          6           0       -1.420682    0.501190   -0.883854
      9          6           0       -2.447616    0.959833    0.097194
     10          6           0       -3.789577    1.233515   -0.025619
     11          7           0       -4.314970    1.660255    1.171499
     12          6           0       -3.303881    1.640736    2.012773
     13          7           0       -2.149603    1.230859    1.416490
     14          6           0        2.796717    0.092975    0.987502
     15          6           0        3.572784    0.370493   -0.306601
     16          7           0        3.442809   -0.745749   -1.255467
     17          1           0        1.458593   -0.913340   -0.943215
     18          1           0       -1.069986   -1.154828    0.485286
     19          1           0       -2.114517   -2.978455   -2.252337
     20          1           0       -1.923698    0.330758   -1.837432
     21          1           0       -0.668687    1.277163   -1.058543
     22          1           0       -4.401360    1.146215   -0.911292
     23          1           0       -3.349545    1.909539    3.057365
     24          1           0       -1.230185    1.074307    1.827872
     25          1           0        2.995693    0.878369    1.718278
     26          1           0        3.152419   -0.844209    1.434446
     27          1           0        3.166194    1.264459   -0.788650
     28          1           0        4.615309    0.598103   -0.043960
     29          1           0        3.966526   -1.555512   -0.936914
     30          1           0        3.802499   -0.495822   -2.170063
 ---------------------------------------------------------------------

 SCF Done:  E(RB3LYP) =  -796.322767935     A.U. after    1 cycles

 Alpha  occ. eigenvalues --  -19.18316 -19.12889 -19.09530 -14.33874 -14.33765
 Alpha  occ. eigenvalues --  -14.32157 -14.26740 -10.32175 -10.28277 -10.23943
 Alpha  occ. eigenvalues --  -10.22259 -10.20098 -10.19416 -10.19343 -10.18705
 Alpha  occ. eigenvalues --  -10.16191  -1.13095  -1.04979  -1.04148  -0.99493
 Alpha  occ. eigenvalues --   -0.93876  -0.91173  -0.85179  -0.80563  -0.77229
 Alpha  occ. eigenvalues --   -0.73725  -0.67638  -0.65915  -0.62651  -0.59383
 Alpha  occ. eigenvalues --   -0.58877  -0.57154  -0.54140  -0.53219  -0.52292
 Alpha  occ. eigenvalues --   -0.50669  -0.49191  -0.47838  -0.47605  -0.47198
 Alpha  occ. eigenvalues --   -0.45890  -0.43966  -0.42657  -0.42470  -0.41682
 Alpha  occ. eigenvalues --   -0.40973  -0.39641  -0.39226  -0.38924  -0.38570
 Alpha  occ. eigenvalues --   -0.38131  -0.36153  -0.34346  -0.30298  -0.27935
 Alpha  occ. eigenvalues --   -0.27467  -0.26812  -0.26244  -0.24987  -0.21131
 Alpha virt. eigenvalues --   -0.01435   0.00360   0.02140   0.02688   0.03544
 Alpha virt. eigenvalues --    0.05512   0.05704   0.07098   0.07656   0.08223
 Alpha virt. eigenvalues --    0.08908   0.08996   0.10060   0.11533   0.11977

 Mulliken charges:
               1
     1  O   -0.436928
     2  C    0.387011
     3  N   -0.409134
     4  C   -0.065661
     5  C    0.342718
     6  O   -0.310950
     7  O   -0.328924
     8  C   -0.163281
     9  C    0.072445
    10  C   -0.071026
    11  N   -0.306022
    12  C    0.146700
    13  N   -0.366744
    14  C   -0.239560
    15  C   -0.125662
    16  N   -0.477201
    17  H    0.260120
    18  H    0.179621
    19  H    0.258026
    20  H    0.133958
    21  H    0.142023
    22  H    0.085015
    23  H    0.100485
    24  H    0.260914
    25  H    0.141225
    26  H    0.132253
    27  H    0.127332
    28  H    0.114441
    29  H    0.205451
    30  H    0.211354
 Sum of Mulliken charges =   0.00000

 Dipole moment (field-independent basis, Debye):
    X=              6.7976    Y=             -2.1974    Z=             -2.6366  Tot=              7.6150
 Quadrupole moment (field-independent basis, Debye-Ang):
   XX=            -99.1225   YY=            -94.2284   ZZ=            -91.4661
   XY=             10.9336   XZ=              6.3218   YZ=             -0.8893

  Exact polarizability: 162.259 -11.444 104.400  -6.353  23.457 129.904
 Approx polarizability: 219.264 -15.550 151.924  -9.291  30.131 205.214

                      1                      2                      3
                      A                      A                      A
 Frequencies --     21.1523                46.8628                53.7485
 Red. masses --      5.0107                 7.2465                 6.4861
 Frc consts  --      0.0013                 0.0094                 0.0110
 IR Inten    --      0.4681                 1.9518                 2.4765

                      4                      5                      6
                      A                      A                      A
 Frequencies --     72.7724                79.0449                99.7839
 Red. masses --      3.4831                 4.6370                 4.4631
 Frc consts  --      0.0109                 0.0171                 0.0262
 IR Inten    --      0.4024                 0.6093                 6.1423

                      7                      8                      9
                      A                      A                      A
 Frequencies --    113.9576               128.1814               184.9743
 Red. masses --      6.2548                 6.1098                 2.6681
 Frc consts  --      0.0479                 0.0591                 0.0538
 IR Inten    --      5.1276                 4.6502                 5.0011

                     10                     11                     12
                      A                      A                      A
 Frequencies --    195.9698               238.8383               282.4693
 Red. masses --      5.0989                 3.7842                 3.3782
 Frc consts  --      0.1154                 0.1272                 0.1588
 IR Inten    --      3.0983                 5.2862                 3.7301

                     13                     14                     15
                      A                      A                      A
 Frequencies --    301.8472               308.8823               328.7816
 Red. masses --      3.5661                 1.3809                 4.3387
 Frc consts  --      0.1914                 0.0776                 0.2763
 IR Inten    --      0.6421                14.9128                 0.7079

                     16                     17                     18
                      A                      A                      A
 Frequencies --    355.6667               417.8870               466.0420
 Red. masses --      3.9325                 3.4488                 2.6025
 Frc consts  --      0.2931                 0.3548                 0.3330
 IR Inten    --      5.2075                 7.4691                25.7209

                     19                     20                     21
                      A                      A                      A
 Frequencies --    516.5577               590.1674               609.5995
 Red. masses --      3.1831                 1.5316                 3.3840
 Frc consts  --      0.5004                 0.3143                 0.7409
 IR Inten    --     37.2164                80.3880                 4.4212

                     22                     23                     24
                      A                      A                      A
 Frequencies --    637.5241               648.8769               678.0220
 Red. masses --      3.4813                 3.6657                 3.5262
 Frc consts  --      0.8337                 0.9093                 0.9551
 IR Inten    --     30.8519                 8.4581                46.2695

                     25                     26                     27
                      A                      A                      A
 Frequencies --    698.9326               716.8714               770.8254
 Red. masses --      3.4995                 3.2518                 3.9593
 Frc consts  --      1.0072                 0.9846                 1.3860
 IR Inten    --     18.1351                16.1815                 5.2157

                     28                     29                     30
                      A                      A                      A
 Frequencies --    792.8621               810.7353               821.6403
 Red. masses --      1.1116                 1.2378                 1.4244
 Frc consts  --      0.4117                 0.4794                 0.5666
 IR Inten    --     37.9072                42.1829                23.9749

                     31                     32                     33
                      A                      A                      A
 Frequencies --    840.1269               854.3151               858.9881
 Red. masses --      1.5061                 1.3782                 2.0871
 Frc consts  --      0.6263                 0.5926                 0.9073
 IR Inten    --     22.9663                53.4625                55.0534

                     34                     35                     36
                      A                      A                      A
 Frequencies --    899.0231               912.8526               941.9325
 Red. masses --      2.4726                 1.9371                 5.8348
 Frc consts  --      1.1775                 0.9511                 3.0501
 IR Inten    --     14.4799                16.3963                22.2722

                     37                     38                     39
                      A                      A                      A
 Frequencies --    964.0605               985.4082              1009.0151
 Red. masses --      3.0088                 3.0229                 1.7860
 Frc consts  --      1.6476                 1.7295                 1.0714
 IR Inten    --     12.5776                 3.7905                 5.1531

                     40                     41                     42
                      A                      A                      A
 Frequencies --   1023.0272              1028.4368              1084.2080
 Red. masses --      3.6710                 2.7169                 2.6453
 Frc consts  --      2.2637                 1.6931                 1.8321
 IR Inten    --      0.7651                38.7836                 6.2040

                     43                     44                     45
                      A                      A                      A
 Frequencies --   1126.0660              1134.1751              1149.2476
 Red. masses --      3.1186                 1.9491                 1.8495
 Frc consts  --      2.3299                 1.4772                 1.4392
 IR Inten    --     48.5824                56.4731                 6.3934

                     46                     47                     48
                      A                      A                      A
 Frequencies --   1157.9332              1174.0336              1212.7922
 Red. masses --      1.3693                 2.5756                 1.2904
 Frc consts  --      1.0817                 2.0916                 1.1183
 IR Inten    --     21.8878               170.9238                10.8362

                     49                     50                     51
                      A                      A                      A
 Frequencies --   1260.8874              1263.5019              1274.2357
 Red. masses --      1.6555                 1.9286                 1.3786
 Frc consts  --      1.5507                 1.8140                 1.3189
 IR Inten    --     13.7254                18.0184                12.8907

                     52                     53                     54
                      A                      A                      A
 Frequencies --   1285.8568              1308.3720              1314.0125
 Red. masses --      1.3139                 1.4800                 1.3438
 Frc consts  --      1.2799                 1.4927                 1.3671
 IR Inten    --     15.7231                 3.4603                 2.3837

                     55                     56                     57
                      A                      A                      A
 Frequencies --   1328.8217              1355.2160              1371.5975
 Red. masses --      1.4783                 1.4197                 1.4223
 Frc consts  --      1.5380                 1.5362                 1.5765
 IR Inten    --      4.3991                24.6093                 3.4790

                     58                     59                     60
                      A                      A                      A
 Frequencies --   1386.6821              1406.2043              1422.4155
 Red. masses --      3.9379                 2.1814                 1.4490
 Frc consts  --      4.4614                 2.5415                 1.7273
 IR Inten    --     17.0690                64.3252                23.8085

                     61                     62                     63
                      A                      A                      A
 Frequencies --   1449.3554              1467.3301              1477.5173
 Red. masses --      2.2685                 1.0818                 1.1723
 Frc consts  --      2.8076                 1.3723                 1.5078
 IR Inten    --     76.6269                12.4559                16.5240

                     64                     65                     66
                      A                      A                      A
 Frequencies --   1502.5759              1513.3272              1574.8946
 Red. masses --      3.3602                 1.0898                 1.9975
 Frc consts  --      4.4698                 1.4705                 2.9191
 IR Inten    --     23.2476                 6.5590               333.7236

                     67                     68                     69
                      A                      A                      A
 Frequencies --   1610.2629              1660.3494              1713.6621
 Red. masses --      3.9744                 1.0897                 7.9875
 Frc consts  --      6.0717                 1.7699                13.8200
 IR Inten    --     29.0001                38.6127               318.1126

                     70                     71                     72
                      A                      A                      A
 Frequencies --   1822.3202              2978.7696              3019.4477
 Red. masses --      9.8590                 1.0723                 1.0708
 Frc consts  --     19.2900                 5.6057                 5.7519
 IR Inten    --    276.1992                85.5145                 7.8955

                     73                     74                     75
                      A                      A                      A
 Frequencies --   3032.3826              3059.4721              3067.7310
 Red. masses --      1.0667                 1.0909                 1.0839
 Frc consts  --      5.7793                 6.0161                 6.0097
 IR Inten    --     22.9148                29.3588                11.6596

                     76                     77                     78
                      A                      A                      A
 Frequencies --   3091.0564              3102.4494              3225.4630
 Red. masses --      1.0961                 1.0921                 1.0958
 Frc consts  --      6.1706                 6.1935                 6.7170
 IR Inten    --     11.2721                 9.5716                11.1628

                     79                     80                     81
                      A                      A                      A
 Frequencies --   3236.5940              3365.7040              3459.7259
 Red. masses --      1.0972                 1.0819                 1.0859
 Frc consts  --      6.7719                 7.2209                 7.6583
 IR Inten    --      2.1589               385.5713               446.5544

                     82                     83                     84
                      A                      A                      A
 Frequencies --   3499.0412              3579.1654              3758.8170
 Red. masses --      1.0501                 1.0931                 1.0643
 Frc consts  --      7.5749                 8.2501                 8.8601
 IR Inten    --      0.3914                 3.2005                79.2756

 - Thermochemistry -
 -------------------
 Temperature   298.150 Kelvin.  Pressure   1.00000 Atm.
 Atom     1 has atomic number  8 and mass  15.99491

 Molecular mass:   226.10659 amu.
 Principal axes and moments of inertia in atomic units:
                           1         2         3
     Eigenvalues --  2393.629985377.591867222.25815
           X            0.94080   0.33370   0.05952
           Y           -0.27194   0.63821   0.72023
           Z           -0.20236   0.69378  -0.69118
 This molecule is an asymmetric top.
 Rotational symmetry number  1.
 Warning -- assumption of classical behavior for rotation
           may cause significant error
 Rotational temperatures (Kelvin)      0.03619     0.01611     0.01199
 Rotational constants (GHZ):           0.75398     0.33560     0.24989
 Zero-point vibrational energy     643533.1 (Joules/Mol)
                                  153.80811 (Kcal/Mol)
 Warning -- explicit consideration of  21 degrees of freedom as
           vibrations may cause significant error
 Vibrational temperatures:     30.43    67.43    77.33   104.70   113.73
          (Kelvin)            143.57   163.96   184.42   266.14   281.96
                              343.63   406.41   434.29   444.41   473.04
                              511.72   601.25   670.53   743.21   849.12
                              877.08   917.25   933.59   975.52  1005.61
                             1031.42  1109.04  1140.75  1166.47  1182.16
                             1208.75  1229.17  1235.89  1293.49  1313.39
                             1355.23  1387.07  1417.78  1451.75  1471.91
                             1479.69  1559.93  1620.16  1631.82  1653.51
                             1666.01  1689.17  1744.94  1814.13  1817.90
                             1833.34  1850.06  1882.45  1890.57  1911.88
                             1949.85  1973.42  1995.12  2023.21  2046.54
                             2085.30  2111.16  2125.82  2161.87  2177.34
                             2265.92  2316.81  2388.87  2465.57  2621.91
                             4285.78  4344.31  4362.92  4401.89  4413.78
                             4447.34  4463.73  4640.72  4656.73  4842.49
                             4977.77  5034.33  5149.61  5408.09

 Zero-point correction=                           0.245109 (Hartree/Particle)
 Thermal correction to Energy=                    0.260702
 Thermal correction to Enthalpy=                  0.261647
 Thermal correction to Gibbs Free Energy=         0.200079
 Sum of electronic and zero-point Energies=           -796.077659
 Sum of electronic and thermal Energies=              -796.062066
 Sum of electronic and thermal Enthalpies=            -796.061121
 Sum of electronic and thermal Free Energies=         -796.122689

                     E (Thermal)             CV                S
                      KCal/Mol        Cal/Mol-Kelvin    Cal/Mol-Kelvin
 Total                  163.593             57.326            129.580
 Electronic               0.000              0.000              0.000
 Translational            0.889              2.981             42.150
 Rotational               0.889              2.981             32.897
 Vibrational            161.816             51.365             54.533
 Vibration     1          0.593              1.985              6.523
 Vibration     2          0.595              1.979              4.946
 Vibration     3          0.596              1.976              4.674
 Vibration     4          0.599              1.967              4.077
 Vibration     5          0.600              1.963              3.914
 Vibration     6          0.604              1.949              3.459
 Vibration     7          0.607              1.938              3.200
 Vibration     8          0.611              1.925              2.973
 Vibration     9          0.631              1.860              2.278
 Vibration    10          0.636              1.846              2.171
 Vibration    11          0.657              1.781              1.812
 Vibration    12          0.682              1.706              1.519
 Vibration    13          0.694              1.670              1.407
 Vibration    14          0.698              1.657              1.368
 Vibration    15          0.712              1.618              1.266
 Vibration    16          0.731              1.564              1.141
 Vibration    17          0.781              1.431              0.899
 Vibration    18          0.823              1.325              0.749
 Vibration    19          0.872              1.213              0.618
 Vibration    20          0.948              1.053              0.467
 Vibration    21          0.969              1.011              0.433

 Normal termination of Gaussian 09 at Wed Jul 28 23:58:08 2021.
