 Gaussian 09, Revision D.01,
 Gaussian 09:  ES64L-G09RevD.01 24-Apr-2013

 ----------------------------------------------------------------------
 # B3LYP/6-311G(d,p) opt=calcfc freq=noraman nosymm integral(ultrafineg
 rid)
 ----------------------------------------------------------------------

 ------------------------------------------------------------
 Candidate Structure: Conf:455 OPT and FREQ calc in gas phase
 ------------------------------------------------------------
 Symbolic Z-matrix:
 Charge =  0 Multiplicity = 1

 SCF Done:  E(RB3LYP) =  -796.298176701     A.U. after   14 cycles
 SCF Done:  E(RB3LYP) =  -796.300150197     A.U. after   12 cycles
 SCF Done:  E(RB3LYP) =  -796.300482871     A.U. after   12 cycles
 SCF Done:  E(RB3LYP) =  -796.300526948     A.U. after   12 cycles
 SCF Done:  E(RB3LYP) =  -796.300548884     A.U. after   11 cycles
 SCF Done:  E(RB3LYP) =  -796.300550830     A.U. after   10 cycles
 SCF Done:  E(RB3LYP) =  -796.300550934     A.U. after    8 cycles
 SCF Done:  E(RB3LYP) =  -796.300550941     A.U. after    6 cycles
 Optimization completed.
    -- Stationary point found.
 Normal termination of Gaussian 09 at Wed Jul 28 22:51:10 2021.

 ----------------------------------------------------------------------
 #N Geom=AllCheck Guess=TCheck SCRF=Check GenChk RB3LYP/6-311G(d,p) Fre
 q
 ----------------------------------------------------------------------

 Structure from the checkpoint file:  "conf-455.chk"
 ------------------------------------------------------------
 Candidate Structure: Conf:455 OPT and FREQ calc in gas phase
 ------------------------------------------------------------
 Charge =  0 Multiplicity = 1

                          Input orientation:
 ---------------------------------------------------------------------
 Center     Atomic      Atomic             Coordinates (Angstroms)
 Number     Number       Type             X           Y           Z
 ---------------------------------------------------------------------
      1          8           0        0.337526   -0.431734   -1.221467
      2          6           0        0.997175   -0.262922   -0.202161
      3          7           0        0.525531   -0.562143    1.046110
      4          6           0       -0.580020   -1.466236    1.322943
      5          6           0       -0.105221   -2.930956    1.154360
      6          8           0       -1.042996   -3.882962    1.380015
      7          8           0        1.018421   -3.236843    0.881485
      8          6           0       -1.893009   -1.178818    0.535368
      9          6           0       -2.344831    0.244859    0.554170
     10          6           0       -3.205072    0.940410    1.371384
     11          7           0       -3.318415    2.248813    0.965421
     12          6           0       -2.539658    2.349454   -0.088846
     13          7           0       -1.930277    1.166701   -0.383458
     14          6           0        2.395363    0.335245   -0.242622
     15          6           0        2.544566    1.433370   -1.313972
     16          7           0        3.893924    1.962793   -1.491344
     17          1           0        1.199807   -0.487823    1.792325
     18          1           0       -0.812923   -1.335310    2.385737
     19          1           0       -1.902469   -3.487371    1.566493
     20          1           0       -2.691736   -1.777014    0.987775
     21          1           0       -1.772764   -1.519677   -0.492750
     22          1           0       -3.757411    0.567206    2.221463
     23          1           0       -2.384384    3.242205   -0.675402
     24          1           0       -1.258864    0.961320   -1.113148
     25          1           0        2.685835    0.723099    0.739931
     26          1           0        3.077751   -0.492376   -0.472438
     27          1           0        2.195743    1.035949   -2.268504
     28          1           0        1.882591    2.269480   -1.065876
     29          1           0        4.252895    2.343311   -0.621064
     30          1           0        4.532831    1.227869   -1.778973
 ---------------------------------------------------------------------

 SCF Done:  E(RB3LYP) =  -796.300550941     A.U. after    1 cycles

 Alpha  occ. eigenvalues --  -19.18622 -19.12496 -19.10817 -14.36270 -14.36154
 Alpha  occ. eigenvalues --  -14.29644 -14.28625 -10.32194 -10.29592 -10.26046
 Alpha  occ. eigenvalues --  -10.22004 -10.21497 -10.20806 -10.20460 -10.19342
 Alpha  occ. eigenvalues --  -10.18144  -1.12674  -1.06447  -1.04679  -1.01565
 Alpha  occ. eigenvalues --   -0.95532  -0.89344  -0.87173  -0.82221  -0.77360
 Alpha  occ. eigenvalues --   -0.74435  -0.68980  -0.65272  -0.63424  -0.61462
 Alpha  occ. eigenvalues --   -0.60440  -0.59280  -0.56611  -0.53963  -0.53792
 Alpha  occ. eigenvalues --   -0.51738  -0.49647  -0.47703  -0.46943  -0.46186
 Alpha  occ. eigenvalues --   -0.45713  -0.44490  -0.43877  -0.43089  -0.42475
 Alpha  occ. eigenvalues --   -0.41798  -0.41134  -0.40938  -0.40070  -0.39452
 Alpha  occ. eigenvalues --   -0.38256  -0.35743  -0.34334  -0.30536  -0.29226
 Alpha  occ. eigenvalues --   -0.28399  -0.28039  -0.26842  -0.24727  -0.23099
 Alpha virt. eigenvalues --   -0.01845  -0.00967  -0.00478   0.01899   0.02315
 Alpha virt. eigenvalues --    0.03343   0.05019   0.05716   0.06506   0.07230
 Alpha virt. eigenvalues --    0.08148   0.09459   0.09710   0.10483   0.11960

 Mulliken charges:
               1
     1  O   -0.416855
     2  C    0.391882
     3  N   -0.369273
     4  C   -0.126720
     5  C    0.400027
     6  O   -0.289807
     7  O   -0.298758
     8  C   -0.210791
     9  C    0.095285
    10  C   -0.072870
    11  N   -0.298410
    12  C    0.149568
    13  N   -0.358621
    14  C   -0.265736
    15  C   -0.105880
    16  N   -0.443233
    17  H    0.227323
    18  H    0.158370
    19  H    0.247311
    20  H    0.102191
    21  H    0.169730
    22  H    0.088108
    23  H    0.108163
    24  H    0.248513
    25  H    0.101713
    26  H    0.144707
    27  H    0.138186
    28  H    0.115659
    29  H    0.182923
    30  H    0.187295
 Sum of Mulliken charges =   0.00000

 Dipole moment (field-independent basis, Debye):
    X=              1.4546    Y=             -0.6280    Z=              2.2641  Tot=              2.7634
 Quadrupole moment (field-independent basis, Debye-Ang):
   XX=            -95.4180   YY=           -112.7809   ZZ=            -92.1394
   XY=             16.2335   XZ=              4.8408   YZ=             -4.6556

  Exact polarizability: 140.320  -3.118 137.630 -18.602 -14.138 111.226
 Approx polarizability: 194.899  -8.206 193.677 -24.579  -9.174 188.556

                      1                      2                      3
                      A                      A                      A
 Frequencies --     17.8226                29.8549                52.1788
 Red. masses --      5.4918                 4.4872                 3.8494
 Frc consts  --      0.0010                 0.0024                 0.0062
 IR Inten    --      0.5573                 2.7823                10.1462

                      4                      5                      6
                      A                      A                      A
 Frequencies --     66.2840                75.5232                89.5364
 Red. masses --      2.6451                 4.9071                 3.7726
 Frc consts  --      0.0068                 0.0165                 0.0178
 IR Inten    --      4.6278                 7.2269                 0.2973

                      7                      8                      9
                      A                      A                      A
 Frequencies --     90.2386               124.4335               153.4393
 Red. masses --      4.3681                 6.0050                 4.4607
 Frc consts  --      0.0210                 0.0548                 0.0619
 IR Inten    --      2.5845                11.1583                 8.4350

                     10                     11                     12
                      A                      A                      A
 Frequencies --    192.4005               216.6683               283.7375
 Red. masses --      5.9530                 5.6129                 6.3963
 Frc consts  --      0.1298                 0.1552                 0.3034
 IR Inten    --      3.1557                 8.5206                 4.0158

                     13                     14                     15
                      A                      A                      A
 Frequencies --    303.4479               328.4232               331.5199
 Red. masses --      1.1017                 4.1346                 5.2181
 Frc consts  --      0.0598                 0.2628                 0.3379
 IR Inten    --     42.1724                 1.7113                20.5044

                     16                     17                     18
                      A                      A                      A
 Frequencies --    341.5432               389.7244               407.7291
 Red. masses --      2.3210                 3.5421                 2.8387
 Frc consts  --      0.1595                 0.3170                 0.2780
 IR Inten    --      4.7423                16.9158                22.1235

                     19                     20                     21
                      A                      A                      A
 Frequencies --    466.4197               537.9869               549.8063
 Red. masses --      1.2947                 4.3426                 1.4201
 Frc consts  --      0.1659                 0.7405                 0.2529
 IR Inten    --     62.5992                 6.3732                61.8005

                     22                     23                     24
                      A                      A                      A
 Frequencies --    604.6315               628.5814               660.6039
 Red. masses --      3.5493                 2.9124                 3.4439
 Frc consts  --      0.7645                 0.6780                 0.8855
 IR Inten    --      5.4176                29.8163                23.5096

                     25                     26                     27
                      A                      A                      A
 Frequencies --    676.4541               702.7765               738.1993
 Red. masses --      4.2982                 3.9225                 1.2109
 Frc consts  --      1.1588                 1.1414                 0.3888
 IR Inten    --     33.8896                 3.2074                68.7392

                     28                     29                     30
                      A                      A                      A
 Frequencies --    759.9433               760.8159               787.2881
 Red. masses --      2.0028                 3.8613                 1.8635
 Frc consts  --      0.6815                 1.3169                 0.6805
 IR Inten    --      6.8670                 4.5609                 3.7575

                     31                     32                     33
                      A                      A                      A
 Frequencies --    822.4566               833.6492               841.2825
 Red. masses --      1.4224                 1.6820                 1.5386
 Frc consts  --      0.5669                 0.6887                 0.6416
 IR Inten    --     26.6166               147.0188               107.3532

                     34                     35                     36
                      A                      A                      A
 Frequencies --    863.7941               918.4272               922.3130
 Red. masses --      2.4816                 2.9402                 4.5129
 Frc consts  --      1.0910                 1.4612                 2.2618
 IR Inten    --     11.6022                 3.3130                 8.9266

                     37                     38                     39
                      A                      A                      A
 Frequencies --    943.2303               979.3809              1027.2480
 Red. masses --      5.5543                 1.4133                 3.9417
 Frc consts  --      2.9115                 0.7987                 2.4506
 IR Inten    --     14.1013                 0.9988                18.3103

                     40                     41                     42
                      A                      A                      A
 Frequencies --   1031.8559              1039.4283              1092.7303
 Red. masses --      4.3171                 2.9784                 2.7819
 Frc consts  --      2.7082                 1.8959                 1.9571
 IR Inten    --     43.0170                 6.3091                21.3555

                     43                     44                     45
                      A                      A                      A
 Frequencies --   1113.6145              1118.0420              1146.2571
 Red. masses --      2.3387                 1.6843                 1.9722
 Frc consts  --      1.7088                 1.2405                 1.5268
 IR Inten    --     10.4899                32.9656                 8.9803

                     46                     47                     48
                      A                      A                      A
 Frequencies --   1148.9086              1164.8754              1207.9840
 Red. masses --      1.8842                 2.0230                 1.4651
 Frc consts  --      1.4654                 1.6174                 1.2596
 IR Inten    --     25.1995                 6.0442                 7.0953

                     49                     50                     51
                      A                      A                      A
 Frequencies --   1243.8125              1263.4545              1273.8942
 Red. masses --      1.8971                 2.1837                 1.4978
 Frc consts  --      1.7292                 2.0538                 1.4321
 IR Inten    --    172.8033                15.4110                10.9178

                     52                     53                     54
                      A                      A                      A
 Frequencies --   1296.5380              1298.2241              1308.3837
 Red. masses --      1.4690                 1.3992                 1.4936
 Frc consts  --      1.4550                 1.3894                 1.5065
 IR Inten    --    222.6710                78.4362                96.3054

                     55                     56                     57
                      A                      A                      A
 Frequencies --   1350.4212              1367.9282              1389.7481
 Red. masses --      1.4361                 1.4686                 1.1748
 Frc consts  --      1.5431                 1.6191                 1.3369
 IR Inten    --     10.1169                12.4797                 3.3549

                     58                     59                     60
                      A                      A                      A
 Frequencies --   1391.1394              1398.2585              1401.2442
 Red. masses --      1.4595                 1.4074                 2.4113
 Frc consts  --      1.6642                 1.6213                 2.7895
 IR Inten    --      9.6641                35.7738                27.2304

                     61                     62                     63
                      A                      A                      A
 Frequencies --   1438.0586              1461.9099              1470.0114
 Red. masses --      3.0102                 1.0930                 1.1371
 Frc consts  --      3.6677                 1.3764                 1.4477
 IR Inten    --     24.5239                 7.4991                19.8288

                     64                     65                     66
                      A                      A                      A
 Frequencies --   1498.9709              1503.5768              1551.7645
 Red. masses --      3.3910                 1.0890                 1.7429
 Frc consts  --      4.4892                 1.4506                 2.4727
 IR Inten    --     26.6060                 3.4622               181.2755

                     67                     68                     69
                      A                      A                      A
 Frequencies --   1604.0757              1666.3614              1734.1403
 Red. masses --      4.3059                 1.0905                 7.6954
 Frc consts  --      6.5277                 1.7841                13.6349
 IR Inten    --      8.0632                30.2542               179.5579

                     70                     71                     72
                      A                      A                      A
 Frequencies --   1860.0376              3015.8206              3022.5845
 Red. masses --     10.8585                 1.0591                 1.0728
 Frc consts  --     22.1342                 5.6754                 5.7746
 IR Inten    --    244.2370                 7.1519                30.6800

                     73                     74                     75
                      A                      A                      A
 Frequencies --   3032.9949              3034.0267              3054.4378
 Red. masses --      1.0800                 1.0713                 1.0969
 Frc consts  --      5.8535                 5.8105                 6.0297
 IR Inten    --     27.1734                31.7128                13.4537

                     76                     77                     78
                      A                      A                      A
 Frequencies --   3098.6639              3111.8393              3222.0368
 Red. masses --      1.0993                 1.0932                 1.0961
 Frc consts  --      6.2187                 6.2371                 6.7044
 IR Inten    --     18.7015                 3.5495                 9.2062

                     79                     80                     81
                      A                      A                      A
 Frequencies --   3239.7891              3486.7025              3564.1611
 Red. masses --      1.0972                 1.0484                 1.0936
 Frc consts  --      6.7855                 7.5097                 8.1848
 IR Inten    --      1.3174                 0.5112                 0.0241

                     82                     83                     84
                      A                      A                      A
 Frequencies --   3575.5963              3620.8823              3809.4521
 Red. masses --      1.0830                 1.0770                 1.0658
 Frc consts  --      8.1576                 8.3196                 9.1124
 IR Inten    --    162.7646                28.8967                46.6897

 - Thermochemistry -
 -------------------
 Temperature   298.150 Kelvin.  Pressure   1.00000 Atm.
 Atom     1 has atomic number  8 and mass  15.99491

 Molecular mass:   226.10659 amu.
 Principal axes and moments of inertia in atomic units:
                           1         2         3
     Eigenvalues --  3506.490074232.944447202.53386
           X            0.92703  -0.25268   0.27707
           Y            0.16923   0.94127   0.29218
           Z           -0.33462  -0.22397   0.91535
 This molecule is an asymmetric top.
 Rotational symmetry number  1.
 Warning -- assumption of classical behavior for rotation
           may cause significant error
 Rotational temperatures (Kelvin)      0.02470     0.02046     0.01203
 Rotational constants (GHZ):           0.51469     0.42636     0.25057
 Zero-point vibrational energy     641464.1 (Joules/Mol)
                                  153.31361 (Kcal/Mol)
 Warning -- explicit consideration of  22 degrees of freedom as
           vibrations may cause significant error
 Vibrational temperatures:     25.64    42.95    75.07    95.37   108.66
          (Kelvin)            128.82   129.83   179.03   220.76   276.82
                              311.74   408.23   436.59   472.53   476.98
                              491.40   560.73   586.63   671.07   774.04
                              791.05   869.93   904.39   950.46   973.27
                             1011.14  1062.10  1093.39  1094.64  1132.73
                             1183.33  1199.43  1210.42  1242.81  1321.41
                             1327.00  1357.10  1409.11  1477.98  1484.61
                             1495.50  1572.19  1602.24  1608.61  1649.21
                             1653.02  1675.99  1738.02  1789.57  1817.83
                             1832.85  1865.43  1867.85  1882.47  1942.95
                             1968.14  1999.54  2001.54  2011.78  2016.08
                             2069.04  2103.36  2115.02  2156.68  2163.31
                             2232.64  2307.90  2397.52  2495.04  2676.18
                             4339.09  4348.82  4363.80  4365.28  4394.65
                             4458.28  4477.24  4635.79  4661.33  5016.58
                             5128.03  5144.48  5209.64  5480.95

 Zero-point correction=                           0.244321 (Hartree/Particle)
 Thermal correction to Energy=                    0.260437
 Thermal correction to Enthalpy=                  0.261382
 Thermal correction to Gibbs Free Energy=         0.197956
 Sum of electronic and zero-point Energies=           -796.056230
 Sum of electronic and thermal Energies=              -796.040114
 Sum of electronic and thermal Enthalpies=            -796.039169
 Sum of electronic and thermal Free Energies=         -796.102595

                     E (Thermal)             CV                S
                      KCal/Mol        Cal/Mol-Kelvin    Cal/Mol-Kelvin
 Total                  163.427             58.626            133.491
 Electronic               0.000              0.000              0.000
 Translational            0.889              2.981             42.150
 Rotational               0.889              2.981             33.036
 Vibrational            161.649             52.665             58.306
 Vibration     1          0.593              1.986              6.863
 Vibration     2          0.594              1.984              5.839
 Vibration     3          0.596              1.977              4.733
 Vibration     4          0.598              1.970              4.261
 Vibration     5          0.599              1.965              4.004
 Vibration     6          0.602              1.957              3.670
 Vibration     7          0.602              1.956              3.655
 Vibration     8          0.610              1.929              3.030
 Vibration     9          0.619              1.899              2.629
 Vibration    10          0.634              1.850              2.205
 Vibration    11          0.646              1.816              1.987
 Vibration    12          0.682              1.704              1.511
 Vibration    13          0.695              1.667              1.398
 Vibration    14          0.712              1.619              1.268
 Vibration    15          0.714              1.613              1.253
 Vibration    16          0.721              1.592              1.205
 Vibration    17          0.758              1.492              1.001
 Vibration    18          0.772              1.453              0.935
 Vibration    19          0.824              1.325              0.748
 Vibration    20          0.893              1.166              0.570
 Vibration    21          0.905              1.140              0.545
 Vibration    22          0.963              1.022              0.442

 Optimization completed.
    -- Stationary point found.
 Normal termination of Gaussian 09 at Wed Jul 28 23:24:12 2021.
