 Gaussian 09, Revision D.01,
 Gaussian 09:  ES64L-G09RevD.01 24-Apr-2013

 ----------------------------------------------------------------------
 # B3LYP/6-311G(d,p) opt=calcfc freq=noraman nosymm integral(ultrafineg
 rid)
 ----------------------------------------------------------------------

 ------------------------------------------------------------
 Candidate Structure: Conf:683 OPT and FREQ calc in gas phase
 ------------------------------------------------------------
 Symbolic Z-matrix:
 Charge =  0 Multiplicity = 1

 SCF Done:  E(RB3LYP) =  -796.320159324     A.U. after   14 cycles
 SCF Done:  E(RB3LYP) =  -796.322491555     A.U. after   12 cycles
 SCF Done:  E(RB3LYP) =  -796.322945960     A.U. after   12 cycles
 SCF Done:  E(RB3LYP) =  -796.322959544     A.U. after   12 cycles
 SCF Done:  E(RB3LYP) =  -796.323009311     A.U. after   11 cycles
 SCF Done:  E(RB3LYP) =  -796.323048635     A.U. after   10 cycles
 SCF Done:  E(RB3LYP) =  -796.323049115     A.U. after    9 cycles
 Optimization completed.
    -- Stationary point found.
 Normal termination of Gaussian 09 at Wed Jul 28 22:50:02 2021.

 ----------------------------------------------------------------------
 #N Geom=AllCheck Guess=TCheck SCRF=Check GenChk RB3LYP/6-311G(d,p) Fre
 q
 ----------------------------------------------------------------------

 Structure from the checkpoint file:  "conf-683.chk"
 ------------------------------------------------------------
 Candidate Structure: Conf:683 OPT and FREQ calc in gas phase
 ------------------------------------------------------------
 Charge =  0 Multiplicity = 1

                          Input orientation:
 ---------------------------------------------------------------------
 Center     Atomic      Atomic             Coordinates (Angstroms)
 Number     Number       Type             X           Y           Z
 ---------------------------------------------------------------------
      1          8           0       -0.563378    0.034071   -2.144124
      2          6           0        0.383067    0.328284   -1.412288
      3          7           0        0.240746    0.626825   -0.098844
      4          6           0       -1.059033    0.797184    0.513720
      5          6           0       -1.087900    2.128636    1.256464
      6          8           0       -2.340029    2.440223    1.654522
      7          8           0       -0.132124    2.822747    1.488176
      8          6           0       -1.474597   -0.346087    1.478482
      9          6           0       -1.465906   -1.722789    0.883554
     10          6           0       -1.371777   -2.953737    1.489557
     11          7           0       -1.498209   -3.968749    0.569994
     12          6           0       -1.661049   -3.362106   -0.583600
     13          7           0       -1.668915   -2.003230   -0.453654
     14          6           0        1.811567    0.339864   -1.950303
     15          6           0        2.750961    1.409423   -1.376275
     16          7           0        3.015483    1.177049    0.053733
     17          1           0        1.087919    0.896664    0.409248
     18          1           0       -1.793798    0.855579   -0.293362
     19          1           0       -2.282886    3.278675    2.137211
     20          1           0       -0.807063   -0.341339    2.346293
     21          1           0       -2.473636   -0.096958    1.851008
     22          1           0       -1.230145   -3.161098    2.540034
     23          1           0       -1.772467   -3.846329   -1.541962
     24          1           0       -1.607636   -1.327276   -1.214003
     25          1           0        2.237082   -0.657169   -1.779770
     26          1           0        1.723677    0.457511   -3.031550
     27          1           0        2.279519    2.391946   -1.467568
     28          1           0        3.664793    1.435233   -1.985309
     29          1           0        3.635893    0.383289    0.182131
     30          1           0        3.459934    1.983655    0.478273
 ---------------------------------------------------------------------

 SCF Done:  E(RB3LYP) =  -796.323049115     A.U. after    1 cycles

 Alpha  occ. eigenvalues --  -19.18556 -19.12964 -19.09411 -14.34346 -14.33847
 Alpha  occ. eigenvalues --  -14.32090 -14.27090 -10.32233 -10.28169 -10.24082
 Alpha  occ. eigenvalues --  -10.22045 -10.20287 -10.19613 -10.19261 -10.19173
 Alpha  occ. eigenvalues --  -10.16357  -1.13187  -1.04975  -1.04222  -0.99816
 Alpha  occ. eigenvalues --   -0.93945  -0.91040  -0.85508  -0.80917  -0.77196
 Alpha  occ. eigenvalues --   -0.74007  -0.67597  -0.65870  -0.62598  -0.59856
 Alpha  occ. eigenvalues --   -0.58883  -0.57470  -0.54687  -0.52711  -0.51849
 Alpha  occ. eigenvalues --   -0.51004  -0.49379  -0.48418  -0.47370  -0.46906
 Alpha  occ. eigenvalues --   -0.45639  -0.44766  -0.43168  -0.42284  -0.41231
 Alpha  occ. eigenvalues --   -0.40940  -0.40342  -0.39588  -0.39264  -0.38589
 Alpha  occ. eigenvalues --   -0.37926  -0.35973  -0.34507  -0.30356  -0.27926
 Alpha  occ. eigenvalues --   -0.27433  -0.26824  -0.26622  -0.25296  -0.21286
 Alpha virt. eigenvalues --   -0.01375   0.00120   0.02309   0.02559   0.03810
 Alpha virt. eigenvalues --    0.05821   0.06094   0.06330   0.07028   0.07995
 Alpha virt. eigenvalues --    0.08881   0.09437   0.10868   0.11470   0.12170

 Mulliken charges:
               1
     1  O   -0.428453
     2  C    0.373434
     3  N   -0.366023
     4  C   -0.126347
     5  C    0.364116
     6  O   -0.318248
     7  O   -0.326498
     8  C   -0.126078
     9  C    0.075442
    10  C   -0.073787
    11  N   -0.303224
    12  C    0.140464
    13  N   -0.368078
    14  C   -0.233413
    15  C   -0.132535
    16  N   -0.482867
    17  H    0.251225
    18  H    0.166096
    19  H    0.258028
    20  H    0.122164
    21  H    0.148650
    22  H    0.085652
    23  H    0.101815
    24  H    0.248841
    25  H    0.136620
    26  H    0.142217
    27  H    0.133904
    28  H    0.115800
    29  H    0.205607
    30  H    0.215476
 Sum of Mulliken charges =   0.00000

 Dipole moment (field-independent basis, Debye):
    X=              3.4868    Y=              5.0412    Z=              0.3731  Tot=              6.1409
 Quadrupole moment (field-independent basis, Debye-Ang):
   XX=            -81.4973   YY=           -110.0053   ZZ=            -91.5944
   XY=             -7.3315   XZ=             -5.3458   YZ=              6.6822

  Exact polarizability: 118.948  10.404 141.916  -7.722  10.145 129.774
 Approx polarizability: 170.873   8.788 199.537   8.101  12.243 204.785

                      1                      2                      3
                      A                      A                      A
 Frequencies --     25.4819                46.1638                56.1527
 Red. masses --      5.0637                 9.5386                 3.9544
 Frc consts  --      0.0019                 0.0120                 0.0073
 IR Inten    --      4.2020                 2.2395                 1.8741

                      4                      5                      6
                      A                      A                      A
 Frequencies --     68.9461                86.7632               104.9828
 Red. masses --      4.0954                 4.0774                 5.1997
 Frc consts  --      0.0115                 0.0181                 0.0338
 IR Inten    --      0.7468                 2.0567                 1.3421

                      7                      8                      9
                      A                      A                      A
 Frequencies --    121.5684               142.2630               184.4330
 Red. masses --      3.9311                 6.1227                 6.5355
 Frc consts  --      0.0342                 0.0730                 0.1310
 IR Inten    --      6.7139                11.7955                 1.3504

                     10                     11                     12
                      A                      A                      A
 Frequencies --    205.3474               227.3455               264.2172
 Red. masses --      2.2477                 5.0755                 3.8610
 Frc consts  --      0.0558                 0.1546                 0.1588
 IR Inten    --      2.6848                10.1891                 0.8312

                     13                     14                     15
                      A                      A                      A
 Frequencies --    306.6335               308.7561               346.8011
 Red. masses --      2.5609                 2.0212                 4.2965
 Frc consts  --      0.1419                 0.1135                 0.3045
 IR Inten    --      2.8612                10.9800                 0.1801

                     16                     17                     18
                      A                      A                      A
 Frequencies --    357.0690               434.4468               484.0214
 Red. masses --      3.0359                 3.2861                 2.9067
 Frc consts  --      0.2281                 0.3654                 0.4012
 IR Inten    --      6.5763                14.6584                13.0712

                     19                     20                     21
                      A                      A                      A
 Frequencies --    514.4900               588.6939               598.9455
 Red. masses --      2.9858                 2.8798                 1.5309
 Frc consts  --      0.4657                 0.5880                 0.3236
 IR Inten    --     37.7731                12.0639                72.9342

                     22                     23                     24
                      A                      A                      A
 Frequencies --    634.1977               647.1517               676.8891
 Red. masses --      3.6597                 4.5612                 3.4908
 Frc consts  --      0.8672                 1.1255                 0.9424
 IR Inten    --     10.2117                40.8322                32.4878

                     25                     26                     27
                      A                      A                      A
 Frequencies --    691.7192               698.6956               765.2125
 Red. masses --      3.1703                 3.2015                 1.3161
 Frc consts  --      0.8937                 0.9208                 0.4540
 IR Inten    --     43.5799                14.5739                83.3896

                     28                     29                     30
                      A                      A                      A
 Frequencies --    779.9128               811.2847               815.5845
 Red. masses --      2.8856                 1.2303                 1.4041
 Frc consts  --      1.0341                 0.4771                 0.5503
 IR Inten    --     32.2763                60.5340                16.3388

                     31                     32                     33
                      A                      A                      A
 Frequencies --    835.2309               846.3494               878.8378
 Red. masses --      1.3738                 1.4000                 2.7940
 Frc consts  --      0.5647                 0.5909                 1.2714
 IR Inten    --     17.2765                66.2717                 3.9266

                     34                     35                     36
                      A                      A                      A
 Frequencies --    898.6590               914.3967               941.3596
 Red. masses --      2.2177                 2.0143                 5.6380
 Frc consts  --      1.0552                 0.9923                 2.9437
 IR Inten    --     24.6926                33.4015                22.3027

                     37                     38                     39
                      A                      A                      A
 Frequencies --    960.7398               992.9106              1013.1406
 Red. masses --      2.5205                 2.2433                 2.4757
 Frc consts  --      1.3707                 1.3030                 1.4972
 IR Inten    --      3.8860                 2.9983                 9.3521

                     40                     41                     42
                      A                      A                      A
 Frequencies --   1025.4571              1051.8666              1081.3417
 Red. masses --      2.5499                 3.0525                 2.6500
 Frc consts  --      1.5798                 1.9899                 1.8257
 IR Inten    --     32.1391                10.8607                 6.0883

                     43                     44                     45
                      A                      A                      A
 Frequencies --   1129.7735              1140.5609              1154.3675
 Red. masses --      3.3131                 2.1364                 1.7816
 Frc consts  --      2.4916                 1.6374                 1.3988
 IR Inten    --    124.1447                19.6950                15.7696

                     46                     47                     48
                      A                      A                      A
 Frequencies --   1159.9584              1179.6647              1234.5223
 Red. masses --      1.3861                 2.2538                 1.4775
 Frc consts  --      1.0988                 1.8479                 1.3267
 IR Inten    --     45.9049                95.2792                 9.6569

                     49                     50                     51
                      A                      A                      A
 Frequencies --   1260.9724              1264.1515              1275.4041
 Red. masses --      2.0840                 1.4169                 1.5237
 Frc consts  --      1.9524                 1.3341                 1.4603
 IR Inten    --      2.5733                34.7852                12.1537

                     52                     53                     54
                      A                      A                      A
 Frequencies --   1289.3824              1314.0321              1316.6592
 Red. masses --      1.3437                 1.6908                 1.3581
 Frc consts  --      1.3162                 1.7201                 1.3871
 IR Inten    --      6.9508                11.0906                 2.4748

                     55                     56                     57
                      A                      A                      A
 Frequencies --   1344.9565              1367.9026              1373.7546
 Red. masses --      1.7860                 1.3737                 1.4706
 Frc consts  --      1.9035                 1.5145                 1.6352
 IR Inten    --      4.8479                13.4478                 9.7324

                     58                     59                     60
                      A                      A                      A
 Frequencies --   1392.3650              1397.6346              1422.3782
 Red. masses --      2.3852                 2.3817                 1.4005
 Frc consts  --      2.7244                 2.7411                 1.6694
 IR Inten    --     16.8182                77.4205                16.7026

                     61                     62                     63
                      A                      A                      A
 Frequencies --   1462.3504              1465.7226              1485.9105
 Red. masses --      2.1758                 1.0817                 1.2630
 Frc consts  --      2.7414                 1.3691                 1.6431
 IR Inten    --     39.1288                11.7913                18.7260

                     64                     65                     66
                      A                      A                      A
 Frequencies --   1498.3967              1511.5101              1589.7244
 Red. masses --      2.7302                 1.0844                 1.8405
 Frc consts  --      3.6116                 1.4597                 2.7406
 IR Inten    --     14.5788                 3.7614               281.6988

                     67                     68                     69
                      A                      A                      A
 Frequencies --   1608.7463              1658.1919              1710.0940
 Red. masses --      3.4117                 1.0901                 7.0630
 Frc consts  --      5.2023                 1.7660                12.1696
 IR Inten    --     17.8863                40.1297               300.2799

                     70                     71                     72
                      A                      A                      A
 Frequencies --   1826.0805              2983.8856              3022.3729
 Red. masses --     10.0664                 1.0720                 1.0705
 Frc consts  --     19.7772                 5.6235                 5.7616
 IR Inten    --    266.8867                83.5950                 5.9510

                     73                     74                     75
                      A                      A                      A
 Frequencies --   3027.4237              3056.1092              3065.6000
 Red. masses --      1.0590                 1.0985                 1.0915
 Frc consts  --      5.7188                 6.0447                 6.0438
 IR Inten    --     20.5367                 5.3681                23.0313

                     76                     77                     78
                      A                      A                      A
 Frequencies --   3075.8974              3102.5494              3223.6723
 Red. masses --      1.0873                 1.0924                 1.0958
 Frc consts  --      6.0612                 6.1955                 6.7095
 IR Inten    --     12.3769                 9.2362                10.5728

                     79                     80                     81
                      A                      A                      A
 Frequencies --   3237.7483              3361.7659              3451.7328
 Red. masses --      1.0970                 1.0823                 1.0861
 Frc consts  --      6.7756                 7.2069                 7.6240
 IR Inten    --      1.7760               390.8650               347.1027

                     82                     83                     84
                      A                      A                      A
 Frequencies --   3498.3812              3580.3483              3753.7347
 Red. masses --      1.0500                 1.0933                 1.0643
 Frc consts  --      7.5711                 8.2572                 8.8361
 IR Inten    --      0.3998                 3.9161                74.1418

 - Thermochemistry -
 -------------------
 Temperature   298.150 Kelvin.  Pressure   1.00000 Atm.
 Atom     1 has atomic number  8 and mass  15.99491

 Molecular mass:   226.10659 amu.
 Principal axes and moments of inertia in atomic units:
                           1         2         3
     Eigenvalues --  2963.069554565.738106262.76773
           X            0.51807  -0.61831   0.59101
           Y            0.84940   0.45317  -0.27047
           Z           -0.10059   0.64213   0.75997
 This molecule is an asymmetric top.
 Rotational symmetry number  1.
 Warning -- assumption of classical behavior for rotation
           may cause significant error
 Rotational temperatures (Kelvin)      0.02923     0.01897     0.01383
 Rotational constants (GHZ):           0.60908     0.39528     0.28817
 Zero-point vibrational energy     644253.9 (Joules/Mol)
                                  153.98039 (Kcal/Mol)
 Warning -- explicit consideration of  21 degrees of freedom as
           vibrations may cause significant error
 Vibrational temperatures:     36.66    66.42    80.79    99.20   124.83
          (Kelvin)            151.05   174.91   204.68   265.36   295.45
                              327.10   380.15   441.18   444.23   498.97
                              513.74   625.07   696.40   740.24   847.00
                              861.75   912.47   931.11   973.89   995.23
                             1005.27  1100.97  1122.12  1167.26  1173.44
                             1201.71  1217.71  1264.45  1292.97  1315.61
                             1354.40  1382.29  1428.58  1457.68  1475.40
                             1513.40  1555.81  1625.49  1641.01  1660.88
                             1668.92  1697.27  1776.20  1814.26  1818.83
                             1835.02  1855.13  1890.60  1894.38  1935.09
                             1968.10  1976.52  2003.30  2010.88  2046.48
                             2103.99  2108.85  2137.89  2155.86  2174.72
                             2287.26  2314.62  2385.77  2460.44  2627.32
                             4293.14  4348.52  4355.78  4397.05  4410.71
                             4425.52  4463.87  4638.14  4658.39  4836.83
                             4966.27  5033.38  5151.32  5400.78

 Zero-point correction=                           0.245383 (Hartree/Particle)
 Thermal correction to Energy=                    0.260895
 Thermal correction to Enthalpy=                  0.261839
 Thermal correction to Gibbs Free Energy=         0.200775
 Sum of electronic and zero-point Energies=           -796.077666
 Sum of electronic and thermal Energies=              -796.062154
 Sum of electronic and thermal Enthalpies=            -796.061210
 Sum of electronic and thermal Free Energies=         -796.122274

                     E (Thermal)             CV                S
                      KCal/Mol        Cal/Mol-Kelvin    Cal/Mol-Kelvin
 Total                  163.714             57.245            128.519
 Electronic               0.000              0.000              0.000
 Translational            0.889              2.981             42.150
 Rotational               0.889              2.981             32.805
 Vibrational            161.936             51.283             53.564
 Vibration     1          0.593              1.985              6.153
 Vibration     2          0.595              1.979              4.975
 Vibration     3          0.596              1.975              4.588
 Vibration     4          0.598              1.969              4.183
 Vibration     5          0.601              1.958              3.732
 Vibration     6          0.605              1.945              3.360
 Vibration     7          0.609              1.931              3.075
 Vibration     8          0.616              1.911              2.773
 Vibration     9          0.631              1.861              2.283
 Vibration    10          0.640              1.832              2.085
 Vibration    11          0.651              1.799              1.900
 Vibration    12          0.671              1.739              1.634
 Vibration    13          0.697              1.661              1.380
 Vibration    14          0.698              1.657              1.369
 Vibration    15          0.725              1.582              1.181
 Vibration    16          0.732              1.561              1.135
 Vibration    17          0.795              1.395              0.844
 Vibration    18          0.840              1.285              0.699
 Vibration    19          0.870              1.218              0.623
 Vibration    20          0.946              1.056              0.470
 Vibration    21          0.957              1.034              0.451

 Optimization completed.
    -- Stationary point found.
 Normal termination of Gaussian 09 at Wed Jul 28 23:23:26 2021.
