 Gaussian 09, Revision D.01,
 Gaussian 09:  ES64L-G09RevD.01 24-Apr-2013

 ----------------------------------------------------------------------
 # B3LYP/6-311G(d,p) opt=calcfc freq=noraman nosymm integral(ultrafineg
 rid)
 ----------------------------------------------------------------------

 ------------------------------------------------------------
 Candidate Structure: Conf:599 OPT and FREQ calc in gas phase
 ------------------------------------------------------------
 Symbolic Z-matrix:
 Charge =  0 Multiplicity = 1

 SCF Done:  E(RB3LYP) =  -796.303919339     A.U. after   14 cycles
 SCF Done:  E(RB3LYP) =  -796.306266201     A.U. after   12 cycles
 SCF Done:  E(RB3LYP) =  -796.306346435     A.U. after   12 cycles
 SCF Done:  E(RB3LYP) =  -796.306354450     A.U. after   11 cycles
 SCF Done:  E(RB3LYP) =  -796.306357544     A.U. after   10 cycles
 SCF Done:  E(RB3LYP) =  -796.306357601     A.U. after    7 cycles
 Optimization completed.
    -- Stationary point found.
 Normal termination of Gaussian 09 at Wed Jul 28 22:45:21 2021.

 ----------------------------------------------------------------------
 #N Geom=AllCheck Guess=TCheck SCRF=Check GenChk RB3LYP/6-311G(d,p) Fre
 q
 ----------------------------------------------------------------------

 Structure from the checkpoint file:  "conf-599.chk"
 ------------------------------------------------------------
 Candidate Structure: Conf:599 OPT and FREQ calc in gas phase
 ------------------------------------------------------------
 Charge =  0 Multiplicity = 1

                          Input orientation:
 ---------------------------------------------------------------------
 Center     Atomic      Atomic             Coordinates (Angstroms)
 Number     Number       Type             X           Y           Z
 ---------------------------------------------------------------------
      1          8           0        2.713783    1.627188    0.787157
      2          6           0        1.916176    0.803631    0.387209
      3          7           0        1.046603    1.144384   -0.653549
      4          6           0       -0.220996    0.482690   -0.972706
      5          6           0       -0.366671    0.348490   -2.504585
      6          8           0        0.784815    0.353761   -3.185781
      7          8           0       -1.426024    0.218306   -3.063380
      8          6           0       -1.450691    1.166160   -0.314763
      9          6           0       -2.629260    0.277815   -0.072929
     10          6           0       -3.238434   -0.116004    1.096386
     11          7           0       -4.317475   -0.927195    0.840015
     12          6           0       -4.365731   -1.028291   -0.469586
     13          7           0       -3.372536   -0.315541   -1.071977
     14          6           0        1.845273   -0.615864    0.930455
     15          6           0        2.962123   -0.915102    1.949942
     16          7           0        4.330870   -0.870287    1.453246
     17          1           0        1.069831    2.146075   -0.821275
     18          1           0       -0.160231   -0.542677   -0.600926
     19          1           0        1.498548    0.540455   -2.550586
     20          1           0       -1.732944    2.039706   -0.913905
     21          1           0       -1.127096    1.541765    0.658544
     22          1           0       -2.963498    0.153939    2.105507
     23          1           0       -5.089160   -1.599054   -1.031820
     24          1           0       -3.136414   -0.253467   -2.054695
     25          1           0        0.864622   -0.765835    1.400449
     26          1           0        1.895133   -1.326236    0.095840
     27          1           0        2.882322   -0.203044    2.774547
     28          1           0        2.776010   -1.907687    2.370896
     29          1           0        4.467442   -1.520978    0.686214
     30          1           0        4.543537    0.062958    1.118349
 ---------------------------------------------------------------------

 SCF Done:  E(RB3LYP) =  -796.306357601     A.U. after    1 cycles

 Alpha  occ. eigenvalues --  -19.19305 -19.13958 -19.12316 -14.37733 -14.36193
 Alpha  occ. eigenvalues --  -14.29060 -14.28743 -10.33679 -10.30951 -10.26822
 Alpha  occ. eigenvalues --  -10.22158 -10.21705 -10.21003 -10.20809 -10.20596
 Alpha  occ. eigenvalues --  -10.18321  -1.14066  -1.08043  -1.05916  -1.01704
 Alpha  occ. eigenvalues --   -0.96597  -0.89153  -0.87308  -0.82005  -0.78184
 Alpha  occ. eigenvalues --   -0.75311  -0.69331  -0.66549  -0.64557  -0.61348
 Alpha  occ. eigenvalues --   -0.60007  -0.59499  -0.57715  -0.55044  -0.54043
 Alpha  occ. eigenvalues --   -0.51711  -0.49558  -0.49116  -0.48664  -0.47659
 Alpha  occ. eigenvalues --   -0.46355  -0.44859  -0.44462  -0.43872  -0.43572
 Alpha  occ. eigenvalues --   -0.42353  -0.41482  -0.41114  -0.40438  -0.39313
 Alpha  occ. eigenvalues --   -0.38740  -0.37097  -0.35404  -0.32798  -0.30825
 Alpha  occ. eigenvalues --   -0.28936  -0.28393  -0.26953  -0.24594  -0.23294
 Alpha virt. eigenvalues --   -0.03282  -0.02461   0.00650   0.01702   0.02819
 Alpha virt. eigenvalues --    0.03922   0.04971   0.05550   0.06480   0.07368
 Alpha virt. eigenvalues --    0.07818   0.08118   0.08922   0.10310   0.10617

 Mulliken charges:
               1
     1  O   -0.337329
     2  C    0.373860
     3  N   -0.469983
     4  C   -0.132677
     5  C    0.424281
     6  O   -0.279220
     7  O   -0.348235
     8  C   -0.162242
     9  C    0.074711
    10  C   -0.071118
    11  N   -0.297514
    12  C    0.151558
    13  N   -0.365389
    14  C   -0.322635
    15  C   -0.091095
    16  N   -0.451408
    17  H    0.235615
    18  H    0.184863
    19  H    0.253363
    20  H    0.139660
    21  H    0.135988
    22  H    0.092714
    23  H    0.108880
    24  H    0.251979
    25  H    0.144153
    26  H    0.126166
    27  H    0.128447
    28  H    0.119286
    29  H    0.178622
    30  H    0.204699
 Sum of Mulliken charges =   0.00000

 Dipole moment (field-independent basis, Debye):
    X=              1.5003    Y=              0.3871    Z=             -1.8366  Tot=              2.4028
 Quadrupole moment (field-independent basis, Debye-Ang):
   XX=           -118.9925   YY=            -93.0929   ZZ=           -106.8219
   XY=             -6.1589   XZ=             -1.6968   YZ=              1.3738

  Exact polarizability: 160.769  18.164 104.441  10.179  -1.633 128.503
 Approx polarizability: 214.805  34.382 164.514  11.236   3.539 200.244

                      1                      2                      3
                      A                      A                      A
 Frequencies --     20.3018                39.4454                50.9185
 Red. masses --      5.7142                 4.7600                 3.4518
 Frc consts  --      0.0014                 0.0044                 0.0053
 IR Inten    --      0.3146                 0.3237                 2.2343

                      4                      5                      6
                      A                      A                      A
 Frequencies --     65.6086                80.2496                91.3328
 Red. masses --      6.8721                 5.1320                 6.2111
 Frc consts  --      0.0174                 0.0195                 0.0305
 IR Inten    --      0.4938                 1.0141                 9.8184

                      7                      8                      9
                      A                      A                      A
 Frequencies --    136.0635               145.1392               154.4899
 Red. masses --      4.7887                 5.9702                 3.1150
 Frc consts  --      0.0522                 0.0741                 0.0438
 IR Inten    --      2.8887                11.4344                 5.0558

                     10                     11                     12
                      A                      A                      A
 Frequencies --    207.6971               246.3953               285.4183
 Red. masses --      4.3069                 2.9279                 4.5774
 Frc consts  --      0.1095                 0.1047                 0.2197
 IR Inten    --      6.3167                 7.9196                 9.3786

                     13                     14                     15
                      A                      A                      A
 Frequencies --    312.5491               339.6231               361.1257
 Red. masses --      4.3429                 2.8256                 5.0170
 Frc consts  --      0.2500                 0.1920                 0.3855
 IR Inten    --      1.1977                 2.9898                14.7799

                     16                     17                     18
                      A                      A                      A
 Frequencies --    365.1717               412.5370               442.3047
 Red. masses --      1.1504                 2.9710                 4.9080
 Frc consts  --      0.0904                 0.2979                 0.5657
 IR Inten    --     51.6716                11.1066                 0.8345

                     19                     20                     21
                      A                      A                      A
 Frequencies --    525.1025               552.4258               599.5360
 Red. masses --      2.3461                 2.7183                 4.1161
 Frc consts  --      0.3811                 0.4888                 0.8717
 IR Inten    --     14.8366                 3.5116                 9.8693

                     22                     23                     24
                      A                      A                      A
 Frequencies --    627.5327               649.8096               673.4659
 Red. masses --      3.3361                 3.4103                 2.2524
 Frc consts  --      0.7740                 0.8484                 0.6019
 IR Inten    --     32.1874                 5.8530                29.4707

                     25                     26                     27
                      A                      A                      A
 Frequencies --    683.2074               722.2334               736.5350
 Red. masses --      1.7823                 3.8321                 1.5304
 Frc consts  --      0.4902                 1.1777                 0.4892
 IR Inten    --     72.8667                 4.3341                41.9203

                     28                     29                     30
                      A                      A                      A
 Frequencies --    742.1994               799.2076               808.5739
 Red. masses --      2.1280                 1.3798                 1.9457
 Frc consts  --      0.6907                 0.5193                 0.7495
 IR Inten    --     23.1307               120.5067                51.7320

                     31                     32                     33
                      A                      A                      A
 Frequencies --    825.3139               827.3562               850.0967
 Red. masses --      1.9871                 1.7562                 1.3994
 Frc consts  --      0.7974                 0.7083                 0.5958
 IR Inten    --     72.0312                10.7555                11.5900

                     34                     35                     36
                      A                      A                      A
 Frequencies --    854.4404               885.0276               927.5855
 Red. masses --      1.6121                 2.5945                 1.6295
 Frc consts  --      0.6934                 1.1973                 0.8260
 IR Inten    --    193.6374                 5.9192                10.2947

                     37                     38                     39
                      A                      A                      A
 Frequencies --    940.2481               981.2226              1020.5025
 Red. masses --      5.7373                 2.7523                 2.2201
 Frc consts  --      2.9884                 1.5613                 1.3622
 IR Inten    --     16.6164                 3.9107                59.9780

                     40                     41                     42
                      A                      A                      A
 Frequencies --   1026.0713              1047.3392              1108.9857
 Red. masses --      4.0385                 4.2987                 2.6561
 Frc consts  --      2.5051                 2.7782                 1.9246
 IR Inten    --      4.6618                21.4441                 5.9945

                     43                     44                     45
                      A                      A                      A
 Frequencies --   1119.1948              1125.3768              1147.5829
 Red. masses --      1.6029                 3.6773                 2.0324
 Frc consts  --      1.1830                 2.7440                 1.5770
 IR Inten    --     64.5558                29.8164                 9.7682

                     46                     47                     48
                      A                      A                      A
 Frequencies --   1164.0660              1197.4068              1203.0751
 Red. masses --      1.4159                 1.3154                 2.3307
 Frc consts  --      1.1304                 1.1112                 1.9876
 IR Inten    --     42.3517                 1.2451                24.2414

                     49                     50                     51
                      A                      A                      A
 Frequencies --   1237.4184              1261.4684              1267.0040
 Red. masses --      1.7876                 2.4566                 1.4807
 Frc consts  --      1.6127                 2.3033                 1.4005
 IR Inten    --     99.6849                11.6524               105.2694

                     52                     53                     54
                      A                      A                      A
 Frequencies --   1273.0605              1303.5296              1322.5999
 Red. masses --      1.5270                 1.2640                 1.3344
 Frc consts  --      1.4581                 1.2654                 1.3753
 IR Inten    --     36.3566                 2.2523                21.3288

                     55                     56                     57
                      A                      A                      A
 Frequencies --   1365.0984              1365.7308              1384.9042
 Red. masses --      1.4396                 1.8303                 1.6561
 Frc consts  --      1.5806                 2.0114                 1.8714
 IR Inten    --     56.8725               161.0990               273.0078

                     58                     59                     60
                      A                      A                      A
 Frequencies --   1389.7498              1398.5591              1407.5209
 Red. masses --      3.7490                 1.2911                 1.3509
 Frc consts  --      4.2662                 1.4879                 1.5768
 IR Inten    --     23.2558                 7.2070                45.5920

                     61                     62                     63
                      A                      A                      A
 Frequencies --   1433.3131              1451.5892              1477.3424
 Red. masses --      2.7613                 1.1199                 1.1943
 Frc consts  --      3.3423                 1.3903                 1.5358
 IR Inten    --     34.5263                 9.4554                24.9025

                     64                     65                     66
                      A                      A                      A
 Frequencies --   1479.2495              1485.9042              1501.1212
 Red. masses --      1.3358                 1.0924                 3.3093
 Frc consts  --      1.7221                 1.4210                 4.3935
 IR Inten    --     14.4391                 7.3842                19.5868

                     67                     68                     69
                      A                      A                      A
 Frequencies --   1601.8938              1662.8929              1773.8296
 Red. masses --      4.2973                 1.0933                 8.0657
 Frc consts  --      6.4971                 1.7813                14.9526
 IR Inten    --     15.8138                28.9707               396.6789

                     70                     71                     72
                      A                      A                      A
 Frequencies --   1832.4217              3005.7055              3021.5597
 Red. masses --      9.8474                 1.0603                 1.0673
 Frc consts  --     19.4816                 5.6440                 5.7412
 IR Inten    --    243.8157                21.1304                23.2710

                     73                     74                     75
                      A                      A                      A
 Frequencies --   3036.3543              3045.0037              3080.3081
 Red. masses --      1.0849                 1.0780                 1.0833
 Frc consts  --      5.8931                 5.8891                 6.0560
 IR Inten    --      9.2771                36.5975                 8.1888

                     76                     77                     78
                      A                      A                      A
 Frequencies --   3086.6721              3087.4671              3224.3963
 Red. masses --      1.1021                 1.0943                 1.0962
 Frc consts  --      6.1868                 6.1459                 6.7147
 IR Inten    --     21.4440                 4.0622                 8.2647

                     79                     80                     81
                      A                      A                      A
 Frequencies --   3239.8683              3496.0885              3530.2252
 Red. masses --      1.0974                 1.0487                 1.0748
 Frc consts  --      6.7868                 7.5521                 7.8919
 IR Inten    --      1.6350                 2.3163                21.2124

                     82                     83                     84
                      A                      A                      A
 Frequencies --   3578.2045              3582.3626              3648.6242
 Red. masses --      1.0825                 1.0933                 1.0646
 Frc consts  --      8.1657                 8.2666                 8.3501
 IR Inten    --    192.7430                 3.7111               193.8452

 - Thermochemistry -
 -------------------
 Temperature   298.150 Kelvin.  Pressure   1.00000 Atm.
 Atom     1 has atomic number  8 and mass  15.99491

 Molecular mass:   226.10659 amu.
 Principal axes and moments of inertia in atomic units:
                           1         2         3
     Eigenvalues --  2359.137616440.326177864.53311
           X            0.97515  -0.19318  -0.10848
           Y            0.05348  -0.26989   0.96140
           Z            0.21500   0.94331   0.25285
 This molecule is an asymmetric top.
 Rotational symmetry number  1.
 Warning -- assumption of classical behavior for rotation
           may cause significant error
 Rotational temperatures (Kelvin)      0.03671     0.01345     0.01101
 Rotational constants (GHZ):           0.76500     0.28023     0.22948
 Zero-point vibrational energy     642790.2 (Joules/Mol)
                                  153.63055 (Kcal/Mol)
 Warning -- explicit consideration of  21 degrees of freedom as
           vibrations may cause significant error
 Vibrational temperatures:     29.21    56.75    73.26    94.40   115.46
          (Kelvin)            131.41   195.76   208.82   222.28   298.83
                              354.51   410.65   449.69   488.64   519.58
                              525.40   593.55   636.38   755.50   794.82
                              862.60   902.88   934.93   968.97   982.98
                             1039.13  1059.71  1067.86  1149.88  1163.36
                             1187.44  1190.38  1223.10  1229.35  1273.36
                             1334.59  1352.81  1411.76  1468.27  1476.29
                             1506.89  1595.58  1610.27  1619.16  1651.11
                             1674.83  1722.80  1730.95  1780.37  1814.97
                             1822.93  1831.65  1875.49  1902.92  1964.07
                             1964.98  1992.57  1999.54  2012.21  2025.11
                             2062.22  2088.51  2125.56  2128.31  2137.88
                             2159.78  2304.76  2392.53  2552.14  2636.44
                             4324.53  4347.35  4368.63  4381.08  4431.87
                             4441.03  4442.17  4639.18  4661.44  5030.09
                             5079.20  5148.23  5154.21  5249.55

 Zero-point correction=                           0.244826 (Hartree/Particle)
 Thermal correction to Energy=                    0.260448
 Thermal correction to Enthalpy=                  0.261392
 Thermal correction to Gibbs Free Energy=         0.199500
 Sum of electronic and zero-point Energies=           -796.061532
 Sum of electronic and thermal Energies=              -796.045910
 Sum of electronic and thermal Enthalpies=            -796.044966
 Sum of electronic and thermal Free Energies=         -796.106857

                     E (Thermal)             CV                S
                      KCal/Mol        Cal/Mol-Kelvin    Cal/Mol-Kelvin
 Total                  163.433             57.738            130.262
 Electronic               0.000              0.000              0.000
 Translational            0.889              2.981             42.150
 Rotational               0.889              2.981             33.146
 Vibrational            161.656             51.776             54.966
 Vibration     1          0.593              1.986              6.604
 Vibration     2          0.594              1.981              5.287
 Vibration     3          0.595              1.977              4.781
 Vibration     4          0.597              1.971              4.281
 Vibration     5          0.600              1.963              3.885
 Vibration     6          0.602              1.955              3.631
 Vibration     7          0.614              1.917              2.859
 Vibration     8          0.617              1.908              2.735
 Vibration     9          0.620              1.898              2.616
 Vibration    10          0.641              1.829              2.064
 Vibration    11          0.661              1.769              1.756
 Vibration    12          0.683              1.701              1.501
 Vibration    13          0.701              1.650              1.349
 Vibration    14          0.720              1.596              1.214
 Vibration    15          0.735              1.552              1.117
 Vibration    16          0.738              1.544              1.100
 Vibration    17          0.776              1.443              0.918
 Vibration    18          0.802              1.378              0.819
 Vibration    19          0.880              1.194              0.598
 Vibration    20          0.908              1.134              0.539
 Vibration    21          0.958              1.033              0.450

 Optimization completed.
    -- Stationary point found.
 Normal termination of Gaussian 09 at Wed Jul 28 23:17:23 2021.
