 Gaussian 09, Revision D.01,
 Gaussian 09:  ES64L-G09RevD.01 24-Apr-2013

 ----------------------------------------------------------------------
 # B3LYP/6-311G(d,p) opt=calcfc freq=noraman nosymm integral(ultrafineg
 rid)
 ----------------------------------------------------------------------

 ------------------------------------------------------------
 Candidate Structure: Conf:340 OPT and FREQ calc in gas phase
 ------------------------------------------------------------
 Symbolic Z-matrix:
 Charge =  0 Multiplicity = 1

 SCF Done:  E(RB3LYP) =  -796.310651533     A.U. after   14 cycles
 SCF Done:  E(RB3LYP) =  -796.312534004     A.U. after   12 cycles
 SCF Done:  E(RB3LYP) =  -796.312722533     A.U. after   12 cycles
 SCF Done:  E(RB3LYP) =  -796.312731261     A.U. after   11 cycles
 SCF Done:  E(RB3LYP) =  -796.312749213     A.U. after   10 cycles
 SCF Done:  E(RB3LYP) =  -796.312750799     A.U. after    9 cycles
 SCF Done:  E(RB3LYP) =  -796.312750964     A.U. after    8 cycles
 SCF Done:  E(RB3LYP) =  -796.312750968     A.U. after    6 cycles
 Optimization completed.
    -- Stationary point found.
 Normal termination of Gaussian 09 at Wed Jul 28 22:48:20 2021.

 ----------------------------------------------------------------------
 #N Geom=AllCheck Guess=TCheck SCRF=Check GenChk RB3LYP/6-311G(d,p) Fre
 q
 ----------------------------------------------------------------------

 Structure from the checkpoint file:  "conf-340.chk"
 ------------------------------------------------------------
 Candidate Structure: Conf:340 OPT and FREQ calc in gas phase
 ------------------------------------------------------------
 Charge =  0 Multiplicity = 1

                          Input orientation:
 ---------------------------------------------------------------------
 Center     Atomic      Atomic             Coordinates (Angstroms)
 Number     Number       Type             X           Y           Z
 ---------------------------------------------------------------------
      1          8           0        0.588938   -0.981764   -0.715065
      2          6           0        1.362687   -0.187233   -0.180936
      3          7           0        0.921242    0.983034    0.350144
      4          6           0       -0.458138    1.379193    0.176170
      5          6           0       -0.585094    2.877006    0.427982
      6          8           0       -1.818905    3.379946    0.229090
      7          8           0        0.324757    3.572989    0.788704
      8          6           0       -1.456366    0.563093    1.075334
      9          6           0       -2.620232    0.062664    0.290425
     10          6           0       -3.968692    0.339433    0.287063
     11          7           0       -4.612333   -0.384691   -0.691706
     12          6           0       -3.669079   -1.086938   -1.276885
     13          7           0       -2.443400   -0.855124   -0.724888
     14          6           0        2.855094   -0.447745   -0.088672
     15          6           0        3.176632   -1.923103    0.160696
     16          7           0        4.620650   -2.144578    0.044599
     17          1           0        1.557625    1.688215    0.697930
     18          1           0       -0.734696    1.195229   -0.867464
     19          1           0       -2.436782    2.689230   -0.058561
     20          1           0       -0.897656   -0.273274    1.499437
     21          1           0       -1.808017    1.166657    1.914906
     22          1           0       -4.511966    0.995057    0.952075
     23          1           0       -3.813512   -1.774807   -2.096165
     24          1           0       -1.536138   -1.230522   -0.986114
     25          1           0        3.307943   -0.157349   -1.043067
     26          1           0        3.306471    0.184344    0.683507
     27          1           0        2.670223   -2.513043   -0.605007
     28          1           0        2.750052   -2.227919    1.129952
     29          1           0        4.822482   -3.138989    0.049816
     30          1           0        5.106088   -1.748903    0.844558
 ---------------------------------------------------------------------

 SCF Done:  E(RB3LYP) =  -796.312750968     A.U. after    1 cycles

 Alpha  occ. eigenvalues --  -19.18433 -19.12960 -19.10999 -14.36591 -14.35995
 Alpha  occ. eigenvalues --  -14.29846 -14.29231 -10.32641 -10.29572 -10.25278
 Alpha  occ. eigenvalues --  -10.22707 -10.21454 -10.21133 -10.20640 -10.19331
 Alpha  occ. eigenvalues --  -10.19012  -1.12823  -1.06472  -1.04936  -1.02158
 Alpha  occ. eigenvalues --   -0.95340  -0.89499  -0.87803  -0.82068  -0.77809
 Alpha  occ. eigenvalues --   -0.74625  -0.69191  -0.65168  -0.63079  -0.61995
 Alpha  occ. eigenvalues --   -0.61022  -0.59829  -0.56822  -0.55457  -0.51752
 Alpha  occ. eigenvalues --   -0.50814  -0.49995  -0.48833  -0.47791  -0.46564
 Alpha  occ. eigenvalues --   -0.46455  -0.44620  -0.44211  -0.43184  -0.42657
 Alpha  occ. eigenvalues --   -0.41746  -0.41295  -0.40791  -0.40330  -0.39908
 Alpha  occ. eigenvalues --   -0.37019  -0.36272  -0.34461  -0.30685  -0.29138
 Alpha  occ. eigenvalues --   -0.28787  -0.28439  -0.27394  -0.25283  -0.23921
 Alpha virt. eigenvalues --   -0.02008  -0.00329   0.00705   0.02565   0.03189
 Alpha virt. eigenvalues --    0.04039   0.04929   0.05761   0.06671   0.07035
 Alpha virt. eigenvalues --    0.07538   0.08912   0.09218   0.10114   0.10957

 Mulliken charges:
               1
     1  O   -0.432213
     2  C    0.394059
     3  N   -0.408373
     4  C   -0.149825
     5  C    0.404082
     6  O   -0.291283
     7  O   -0.317761
     8  C   -0.202114
     9  C    0.045553
    10  C   -0.086464
    11  N   -0.295416
    12  C    0.158581
    13  N   -0.355804
    14  C   -0.236724
    15  C   -0.106220
    16  N   -0.458056
    17  H    0.246246
    18  H    0.180335
    19  H    0.255317
    20  H    0.162563
    21  H    0.147569
    22  H    0.103513
    23  H    0.112299
    24  H    0.259398
    25  H    0.151851
    26  H    0.111693
    27  H    0.132113
    28  H    0.095579
    29  H    0.194365
    30  H    0.185137
 Sum of Mulliken charges =   0.00000

 Dipole moment (field-independent basis, Debye):
    X=              3.4284    Y=             -2.3870    Z=              1.2967  Tot=              4.3742
 Quadrupole moment (field-independent basis, Debye-Ang):
   XX=           -108.1318   YY=           -104.8244   ZZ=            -91.2944
   XY=             -5.4828   XZ=              4.3886   YZ=             -3.0817

  Exact polarizability: 166.346  -4.332 128.846  10.062  19.477  99.995
 Approx polarizability: 224.965   4.184 190.027  16.141  36.169 162.073

                      1                      2                      3
                      A                      A                      A
 Frequencies --     28.6246                36.4363                62.9796
 Red. masses --      3.6264                 5.5970                 2.6994
 Frc consts  --      0.0018                 0.0044                 0.0063
 IR Inten    --      0.9283                 2.3825                 4.0090

                      4                      5                      6
                      A                      A                      A
 Frequencies --     73.5930                83.6804                89.4652
 Red. masses --      4.4761                 6.9340                 4.1431
 Frc consts  --      0.0143                 0.0286                 0.0195
 IR Inten    --      2.9409                 1.2970                 2.4523

                      7                      8                      9
                      A                      A                      A
 Frequencies --     98.6670               115.7935               164.2892
 Red. masses --      6.1696                 5.3936                 4.3699
 Frc consts  --      0.0354                 0.0426                 0.0695
 IR Inten    --      8.4386                 6.0722                 5.9564

                     10                     11                     12
                      A                      A                      A
 Frequencies --    192.3572               206.4532               252.1533
 Red. masses --      5.4094                 3.4705                 1.3613
 Frc consts  --      0.1179                 0.0872                 0.0510
 IR Inten    --      8.3867                11.0297                45.1762

                     13                     14                     15
                      A                      A                      A
 Frequencies --    274.7529               316.2315               337.7329
 Red. masses --      4.1267                 4.6894                 2.6856
 Frc consts  --      0.1835                 0.2763                 0.1805
 IR Inten    --      6.5065                 3.3156                 6.9807

                     16                     17                     18
                      A                      A                      A
 Frequencies --    356.6113               396.2453               413.0238
 Red. masses --      5.7739                 3.9196                 3.8550
 Frc consts  --      0.4326                 0.3626                 0.3875
 IR Inten    --      8.5853                 7.5664                 8.4115

                     19                     20                     21
                      A                      A                      A
 Frequencies --    530.1067               551.3245               589.2605
 Red. masses --      1.4843                 2.3979                 1.3220
 Frc consts  --      0.2458                 0.4294                 0.2705
 IR Inten    --     51.9760                10.4587                90.9669

                     22                     23                     24
                      A                      A                      A
 Frequencies --    630.5702               644.5510               661.0470
 Red. masses --      3.3713                 3.3858                 3.0493
 Frc consts  --      0.7898                 0.8287                 0.7851
 IR Inten    --     33.7434                 6.1166                 8.9275

                     25                     26                     27
                      A                      A                      A
 Frequencies --    680.2097               712.0768               749.7897
 Red. masses --      3.7270                 3.7392                 2.6440
 Frc consts  --      1.0160                 1.1171                 0.8758
 IR Inten    --     18.3967                 5.3796                35.7396

                     28                     29                     30
                      A                      A                      A
 Frequencies --    757.2684               771.4505               808.1598
 Red. masses --      1.2680                 4.2135                 1.3986
 Frc consts  --      0.4284                 1.4774                 0.5382
 IR Inten    --     33.5089                 2.0283                15.0420

                     31                     32                     33
                      A                      A                      A
 Frequencies --    835.2430               847.5487               854.4219
 Red. masses --      1.4059                 1.4649                 1.3710
 Frc consts  --      0.5779                 0.6200                 0.5897
 IR Inten    --     25.0277                21.3957                99.4991

                     34                     35                     36
                      A                      A                      A
 Frequencies --    865.3122               939.8014               946.5345
 Red. masses --      2.3328                 5.5598                 2.9295
 Frc consts  --      1.0292                 2.8932                 1.5464
 IR Inten    --     27.7185                12.3367                14.2355

                     37                     38                     39
                      A                      A                      A
 Frequencies --    983.5506               985.1920              1019.8518
 Red. masses --      2.4424                 4.4015                 3.5536
 Frc consts  --      1.3921                 2.5171                 2.1777
 IR Inten    --      4.6176                 0.9326                15.2003

                     40                     41                     42
                      A                      A                      A
 Frequencies --   1030.4169              1063.0536              1096.0839
 Red. masses --      3.1981                 2.8217                 2.1329
 Frc consts  --      2.0006                 1.8788                 1.5098
 IR Inten    --      3.6054                21.8742                20.4041

                     43                     44                     45
                      A                      A                      A
 Frequencies --   1117.3588              1131.7056              1142.7203
 Red. masses --      1.7019                 2.0556                 2.0789
 Frc consts  --      1.2519                 1.5511                 1.5994
 IR Inten    --     43.0470                 9.9393                 6.1391

                     46                     47                     48
                      A                      A                      A
 Frequencies --   1166.4557              1194.4944              1198.7754
 Red. masses --      1.4809                 1.6476                 1.9659
 Frc consts  --      1.1872                 1.3851                 1.6645
 IR Inten    --      7.7980                34.8393                 1.5970

                     49                     50                     51
                      A                      A                      A
 Frequencies --   1226.1365              1256.4515              1264.1374
 Red. masses --      1.5418                 2.3293                 1.4012
 Frc consts  --      1.3657                 2.1665                 1.3193
 IR Inten    --     35.4733                22.0750                 7.2632

                     52                     53                     54
                      A                      A                      A
 Frequencies --   1276.1843              1300.7083              1332.6142
 Red. masses --      1.3482                 1.3375                 1.3440
 Frc consts  --      1.2937                 1.3332                 1.4063
 IR Inten    --      6.6088                49.9039                13.0287

                     55                     56                     57
                      A                      A                      A
 Frequencies --   1339.0572              1348.7512              1369.3790
 Red. masses --      1.1453                 1.7409                 1.4341
 Frc consts  --      1.2100                 1.8659                 1.5844
 IR Inten    --     62.1718               195.6464                 5.4282

                     58                     59                     60
                      A                      A                      A
 Frequencies --   1383.5952              1408.7922              1427.9956
 Red. masses --      3.2081                 1.7145                 1.4918
 Frc consts  --      3.6184                 2.0049                 1.7923
 IR Inten    --      8.0919                63.8378                39.5329

                     61                     62                     63
                      A                      A                      A
 Frequencies --   1437.8251              1470.8516              1487.7590
 Red. masses --      2.5332                 1.0963                 1.1248
 Frc consts  --      3.0856                 1.3974                 1.4668
 IR Inten    --     70.0555                 9.2498                12.7456

                     64                     65                     66
                      A                      A                      A
 Frequencies --   1503.8831              1520.0229              1523.9467
 Red. masses --      3.5401                 1.0837                 2.4802
 Frc consts  --      4.7173                 1.4752                 3.3937
 IR Inten    --     42.3717                 1.5104               286.1190

                     67                     68                     69
                      A                      A                      A
 Frequencies --   1608.2708              1665.4207              1709.3899
 Red. masses --      4.3036                 1.0914                 8.5756
 Frc consts  --      6.5584                 1.7835                14.7638
 IR Inten    --     14.8918                24.2156               199.4672

                     70                     71                     72
                      A                      A                      A
 Frequencies --   1847.8719              2945.0819              3027.3241
 Red. masses --      9.9666                 1.0743                 1.0594
 Frc consts  --     20.0511                 5.4898                 5.7204
 IR Inten    --    305.0161                73.3288                15.1612

                     73                     74                     75
                      A                      A                      A
 Frequencies --   3030.5644              3059.4375              3063.7940
 Red. masses --      1.0819                 1.0606                 1.0994
 Frc consts  --      5.8547                 5.8489                 6.0803
 IR Inten    --     10.0265                16.7413                 8.2905

                     76                     77                     78
                      A                      A                      A
 Frequencies --   3093.7665              3098.6191              3223.5156
 Red. masses --      1.0908                 1.1049                 1.0961
 Frc consts  --      6.1515                 6.2504                 6.7109
 IR Inten    --     19.3702                 9.4308                 5.7712

                     79                     80                     81
                      A                      A                      A
 Frequencies --   3240.7749              3488.3402              3532.3769
 Red. masses --      1.0974                 1.0501                 1.0839
 Frc consts  --      6.7910                 7.5284                 7.9687
 IR Inten    --      1.2898                 0.7417               236.5801

                     82                     83                     84
                      A                      A                      A
 Frequencies --   3564.9400              3587.8535              3704.0078
 Red. masses --      1.0922                 1.0781                 1.0671
 Frc consts  --      8.1783                 8.1766                 8.6261
 IR Inten    --      0.1652                80.5926               173.9827

 - Thermochemistry -
 -------------------
 Temperature   298.150 Kelvin.  Pressure   1.00000 Atm.
 Atom     1 has atomic number  8 and mass  15.99491

 Molecular mass:   226.10659 amu.
 Principal axes and moments of inertia in atomic units:
                           1         2         3
     Eigenvalues --  2540.049916029.647908204.31303
           X            0.96181   0.25579  -0.09741
           Y           -0.27192   0.93363  -0.23322
           Z            0.03129   0.25080   0.96753
 This molecule is an asymmetric top.
 Rotational symmetry number  1.
 Warning -- assumption of classical behavior for rotation
           may cause significant error
 Rotational temperatures (Kelvin)      0.03410     0.01436     0.01056
 Rotational constants (GHZ):           0.71051     0.29931     0.21997
 Zero-point vibrational energy     642232.4 (Joules/Mol)
                                  153.49722 (Kcal/Mol)
 Warning -- explicit consideration of  21 degrees of freedom as
           vibrations may cause significant error
 Vibrational temperatures:     41.18    52.42    90.61   105.88   120.40
          (Kelvin)            128.72   141.96   166.60   236.38   276.76
                              297.04   362.79   395.31   454.99   485.92
                              513.08   570.11   594.25   762.70   793.23
                              847.81   907.25   927.36   951.10   978.67
                             1024.52  1078.78  1089.54  1109.94  1162.76
                             1201.73  1219.43  1229.32  1244.99  1352.16
                             1361.85  1415.11  1417.47  1467.34  1482.54
                             1529.50  1577.02  1607.63  1628.27  1644.12
                             1678.27  1718.61  1724.77  1764.13  1807.75
                             1818.81  1836.14  1871.43  1917.33  1926.60
                             1940.55  1970.23  1990.68  2026.94  2054.56
                             2068.71  2116.22  2140.55  2163.75  2186.97
                             2192.62  2313.94  2396.17  2459.43  2658.67
                             4237.31  4355.64  4360.30  4401.84  4408.11
                             4451.23  4458.22  4637.91  4662.75  5018.94
                             5082.30  5129.15  5162.11  5329.23

 Zero-point correction=                           0.244613 (Hartree/Particle)
 Thermal correction to Energy=                    0.260545
 Thermal correction to Enthalpy=                  0.261489
 Thermal correction to Gibbs Free Energy=         0.199108
 Sum of electronic and zero-point Energies=           -796.068138
 Sum of electronic and thermal Energies=              -796.052206
 Sum of electronic and thermal Enthalpies=            -796.051262
 Sum of electronic and thermal Free Energies=         -796.113643

                     E (Thermal)             CV                S
                      KCal/Mol        Cal/Mol-Kelvin    Cal/Mol-Kelvin
 Total                  163.494             58.032            131.292
 Electronic               0.000              0.000              0.000
 Translational            0.889              2.981             42.150
 Rotational               0.889              2.981             33.196
 Vibrational            161.717             52.070             55.946
 Vibration     1          0.593              1.984              5.923
 Vibration     2          0.594              1.982              5.444
 Vibration     3          0.597              1.972              4.362
 Vibration     4          0.599              1.966              4.055
 Vibration     5          0.601              1.960              3.803
 Vibration     6          0.602              1.957              3.672
 Vibration     7          0.604              1.950              3.480
 Vibration     8          0.608              1.936              3.169
 Vibration     9          0.623              1.886              2.500
 Vibration    10          0.634              1.850              2.205
 Vibration    11          0.641              1.831              2.075
 Vibration    12          0.664              1.759              1.715
 Vibration    13          0.677              1.720              1.566
 Vibration    14          0.703              1.643              1.330
 Vibration    15          0.718              1.600              1.223
 Vibration    16          0.732              1.562              1.137
 Vibration    17          0.763              1.478              0.977
 Vibration    18          0.777              1.442              0.916
 Vibration    19          0.885              1.183              0.587
 Vibration    20          0.907              1.137              0.541
 Vibration    21          0.947              1.055              0.468

 Optimization completed.
    -- Stationary point found.
 Normal termination of Gaussian 09 at Wed Jul 28 23:19:24 2021.
