 Gaussian 09, Revision D.01,
 Gaussian 09:  ES64L-G09RevD.01 24-Apr-2013

 ----------------------------------------------------------------------
 # B3LYP/6-311G(d,p) opt=calcfc freq=noraman nosymm integral(ultrafineg
 rid)
 ----------------------------------------------------------------------

 ------------------------------------------------------------
 Candidate Structure: Conf:422 OPT and FREQ calc in gas phase
 ------------------------------------------------------------
 Symbolic Z-matrix:
 Charge =  0 Multiplicity = 1

 SCF Done:  E(RB3LYP) =  -796.306352232     A.U. after   14 cycles
 SCF Done:  E(RB3LYP) =  -796.308008013     A.U. after   12 cycles
 SCF Done:  E(RB3LYP) =  -796.308154275     A.U. after   11 cycles
 SCF Done:  E(RB3LYP) =  -796.308155311     A.U. after   10 cycles
 SCF Done:  E(RB3LYP) =  -796.308157409     A.U. after   10 cycles
 SCF Done:  E(RB3LYP) =  -796.308157456     A.U. after    6 cycles
 Optimization completed.
    -- Stationary point found.
 Normal termination of Gaussian 09 at Wed Jul 28 22:42:27 2021.

 ----------------------------------------------------------------------
 #N Geom=AllCheck Guess=TCheck SCRF=Check GenChk RB3LYP/6-311G(d,p) Fre
 q
 ----------------------------------------------------------------------

 Structure from the checkpoint file:  "conf-422.chk"
 ------------------------------------------------------------
 Candidate Structure: Conf:422 OPT and FREQ calc in gas phase
 ------------------------------------------------------------
 Charge =  0 Multiplicity = 1

                          Input orientation:
 ---------------------------------------------------------------------
 Center     Atomic      Atomic             Coordinates (Angstroms)
 Number     Number       Type             X           Y           Z
 ---------------------------------------------------------------------
      1          8           0        0.793452    0.663072    1.525577
      2          6           0        1.138394    0.078491    0.511477
      3          7           0        0.315891   -0.801829   -0.146377
      4          6           0       -0.954652   -1.221207    0.403327
      5          6           0       -0.923497   -2.728326    0.640884
      6          8           0       -1.941150   -3.130747    1.428853
      7          8           0       -0.116266   -3.485555    0.165500
      8          6           0       -2.163631   -0.878955   -0.501107
      9          6           0       -2.401157    0.589712   -0.672598
     10          6           0       -1.981171    1.712364   -0.001007
     11          7           0       -2.543185    2.848855   -0.544373
     12          6           0       -3.296010    2.430817   -1.530396
     13          7           0       -3.248027    1.069523   -1.657282
     14          6           0        2.486461    0.312729   -0.154266
     15          6           0        3.550355    0.797140    0.829977
     16          7           0        4.768876    1.171663    0.102978
     17          1           0        0.723854   -1.407805   -0.843036
     18          1           0       -1.069268   -0.720378    1.366858
     19          1           0       -1.872482   -4.093970    1.513643
     20          1           0       -3.048833   -1.357871   -0.067633
     21          1           0       -2.001274   -1.348073   -1.480654
     22          1           0       -1.290145    1.765750    0.825625
     23          1           0       -3.891058    3.050664   -2.184166
     24          1           0       -3.742072    0.514377   -2.337796
     25          1           0        2.819554   -0.596905   -0.667997
     26          1           0        2.354052    1.077462   -0.927534
     27          1           0        3.706029    0.029179    1.603580
     28          1           0        3.163356    1.679543    1.341804
     29          1           0        5.247779    0.341048   -0.233566
     30          1           0        5.415847    1.639142    0.729707
 ---------------------------------------------------------------------

 SCF Done:  E(RB3LYP) =  -796.308157456     A.U. after    1 cycles

 Alpha  occ. eigenvalues --  -19.18867 -19.13270 -19.08891 -14.36489 -14.34259
 Alpha  occ. eigenvalues --  -14.28619 -14.28115 -10.32452 -10.27628 -10.24171
 Alpha  occ. eigenvalues --  -10.21732 -10.20593 -10.20417 -10.19098 -10.17832
 Alpha  occ. eigenvalues --  -10.17044  -1.13489  -1.04838  -1.04369  -1.01290
 Alpha  occ. eigenvalues --   -0.93876  -0.88171  -0.86918  -0.81471  -0.76311
 Alpha  occ. eigenvalues --   -0.74086  -0.68568  -0.65037  -0.61452  -0.61059
 Alpha  occ. eigenvalues --   -0.59468  -0.58231  -0.54785  -0.52541  -0.51418
 Alpha  occ. eigenvalues --   -0.50338  -0.48658  -0.48540  -0.47779  -0.45761
 Alpha  occ. eigenvalues --   -0.45195  -0.44262  -0.43444  -0.42463  -0.41814
 Alpha  occ. eigenvalues --   -0.41043  -0.40297  -0.39949  -0.38854  -0.38260
 Alpha  occ. eigenvalues --   -0.35923  -0.34813  -0.34719  -0.30622  -0.27970
 Alpha  occ. eigenvalues --   -0.27259  -0.26366  -0.26153  -0.24023  -0.22458
 Alpha virt. eigenvalues --   -0.01668   0.00946   0.02122   0.02363   0.03093
 Alpha virt. eigenvalues --    0.03692   0.04706   0.06354   0.07074   0.08480
 Alpha virt. eigenvalues --    0.09201   0.09435   0.09967   0.10946   0.11648

 Mulliken charges:
               1
     1  O   -0.388977
     2  C    0.399803
     3  N   -0.385628
     4  C   -0.115226
     5  C    0.364479
     6  O   -0.315613
     7  O   -0.333016
     8  C   -0.139503
     9  C    0.084642
    10  C   -0.067848
    11  N   -0.299342
    12  C    0.147002
    13  N   -0.377609
    14  C   -0.254162
    15  C   -0.102535
    16  N   -0.460408
    17  H    0.226145
    18  H    0.182012
    19  H    0.258776
    20  H    0.145108
    21  H    0.113833
    22  H    0.126834
    23  H    0.106257
    24  H    0.222150
    25  H    0.105801
    26  H    0.153050
    27  H    0.096262
    28  H    0.133848
    29  H    0.181797
    30  H    0.192069
 Sum of Mulliken charges =   0.00000

 Dipole moment (field-independent basis, Debye):
    X=             -1.1065    Y=             -5.1176    Z=             -2.5850  Tot=              5.8392
 Quadrupole moment (field-independent basis, Debye-Ang):
   XX=            -74.5301   YY=           -102.7232   ZZ=            -89.5392
   XY=              8.2157   XZ=             12.2016   YZ=             -4.2499

  Exact polarizability: 140.431   0.874 141.536  11.833  -2.545 108.633
 Approx polarizability: 179.772  -0.876 208.462  11.015  17.584 181.699

                      1                      2                      3
                      A                      A                      A
 Frequencies --     20.9995                35.1758                49.0458
 Red. masses --      3.8879                 2.6454                 8.5587
 Frc consts  --      0.0010                 0.0019                 0.0121
 IR Inten    --      1.2446                 2.1869                 3.0553

                      4                      5                      6
                      A                      A                      A
 Frequencies --     52.4852                63.4764                73.2212
 Red. masses --      4.0003                 3.6679                 7.5213
 Frc consts  --      0.0065                 0.0087                 0.0238
 IR Inten    --      2.8904                 5.4614                 6.2895

                      7                      8                      9
                      A                      A                      A
 Frequencies --     91.8568               101.6322               136.7257
 Red. masses --      5.1762                 3.6375                 3.9724
 Frc consts  --      0.0257                 0.0221                 0.0438
 IR Inten    --      0.6519                 4.8124                 3.2526

                     10                     11                     12
                      A                      A                      A
 Frequencies --    180.4312               221.0428               242.1425
 Red. masses --      6.3821                 3.1286                 2.7276
 Frc consts  --      0.1224                 0.0901                 0.0942
 IR Inten    --      2.1993                 9.3457                 8.2861

                     13                     14                     15
                      A                      A                      A
 Frequencies --    256.6227               279.9912               310.1327
 Red. masses --      1.5781                 3.2636                 4.2540
 Frc consts  --      0.0612                 0.1507                 0.2411
 IR Inten    --     45.0870                 1.3372                 6.5248

                     16                     17                     18
                      A                      A                      A
 Frequencies --    349.2082               398.0976               446.8198
 Red. masses --      4.5848                 3.9005                 3.3228
 Frc consts  --      0.3294                 0.3642                 0.3909
 IR Inten    --      3.3235                13.5919                16.1086

                     19                     20                     21
                      A                      A                      A
 Frequencies --    493.6480               497.2279               531.3839
 Red. masses --      1.4906                 1.4639                 3.2517
 Frc consts  --      0.2140                 0.2132                 0.5410
 IR Inten    --     50.9642                96.2007                12.6893

                     22                     23                     24
                      A                      A                      A
 Frequencies --    599.6158               617.3411               649.1138
 Red. masses --      1.3881                 2.3756                 2.7832
 Frc consts  --      0.2940                 0.5334                 0.6909
 IR Inten    --     88.8854                 4.1970                41.3290

                     25                     26                     27
                      A                      A                      A
 Frequencies --    652.2542               681.0040               694.2520
 Red. masses --      3.8748                 3.3423                 3.1204
 Frc consts  --      0.9712                 0.9132                 0.8861
 IR Inten    --     31.6906                 8.8565                27.8698

                     28                     29                     30
                      A                      A                      A
 Frequencies --    730.5441               783.1551               804.5400
 Red. masses --      4.2671                 4.1147                 1.3505
 Frc consts  --      1.3418                 1.4869                 0.5150
 IR Inten    --      9.1550                20.7452                12.0688

                     31                     32                     33
                      A                      A                      A
 Frequencies --    807.9467               858.1389               879.0617
 Red. masses --      1.3990                 1.3499                 1.5484
 Frc consts  --      0.5381                 0.5857                 0.7050
 IR Inten    --     20.4818               119.9968                12.1041

                     34                     35                     36
                      A                      A                      A
 Frequencies --    905.6760               918.0605               937.7510
 Red. masses --      1.7200                 3.8151                 5.7290
 Frc consts  --      0.8313                 1.8945                 2.9683
 IR Inten    --     16.9488                13.3001                10.4401

                     37                     38                     39
                      A                      A                      A
 Frequencies --    978.5121               996.3449              1024.6565
 Red. masses --      2.6304                 2.6265                 3.7504
 Frc consts  --      1.4839                 1.5362                 2.3200
 IR Inten    --      7.0598                 9.9693                11.2911

                     40                     41                     42
                      A                      A                      A
 Frequencies --   1059.1176              1060.9304              1095.9427
 Red. masses --      3.0565                 2.9750                 2.0711
 Frc consts  --      2.0201                 1.9729                 1.4656
 IR Inten    --     26.4115                 4.0288                30.2090

                     43                     44                     45
                      A                      A                      A
 Frequencies --   1106.4388              1118.1353              1143.1787
 Red. masses --      1.6516                 2.6054                 2.4723
 Frc consts  --      1.1912                 1.9191                 1.9037
 IR Inten    --     15.6818                71.3011                21.6578

                     46                     47                     48
                      A                      A                      A
 Frequencies --   1159.2690              1177.3392              1202.1522
 Red. masses --      1.5953                 2.1320                 1.9527
 Frc consts  --      1.2632                 1.7412                 1.6627
 IR Inten    --    109.3814                88.6220                44.6182

                     49                     50                     51
                      A                      A                      A
 Frequencies --   1223.2251              1255.3925              1267.1641
 Red. masses --      1.7092                 1.3877                 1.4531
 Frc consts  --      1.5068                 1.2886                 1.3747
 IR Inten    --     41.9010                19.2727                24.0546

                     52                     53                     54
                      A                      A                      A
 Frequencies --   1283.4239              1291.3135              1338.0851
 Red. masses --      1.3086                 1.4442                 1.1149
 Frc consts  --      1.2700                 1.4189                 1.1761
 IR Inten    --     17.8819                 5.5350                 4.3012

                     55                     56                     57
                      A                      A                      A
 Frequencies --   1340.9182              1354.1621              1370.0107
 Red. masses --      1.6252                 1.5656                 1.6592
 Frc consts  --      1.7217                 1.6915                 1.8348
 IR Inten    --      2.3843                 2.4569                11.8391

                     58                     59                     60
                      A                      A                      A
 Frequencies --   1393.7080              1408.9347              1428.3875
 Red. masses --      2.1887                 2.2042                 2.6928
 Frc consts  --      2.5049                 2.5780                 3.2370
 IR Inten    --    116.5318                20.8669                17.5590

                     61                     62                     63
                      A                      A                      A
 Frequencies --   1430.0332              1467.5499              1484.8218
 Red. masses --      1.5261                 1.0876                 1.3038
 Frc consts  --      1.8387                 1.3800                 1.6936
 IR Inten    --     38.3415                 8.9034                25.9179

                     64                     65                     66
                      A                      A                      A
 Frequencies --   1503.8582              1518.1814              1538.1802
 Red. masses --      2.7657                 1.0836                 1.8093
 Frc consts  --      3.6852                 1.4716                 2.5222
 IR Inten    --      8.4370                 1.5189               243.0886

                     67                     68                     69
                      A                      A                      A
 Frequencies --   1608.0208              1664.2357              1751.0940
 Red. masses --      4.1877                 1.0894                 8.8717
 Frc consts  --      6.3799                 1.7777                16.0278
 IR Inten    --     14.1998                25.1857               193.9417

                     70                     71                     72
                      A                      A                      A
 Frequencies --   1823.4766              2954.8951              2998.5851
 Red. masses --     10.0114                 1.0745                 1.0641
 Frc consts  --     19.6131                 5.5275                 5.6370
 IR Inten    --    263.3069                69.1394                34.8857

                     73                     74                     75
                      A                      A                      A
 Frequencies --   3018.3835              3037.9653              3058.0596
 Red. masses --      1.0622                 1.0958                 1.0966
 Frc consts  --      5.7014                 5.9587                 6.0422
 IR Inten    --     20.1034                13.2079                 9.9008

                     76                     77                     78
                      A                      A                      A
 Frequencies --   3090.5975              3095.3554              3235.3143
 Red. masses --      1.0836                 1.0902                 1.0959
 Frc consts  --      6.0983                 6.1543                 6.7585
 IR Inten    --     10.5663                16.6869                 2.6912

                     79                     80                     81
                      A                      A                      A
 Frequencies --   3246.3085              3484.8890              3561.5229
 Red. masses --      1.0990                 1.0501                 1.0920
 Frc consts  --      6.8237                 7.5139                 8.1608
 IR Inten    --      2.7182                 1.4507                 0.0402

                     82                     83                     84
                      A                      A                      A
 Frequencies --   3613.3706              3645.8356              3750.3607
 Red. masses --      1.0767                 1.0809                 1.0643
 Frc consts  --      8.2824                 8.4653                 8.8200
 IR Inten    --     34.7021                42.3128                73.0350

 - Thermochemistry -
 -------------------
 Temperature   298.150 Kelvin.  Pressure   1.00000 Atm.
 Atom     1 has atomic number  8 and mass  15.99491

 Molecular mass:   226.10659 amu.
 Principal axes and moments of inertia in atomic units:
                           1         2         3
     Eigenvalues --  3359.596185217.245867823.74882
           X            0.97893   0.10364  -0.17593
           Y           -0.05809   0.96737   0.24662
           Z            0.19575  -0.23120   0.95301
 This molecule is an asymmetric top.
 Rotational symmetry number  1.
 Warning -- assumption of classical behavior for rotation
           may cause significant error
 Rotational temperatures (Kelvin)      0.02578     0.01660     0.01107
 Rotational constants (GHZ):           0.53719     0.34592     0.23067
 Zero-point vibrational energy     640046.7 (Joules/Mol)
                                  152.97484 (Kcal/Mol)
 Warning -- explicit consideration of  23 degrees of freedom as
           vibrations may cause significant error
 Vibrational temperatures:     30.21    50.61    70.57    75.51    91.33
          (Kelvin)            105.35   132.16   146.23   196.72   259.60
                              318.03   348.39   369.22   402.84   446.21
                              502.43   572.77   642.87   710.25   715.40
                              764.54   862.71   888.22   933.93   938.45
                              979.81   998.87  1051.09  1126.78  1157.55
                             1162.45  1234.67  1264.77  1303.06  1320.88
                             1349.21  1407.86  1433.52  1474.25  1523.83
                             1526.44  1576.82  1591.92  1608.75  1644.78
                             1667.93  1693.93  1729.63  1759.95  1806.23
                             1823.16  1846.56  1857.91  1925.20  1929.28
                             1948.33  1971.14  2005.23  2027.14  2055.13
                             2057.50  2111.47  2136.32  2163.71  2184.32
                             2213.10  2313.58  2394.46  2519.43  2623.57
                             4251.43  4314.29  4342.78  4370.95  4399.86
                             4446.67  4453.52  4654.89  4670.71  5013.97
                             5124.23  5198.83  5245.54  5395.93

 Zero-point correction=                           0.243781 (Hartree/Particle)
 Thermal correction to Energy=                    0.260236
 Thermal correction to Enthalpy=                  0.261180
 Thermal correction to Gibbs Free Energy=         0.196600
 Sum of electronic and zero-point Energies=           -796.064377
 Sum of electronic and thermal Energies=              -796.047922
 Sum of electronic and thermal Enthalpies=            -796.046977
 Sum of electronic and thermal Free Energies=         -796.111558

                     E (Thermal)             CV                S
                      KCal/Mol        Cal/Mol-Kelvin    Cal/Mol-Kelvin
 Total                  163.301             58.904            135.921
 Electronic               0.000              0.000              0.000
 Translational            0.889              2.981             42.150
 Rotational               0.889              2.981             33.283
 Vibrational            161.523             52.943             60.488
 Vibration     1          0.593              1.986              6.537
 Vibration     2          0.594              1.982              5.514
 Vibration     3          0.595              1.978              4.856
 Vibration     4          0.596              1.977              4.721
 Vibration     5          0.597              1.972              4.346
 Vibration     6          0.599              1.967              4.065
 Vibration     7          0.602              1.955              3.620
 Vibration     8          0.604              1.948              3.423
 Vibration     9          0.614              1.917              2.849
 Vibration    10          0.629              1.866              2.324
 Vibration    11          0.648              1.809              1.951
 Vibration    12          0.658              1.776              1.787
 Vibration    13          0.666              1.752              1.685
 Vibration    14          0.680              1.711              1.534
 Vibration    15          0.699              1.654              1.362
 Vibration    16          0.726              1.577              1.170
 Vibration    17          0.764              1.474              0.970
 Vibration    18          0.806              1.368              0.805
 Vibration    19          0.849              1.264              0.674
 Vibration    20          0.853              1.256              0.665
 Vibration    21          0.886              1.181              0.584
 Vibration    22          0.958              1.033              0.450
 Vibration    23          0.977              0.995              0.421

 Optimization completed.
    -- Stationary point found.
 Normal termination of Gaussian 09 at Wed Jul 28 23:13:14 2021.
