 Gaussian 09, Revision D.01,
 Gaussian 09:  ES64L-G09RevD.01 24-Apr-2013

 ----------------------------------------------------------------------
 # B3LYP/6-311G(d,p) opt=calcfc freq=noraman nosymm integral(ultrafineg
 rid)
 ----------------------------------------------------------------------

 ------------------------------------------------------------
 Candidate Structure: Conf:801 OPT and FREQ calc in gas phase
 ------------------------------------------------------------
 Symbolic Z-matrix:
 Charge =  0 Multiplicity = 1

 SCF Done:  E(RB3LYP) =  -796.303104979     A.U. after   14 cycles
 SCF Done:  E(RB3LYP) =  -796.305887662     A.U. after   14 cycles
 SCF Done:  E(RB3LYP) =  -796.304088713     A.U. after   14 cycles
 SCF Done:  E(RB3LYP) =  -796.306227406     A.U. after   11 cycles
 SCF Done:  E(RB3LYP) =  -796.306479304     A.U. after   12 cycles
 SCF Done:  E(RB3LYP) =  -796.305893159     A.U. after   14 cycles
 SCF Done:  E(RB3LYP) =  -796.306623199     A.U. after   10 cycles
 SCF Done:  E(RB3LYP) =  -796.298634355     A.U. after   13 cycles
 SCF Done:  E(RB3LYP) =  -796.306639638     A.U. after    8 cycles
 SCF Done:  E(RB3LYP) =  -796.306812069     A.U. after   11 cycles
 SCF Done:  E(RB3LYP) =  -796.306875546     A.U. after   11 cycles
 SCF Done:  E(RB3LYP) =  -796.306890496     A.U. after   10 cycles
 SCF Done:  E(RB3LYP) =  -796.306896945     A.U. after   10 cycles
 SCF Done:  E(RB3LYP) =  -796.306899336     A.U. after    9 cycles
 SCF Done:  E(RB3LYP) =  -796.306901609     A.U. after    9 cycles
 SCF Done:  E(RB3LYP) =  -796.306903401     A.U. after    9 cycles
 SCF Done:  E(RB3LYP) =  -796.306903515     A.U. after    7 cycles
 Optimization completed.
    -- Stationary point found.
 Normal termination of Gaussian 09 at Wed Jul 28 23:09:19 2021.

 ----------------------------------------------------------------------
 #N Geom=AllCheck Guess=TCheck SCRF=Check GenChk RB3LYP/6-311G(d,p) Fre
 q
 ----------------------------------------------------------------------

 Structure from the checkpoint file:  "conf-801.chk"
 ------------------------------------------------------------
 Candidate Structure: Conf:801 OPT and FREQ calc in gas phase
 ------------------------------------------------------------
 Charge =  0 Multiplicity = 1

                          Input orientation:
 ---------------------------------------------------------------------
 Center     Atomic      Atomic             Coordinates (Angstroms)
 Number     Number       Type             X           Y           Z
 ---------------------------------------------------------------------
      1          8           0        1.388145    0.202847   -1.432999
      2          6           0        1.676446   -0.253817   -0.335057
      3          7           0        0.781756   -0.264133    0.695712
      4          6           0       -0.523289    0.346143    0.568910
      5          6           0       -1.038229    0.646641    1.980911
      6          8           0       -2.147000    1.402230    2.056778
      7          8           0       -0.502771    0.229449    2.973851
      8          6           0       -1.500041   -0.565771   -0.237052
      9          6           0       -2.848857    0.037782   -0.479296
     10          6           0       -3.256869    1.152018   -1.181604
     11          7           0       -4.620556    1.323032   -1.091149
     12          6           0       -5.045865    0.330998   -0.347357
     13          7           0       -4.017236   -0.474720    0.052978
     14          6           0        3.034927   -0.865500   -0.031597
     15          6           0        4.185118   -0.016670   -0.583611
     16          7           0        5.465970   -0.678177   -0.307430
     17          1           0        1.053369   -0.537333    1.630418
     18          1           0       -0.421396    1.285396    0.014065
     19          1           0       -2.479944    1.612167    1.168204
     20          1           0       -1.594497   -1.521039    0.287882
     21          1           0       -1.001565   -0.764412   -1.187639
     22          1           0       -2.644468    1.820787   -1.767880
     23          1           0       -6.070644    0.143676   -0.065206
     24          1           0       -4.088200   -1.288040    0.644712
     25          1           0        3.055535   -1.851942   -0.511488
     26          1           0        3.179561   -1.028423    1.039498
     27          1           0        4.190465    0.950776   -0.071541
     28          1           0        3.990256    0.184243   -1.644585
     29          1           0        5.565784   -1.498891   -0.898781
     30          1           0        6.233864   -0.059420   -0.547934
 ---------------------------------------------------------------------

 SCF Done:  E(RB3LYP) =  -796.306903515     A.U. after    1 cycles

 Alpha  occ. eigenvalues --  -19.17871 -19.12441 -19.09061 -14.38724 -14.34668
 Alpha  occ. eigenvalues --  -14.30516 -14.29102 -10.32145 -10.27937 -10.24871
 Alpha  occ. eigenvalues --  -10.23920 -10.22813 -10.21170 -10.19915 -10.19801
 Alpha  occ. eigenvalues --  -10.18303  -1.12385  -1.04978  -1.04337  -1.03631
 Alpha  occ. eigenvalues --   -0.94142  -0.89215  -0.88699  -0.82151  -0.77331
 Alpha  occ. eigenvalues --   -0.74476  -0.69227  -0.64342  -0.63573  -0.62440
 Alpha  occ. eigenvalues --   -0.61329  -0.59604  -0.57103  -0.54900  -0.50932
 Alpha  occ. eigenvalues --   -0.50090  -0.49282  -0.48943  -0.47289  -0.46216
 Alpha  occ. eigenvalues --   -0.45552  -0.44896  -0.44124  -0.43758  -0.42713
 Alpha  occ. eigenvalues --   -0.42383  -0.41277  -0.39921  -0.39691  -0.38279
 Alpha  occ. eigenvalues --   -0.37400  -0.34911  -0.34034  -0.30482  -0.30011
 Alpha  occ. eigenvalues --   -0.28609  -0.27739  -0.26842  -0.24771  -0.24204
 Alpha virt. eigenvalues --   -0.01882   0.00204   0.00890   0.01917   0.02877
 Alpha virt. eigenvalues --    0.03847   0.04773   0.05029   0.06688   0.07312
 Alpha virt. eigenvalues --    0.07782   0.08750   0.09842   0.10465   0.11652

 Mulliken charges:
               1
     1  O   -0.395501
     2  C    0.367341
     3  N   -0.418320
     4  C   -0.142567
     5  C    0.397104
     6  O   -0.285676
     7  O   -0.325989
     8  C   -0.116632
     9  C   -0.022274
    10  C   -0.081194
    11  N   -0.281996
    12  C    0.154642
    13  N   -0.343973
    14  C   -0.236121
    15  C   -0.103604
    16  N   -0.463432
    17  H    0.242694
    18  H    0.168141
    19  H    0.264877
    20  H    0.118974
    21  H    0.176048
    22  H    0.116299
    23  H    0.117599
    24  H    0.233687
    25  H    0.130487
    26  H    0.119912
    27  H    0.113197
    28  H    0.119495
    29  H    0.185028
    30  H    0.191753
 Sum of Mulliken charges =   0.00000

 Dipole moment (field-independent basis, Debye):
    X=              0.1145    Y=             -3.1465    Z=             -0.3602  Tot=              3.1692
 Quadrupole moment (field-independent basis, Debye-Ang):
   XX=            -84.2652   YY=            -91.6034   ZZ=           -112.4683
   XY=             13.2128   XZ=            -10.7413   YZ=              0.4768

  Exact polarizability: 177.626 -12.904 105.121  -0.355 -10.493 113.208
 Approx polarizability: 213.769 -16.221 174.373   2.550 -29.964 187.153

                      1                      2                      3
                      A                      A                      A
 Frequencies --     21.3215                29.9006                43.2054
 Red. masses --      3.4927                 5.3247                 4.5234
 Frc consts  --      0.0009                 0.0028                 0.0050
 IR Inten    --      1.9858                 1.3283                 4.0375

                      4                      5                      6
                      A                      A                      A
 Frequencies --     57.4577                68.8449                78.2010
 Red. masses --      2.8633                 5.7163                 4.2139
 Frc consts  --      0.0056                 0.0160                 0.0152
 IR Inten    --      0.6399                15.1739                 1.3697

                      7                      8                      9
                      A                      A                      A
 Frequencies --     94.5535               106.6204               132.0217
 Red. masses --      5.6201                 5.6875                 4.4436
 Frc consts  --      0.0296                 0.0381                 0.0456
 IR Inten    --      1.6480                 1.5520                13.7281

                     10                     11                     12
                      A                      A                      A
 Frequencies --    195.7283               223.2473               244.4109
 Red. masses --      4.2774                 4.1828                 1.3416
 Frc consts  --      0.0965                 0.1228                 0.0472
 IR Inten    --      1.3578                21.5885                42.6567

                     13                     14                     15
                      A                      A                      A
 Frequencies --    279.2007               314.9274               330.8093
 Red. masses --      3.7158                 7.0371                 2.2538
 Frc consts  --      0.1707                 0.4112                 0.1453
 IR Inten    --     10.6978                 0.5306                 5.6172

                     16                     17                     18
                      A                      A                      A
 Frequencies --    349.6341               389.3913               400.8549
 Red. masses --      6.1691                 4.3822                 4.3931
 Frc consts  --      0.4443                 0.3915                 0.4159
 IR Inten    --      2.3788                26.4634                 3.8777

                     19                     20                     21
                      A                      A                      A
 Frequencies --    526.7247               551.2781               559.6210
 Red. masses --      1.8704                 1.4093                 2.0034
 Frc consts  --      0.3057                 0.2524                 0.3697
 IR Inten    --     28.4871               103.8127                31.5993

                     22                     23                     24
                      A                      A                      A
 Frequencies --    600.4704               632.3621               656.0648
 Red. masses --      1.4181                 3.1332                 2.1815
 Frc consts  --      0.3013                 0.7382                 0.5532
 IR Inten    --     81.7070                 1.4650                12.4156

                     25                     26                     27
                      A                      A                      A
 Frequencies --    670.2582               681.9064               737.8049
 Red. masses --      2.9812                 2.9915                 3.2325
 Frc consts  --      0.7891                 0.8196                 1.0367
 IR Inten    --     22.6838                12.3418                 1.5751

                     28                     29                     30
                      A                      A                      A
 Frequencies --    747.9097               770.4660               802.1198
 Red. masses --      5.3396                 3.7868                 1.3048
 Frc consts  --      1.7598                 1.3244                 0.4946
 IR Inten    --     11.3457                15.4639                13.2529

                     31                     32                     33
                      A                      A                      A
 Frequencies --    819.9885               826.9928               861.2358
 Red. masses --      2.3511                 1.5311                 1.4072
 Frc consts  --      0.9314                 0.6170                 0.6150
 IR Inten    --      5.8406                24.2214                19.8627

                     34                     35                     36
                      A                      A                      A
 Frequencies --    864.0787               936.8121               950.8070
 Red. masses --      1.3509                 5.8461                 3.2305
 Frc consts  --      0.5942                 3.0229                 1.7207
 IR Inten    --    126.4049                14.4109                23.6758

                     37                     38                     39
                      A                      A                      A
 Frequencies --    983.9068              1007.8699              1025.4006
 Red. masses --      2.0988                 3.5801                 3.9016
 Frc consts  --      1.1971                 2.1427                 2.4170
 IR Inten    --      4.1721                 5.0485                 9.0856

                     40                     41                     42
                      A                      A                      A
 Frequencies --   1033.9936              1045.6120              1089.2323
 Red. masses --      3.3845                 2.3289                 2.4269
 Frc consts  --      2.1320                 1.5002                 1.6965
 IR Inten    --      2.7516                12.0168                24.8789

                     43                     44                     45
                      A                      A                      A
 Frequencies --   1107.9223              1142.7633              1145.5297
 Red. masses --      1.6455                 2.1951                 2.9079
 Frc consts  --      1.1900                 1.6889                 2.2482
 IR Inten    --     16.7653                18.1586                 6.6400

                     46                     47                     48
                      A                      A                      A
 Frequencies --   1157.8822              1164.1499              1204.6568
 Red. masses --      1.4062                 1.4659                 2.0084
 Frc consts  --      1.1108                 1.1705                 1.7172
 IR Inten    --     23.0401                 9.1729                40.2337

                     49                     50                     51
                      A                      A                      A
 Frequencies --   1218.5170              1252.1752              1275.6207
 Red. masses --      1.7349                 2.0153                 1.4201
 Frc consts  --      1.5177                 1.8618                 1.3614
 IR Inten    --     17.7212                17.7376                 1.0152

                     52                     53                     54
                      A                      A                      A
 Frequencies --   1290.7793              1312.1505              1317.8720
 Red. masses --      1.3272                 1.3932                 1.2730
 Frc consts  --      1.3028                 1.4132                 1.3027
 IR Inten    --      8.3888                 3.7557                 5.6565

                     55                     56                     57
                      A                      A                      A
 Frequencies --   1322.7970              1358.1967              1360.7957
 Red. masses --      1.3955                 1.3206                 1.3997
 Frc consts  --      1.4387                 1.4353                 1.5272
 IR Inten    --     98.5058                53.8449                83.3176

                     58                     59                     60
                      A                      A                      A
 Frequencies --   1394.7563              1402.4299              1427.8957
 Red. masses --      2.5203                 2.0438                 1.4345
 Frc consts  --      2.8887                 2.3684                 1.7232
 IR Inten    --     68.6297               124.4309                33.1768

                     61                     62                     63
                      A                      A                      A
 Frequencies --   1431.1062              1474.7461              1485.9447
 Red. masses --      3.1335                 1.0975                 1.3474
 Frc consts  --      3.7811                 1.4064                 1.7529
 IR Inten    --     21.8138                 9.2463                12.0981

                     64                     65                     66
                      A                      A                      A
 Frequencies --   1492.0961              1521.1248              1522.8826
 Red. masses --      2.5228                 2.1026                 1.1179
 Frc consts  --      3.3093                 2.8664                 1.5276
 IR Inten    --     21.6531               323.8932                16.7938

                     67                     68                     69
                      A                      A                      A
 Frequencies --   1595.8517              1662.0398              1735.6516
 Red. masses --      4.0699                 1.0886                 9.5535
 Frc consts  --      6.1069                 1.7717                16.9566
 IR Inten    --     11.0031                29.0308               212.4837

                     70                     71                     72
                      A                      A                      A
 Frequencies --   1837.4146              2999.3271              3018.6875
 Red. masses --      9.6597                 1.0654                 1.0676
 Frc consts  --     19.2145                 5.6467                 5.7321
 IR Inten    --    282.2655                31.7555                10.0946

                     73                     74                     75
                      A                      A                      A
 Frequencies --   3032.8592              3048.2335              3049.2370
 Red. masses --      1.0796                 1.0662                 1.0916
 Frc consts  --      5.8509                 5.8370                 5.9799
 IR Inten    --      6.4840                14.7657                30.6276

                     76                     77                     78
                      A                      A                      A
 Frequencies --   3080.5246              3097.7670              3231.7294
 Red. masses --      1.0996                 1.1021                 1.0961
 Frc consts  --      6.1482                 6.2309                 6.7451
 IR Inten    --     31.0025                 2.4720                 3.8665

                     79                     80                     81
                      A                      A                      A
 Frequencies --   3243.4854              3481.7529              3559.2212
 Red. masses --      1.0979                 1.0502                 1.0919
 Frc consts  --      6.8053                 7.5007                 8.1498
 IR Inten    --      0.8642                 1.1734                 0.1004

                     82                     83                     84
                      A                      A                      A
 Frequencies --   3592.1057              3642.4979              3666.5518
 Red. masses --      1.0777                 1.0813                 1.0668
 Frc consts  --      8.1934                 8.4530                 8.4502
 IR Inten    --     73.3301                52.7578               238.4220

 - Thermochemistry -
 -------------------
 Temperature   298.150 Kelvin.  Pressure   1.00000 Atm.
 Atom     1 has atomic number  8 and mass  15.99491

 Molecular mass:   226.10659 amu.
 Principal axes and moments of inertia in atomic units:
                           1         2         3
     Eigenvalues --  1563.831068041.689918998.56972
           X            0.99154   0.03654   0.12459
           Y           -0.12707   0.07592   0.98898
           Z           -0.02667   0.99644  -0.07992
 This molecule is an asymmetric top.
 Rotational symmetry number  1.
 Warning -- assumption of classical behavior for rotation
           may cause significant error
 Rotational temperatures (Kelvin)      0.05539     0.01077     0.00963
 Rotational constants (GHZ):           1.15405     0.22442     0.20056
 Zero-point vibrational energy     640618.1 (Joules/Mol)
                                  153.11139 (Kcal/Mol)
 Warning -- explicit consideration of  22 degrees of freedom as
           vibrations may cause significant error
 Vibrational temperatures:     30.68    43.02    62.16    82.67    99.05
          (Kelvin)            112.51   136.04   153.40   189.95   281.61
                              321.20   351.65   401.71   453.11   475.96
                              503.04   560.25   576.74   757.84   793.17
                              805.17   863.94   909.83   943.93   964.35
                              981.11  1061.54  1076.07  1108.53  1154.07
                             1179.78  1189.86  1239.12  1243.21  1347.86
                             1368.00  1415.62  1450.10  1475.32  1487.68
                             1504.40  1567.16  1594.05  1644.18  1648.16
                             1665.93  1674.95  1733.23  1753.17  1801.60
                             1835.33  1857.14  1887.89  1896.12  1903.21
                             1954.14  1957.88  2006.74  2017.78  2054.42
                             2059.04  2121.83  2137.94  2146.79  2188.56
                             2191.09  2296.07  2391.30  2497.21  2643.63
                             4315.36  4343.21  4363.60  4385.72  4387.17
                             4432.18  4456.99  4649.73  4666.65  5009.46
                             5120.92  5168.23  5240.74  5275.34

 Zero-point correction=                           0.243999 (Hartree/Particle)
 Thermal correction to Energy=                    0.260256
 Thermal correction to Enthalpy=                  0.261200
 Thermal correction to Gibbs Free Energy=         0.197088
 Sum of electronic and zero-point Energies=           -796.062905
 Sum of electronic and thermal Energies=              -796.046648
 Sum of electronic and thermal Enthalpies=            -796.045704
 Sum of electronic and thermal Free Energies=         -796.109816

                     E (Thermal)             CV                S
                      KCal/Mol        Cal/Mol-Kelvin    Cal/Mol-Kelvin
 Total                  163.313             58.516            134.935
 Electronic               0.000              0.000              0.000
 Translational            0.889              2.981             42.150
 Rotational               0.889              2.981             33.092
 Vibrational            161.536             52.554             59.693
 Vibration     1          0.593              1.985              6.507
 Vibration     2          0.594              1.984              5.836
 Vibration     3          0.595              1.980              5.106
 Vibration     4          0.596              1.975              4.543
 Vibration     5          0.598              1.969              4.186
 Vibration     6          0.600              1.964              3.936
 Vibration     7          0.603              1.953              3.564
 Vibration     8          0.605              1.944              3.330
 Vibration     9          0.612              1.921              2.916
 Vibration    10          0.636              1.846              2.173
 Vibration    11          0.649              1.806              1.933
 Vibration    12          0.660              1.772              1.771
 Vibration    13          0.680              1.712              1.539
 Vibration    14          0.702              1.645              1.336
 Vibration    15          0.713              1.614              1.256
 Vibration    16          0.727              1.576              1.168
 Vibration    17          0.757              1.493              1.002
 Vibration    18          0.767              1.468              0.960
 Vibration    19          0.882              1.191              0.595
 Vibration    20          0.907              1.137              0.542
 Vibration    21          0.915              1.119              0.525
 Vibration    22          0.959              1.031              0.449

 Optimization completed.
    -- Stationary point found.
 Normal termination of Gaussian 09 at Wed Jul 28 23:38:37 2021.
