 Gaussian 09, Revision D.01,
 Gaussian 09:  ES64L-G09RevD.01 24-Apr-2013

 ----------------------------------------------------------------------
 # B3LYP/6-311G(d,p) opt=calcfc freq=noraman nosymm integral(ultrafineg
 rid)
 ----------------------------------------------------------------------

 ------------------------------------------------------------
 Candidate Structure: Conf:150 OPT and FREQ calc in gas phase
 ------------------------------------------------------------
 Symbolic Z-matrix:
 Charge =  0 Multiplicity = 1

 SCF Done:  E(RB3LYP) =  -796.311572559     A.U. after   14 cycles
 SCF Done:  E(RB3LYP) =  -796.312822645     A.U. after   14 cycles
 SCF Done:  E(RB3LYP) =  -796.307219068     A.U. after   14 cycles
 SCF Done:  E(RB3LYP) =  -796.313002895     A.U. after   10 cycles
 SCF Done:  E(RB3LYP) =  -796.313734849     A.U. after   12 cycles
 SCF Done:  E(RB3LYP) =  -796.313181054     A.U. after   12 cycles
 SCF Done:  E(RB3LYP) =  -796.310554733     A.U. after   12 cycles
 SCF Done:  E(RB3LYP) =  -796.313735965     A.U. after    8 cycles
 SCF Done:  E(RB3LYP) =  -796.313856372     A.U. after   11 cycles
 SCF Done:  E(RB3LYP) =  -796.313922084     A.U. after   11 cycles
 SCF Done:  E(RB3LYP) =  -796.313925824     A.U. after    9 cycles
 SCF Done:  E(RB3LYP) =  -796.313926186     A.U. after    7 cycles
 SCF Done:  E(RB3LYP) =  -796.313926231     A.U. after    7 cycles
 Optimization completed.
    -- Stationary point found.
 Normal termination of Gaussian 09 at Wed Jul 28 23:02:41 2021.

 ----------------------------------------------------------------------
 #N Geom=AllCheck Guess=TCheck SCRF=Check GenChk RB3LYP/6-311G(d,p) Fre
 q
 ----------------------------------------------------------------------

 Structure from the checkpoint file:  "conf-150.chk"
 ------------------------------------------------------------
 Candidate Structure: Conf:150 OPT and FREQ calc in gas phase
 ------------------------------------------------------------
 Charge =  0 Multiplicity = 1

                          Input orientation:
 ---------------------------------------------------------------------
 Center     Atomic      Atomic             Coordinates (Angstroms)
 Number     Number       Type             X           Y           Z
 ---------------------------------------------------------------------
      1          8           0       -1.153555   -1.897460   -0.771342
      2          6           0       -1.298388   -0.754440   -0.368470
      3          7           0       -0.370283   -0.148928    0.439152
      4          6           0        0.728460   -0.911539    1.009920
      5          6           0        1.098797   -0.268531    2.336936
      6          8           0        2.083204   -0.941226    2.957872
      7          8           0        0.581903    0.722279    2.789441
      8          6           0        1.952652   -1.024753    0.059816
      9          6           0        2.643837    0.266940   -0.228092
     10          6           0        3.880030    0.748444    0.131351
     11          7           0        4.089248    2.011077   -0.373995
     12          6           0        2.994507    2.303392   -1.034457
     13          7           0        2.086617    1.283507   -0.982787
     14          6           0       -2.481671    0.116547   -0.769935
     15          6           0       -3.755298   -0.700797   -0.990334
     16          7           0       -4.796712    0.146279   -1.581062
     17          1           0       -0.611147    0.699592    0.934569
     18          1           0        0.381450   -1.931604    1.207485
     19          1           0        2.286006   -0.460478    3.774599
     20          1           0        1.587704   -1.498238   -0.855987
     21          1           0        2.672541   -1.709379    0.511126
     22          1           0        4.631977    0.245396    0.720440
     23          1           0        2.800779    3.223408   -1.564953
     24          1           0        1.162595    1.270596   -1.383929
     25          1           0       -2.234911    0.617079   -1.713125
     26          1           0       -2.648851    0.906741   -0.029232
     27          1           0       -3.521893   -1.506844   -1.687717
     28          1           0       -4.047731   -1.179202   -0.042275
     29          1           0       -5.158979    0.796098   -0.889051
     30          1           0       -5.582577   -0.424347   -1.875428
 ---------------------------------------------------------------------

 SCF Done:  E(RB3LYP) =  -796.313926231     A.U. after    1 cycles

 Alpha  occ. eigenvalues --  -19.19033 -19.13566 -19.09680 -14.36661 -14.34981
 Alpha  occ. eigenvalues --  -14.29425 -14.28601 -10.32820 -10.28391 -10.24465
 Alpha  occ. eigenvalues --  -10.22111 -10.20558 -10.20029 -10.19856 -10.18809
 Alpha  occ. eigenvalues --  -10.17873  -1.13775  -1.05514  -1.04819  -1.01639
 Alpha  occ. eigenvalues --   -0.94361  -0.89013  -0.87250  -0.81534  -0.77016
 Alpha  occ. eigenvalues --   -0.74473  -0.68903  -0.65477  -0.61821  -0.61256
 Alpha  occ. eigenvalues --   -0.60137  -0.59153  -0.54032  -0.53808  -0.51601
 Alpha  occ. eigenvalues --   -0.50621  -0.50037  -0.48920  -0.47550  -0.46205
 Alpha  occ. eigenvalues --   -0.45688  -0.44518  -0.43924  -0.42832  -0.42469
 Alpha  occ. eigenvalues --   -0.40943  -0.40824  -0.40291  -0.39384  -0.38929
 Alpha  occ. eigenvalues --   -0.36584  -0.35597  -0.34982  -0.30967  -0.28498
 Alpha  occ. eigenvalues --   -0.28157  -0.27013  -0.26836  -0.24866  -0.22896
 Alpha virt. eigenvalues --   -0.01857   0.00305   0.01360   0.02221   0.02542
 Alpha virt. eigenvalues --    0.03411   0.05437   0.05629   0.07878   0.08124
 Alpha virt. eigenvalues --    0.08615   0.09140   0.09842   0.10495   0.10742

 Mulliken charges:
               1
     1  O   -0.379690
     2  C    0.363375
     3  N   -0.424833
     4  C   -0.092229
     5  C    0.396930
     6  O   -0.314667
     7  O   -0.337807
     8  C   -0.153422
     9  C    0.053836
    10  C   -0.060545
    11  N   -0.296791
    12  C    0.152150
    13  N   -0.360855
    14  C   -0.246187
    15  C   -0.103881
    16  N   -0.460021
    17  H    0.240057
    18  H    0.174661
    19  H    0.262406
    20  H    0.156804
    21  H    0.141672
    22  H    0.093836
    23  H    0.108117
    24  H    0.226550
    25  H    0.142427
    26  H    0.109096
    27  H    0.134164
    28  H    0.097418
    29  H    0.183783
    30  H    0.193644
 Sum of Mulliken charges =   0.00000

 Dipole moment (field-independent basis, Debye):
    X=             -3.2589    Y=             -0.3098    Z=              1.5414  Tot=              3.6183
 Quadrupole moment (field-independent basis, Debye-Ang):
   XX=            -98.3986   YY=           -101.0817   ZZ=            -90.2978
   XY=            -10.8915   XZ=              2.8117   YZ=             -6.7409

  Exact polarizability: 153.043   7.183 125.634  19.603  -6.838 112.183
 Approx polarizability: 199.359   2.164 208.893  25.404  -1.347 163.922

                      1                      2                      3
                      A                      A                      A
 Frequencies --     23.7698                35.0017                48.0025
 Red. masses --      3.9411                 3.8745                 8.1593
 Frc consts  --      0.0013                 0.0028                 0.0111
 IR Inten    --      0.6308                 2.0574                 7.7657

                      4                      5                      6
                      A                      A                      A
 Frequencies --     53.5913                62.5420                71.6805
 Red. masses --      2.9209                 5.9716                 5.6040
 Frc consts  --      0.0049                 0.0138                 0.0170
 IR Inten    --      3.9352                 0.3713                 2.6781

                      7                      8                      9
                      A                      A                      A
 Frequencies --     75.7899               121.5311               131.1988
 Red. masses --      3.9752                 4.4458                 4.3335
 Frc consts  --      0.0135                 0.0387                 0.0439
 IR Inten    --      1.0669                 4.5183                 4.8023

                     10                     11                     12
                      A                      A                      A
 Frequencies --    187.4705               219.8105               248.6355
 Red. masses --      5.1111                 3.0679                 2.2275
 Frc consts  --      0.1058                 0.0873                 0.0811
 IR Inten    --      1.6806                13.5179                20.9611

                     13                     14                     15
                      A                      A                      A
 Frequencies --    264.2409               309.0204               329.4787
 Red. masses --      2.0984                 4.7891                 5.9115
 Frc consts  --      0.0863                 0.2695                 0.3781
 IR Inten    --     38.1764                 1.5234                 2.7206

                     16                     17                     18
                      A                      A                      A
 Frequencies --    366.9044               397.9741               475.7574
 Red. masses --      2.3595                 3.6156                 3.1969
 Frc consts  --      0.1871                 0.3374                 0.4263
 IR Inten    --      2.7308                 6.7220                13.5880

                     19                     20                     21
                      A                      A                      A
 Frequencies --    508.3897               541.2887               584.5480
 Red. masses --      1.3465                 3.3649                 1.6737
 Frc consts  --      0.2050                 0.5809                 0.3370
 IR Inten    --    124.2620                18.9473                14.7239

                     22                     23                     24
                      A                      A                      A
 Frequencies --    596.5449               616.8237               644.0127
 Red. masses --      3.3239                 2.0150                 2.0974
 Frc consts  --      0.6969                 0.4517                 0.5125
 IR Inten    --     35.5970                87.7195                 4.5485

                     25                     26                     27
                      A                      A                      A
 Frequencies --    659.3603               684.2183               706.4890
 Red. masses --      2.0326                 2.5813                 3.2070
 Frc consts  --      0.5206                 0.7120                 0.9431
 IR Inten    --     21.6199                 3.1974                52.2520

                     28                     29                     30
                      A                      A                      A
 Frequencies --    736.4684               778.4887               809.2038
 Red. masses --      4.0585                 2.7508                 1.4621
 Frc consts  --      1.2970                 0.9822                 0.5641
 IR Inten    --     13.1683                26.6834                 7.5063

                     31                     32                     33
                      A                      A                      A
 Frequencies --    815.1442               849.7806               857.3130
 Red. masses --      1.4270                 1.5050                 1.4372
 Frc consts  --      0.5586                 0.6403                 0.6223
 IR Inten    --     22.5093                33.0825                97.1144

                     34                     35                     36
                      A                      A                      A
 Frequencies --    870.8281               921.8650               937.2270
 Red. masses --      2.3103                 3.5952                 5.1408
 Frc consts  --      1.0323                 1.8001                 2.6606
 IR Inten    --     11.5844                10.3685                17.5673

                     37                     38                     39
                      A                      A                      A
 Frequencies --    969.5936               985.0543              1020.5714
 Red. masses --      3.0863                 2.1095                 2.8522
 Frc consts  --      1.7095                 1.2060                 1.7503
 IR Inten    --      6.1702                 5.4563                23.7202

                     40                     41                     42
                      A                      A                      A
 Frequencies --   1027.8836              1060.5886              1092.8106
 Red. masses --      3.1313                 2.8125                 2.0333
 Frc consts  --      1.9492                 1.8640                 1.4307
 IR Inten    --      1.0615                20.3889                26.8952

                     43                     44                     45
                      A                      A                      A
 Frequencies --   1105.0881              1113.3866              1143.7334
 Red. masses --      1.5987                 2.4837                 2.1091
 Frc consts  --      1.1503                 1.8140                 1.6255
 IR Inten    --     16.3438                51.9453                13.0378

                     46                     47                     48
                      A                      A                      A
 Frequencies --   1160.0123              1181.6146              1212.0761
 Red. masses --      1.5300                 2.3399                 1.3762
 Frc consts  --      1.2130                 1.9249                 1.1912
 IR Inten    --     49.6660               182.7650                 1.1471

                     49                     50                     51
                      A                      A                      A
 Frequencies --   1230.2231              1250.7184              1259.7054
 Red. masses --      1.8107                 1.9988                 1.6162
 Frc consts  --      1.6146                 1.8423                 1.5110
 IR Inten    --     47.1384                 7.9588                 0.4367

                     52                     53                     54
                      A                      A                      A
 Frequencies --   1265.8234              1289.8838              1316.7592
 Red. masses --      1.4949                 1.3142                 1.4056
 Frc consts  --      1.4113                 1.2883                 1.4359
 IR Inten    --     25.9532                 7.4597                 4.1295

                     55                     56                     57
                      A                      A                      A
 Frequencies --   1339.2455              1362.9605              1376.7197
 Red. masses --      1.1149                 1.4901                 1.9495
 Frc consts  --      1.1782                 1.6310                 2.1770
 IR Inten    --      6.7212                 4.5628                 6.5079

                     58                     59                     60
                      A                      A                      A
 Frequencies --   1391.7800              1408.9428              1426.5757
 Red. masses --      2.0114                 2.3874                 2.3239
 Frc consts  --      2.2955                 2.7923                 2.7865
 IR Inten    --     25.2077               152.8983                15.2498

                     61                     62                     63
                      A                      A                      A
 Frequencies --   1428.3698              1470.6036              1484.2787
 Red. masses --      1.7310                 1.0918                 1.1637
 Frc consts  --      2.0807                 1.3912                 1.5105
 IR Inten    --     45.8006                 9.4016                11.6437

                     64                     65                     66
                      A                      A                      A
 Frequencies --   1499.9037              1519.2429              1519.7066
 Red. masses --      3.4160                 1.5421                 1.3007
 Frc consts  --      4.5279                 2.0971                 1.7700
 IR Inten    --     80.1276               164.5808                83.2886

                     67                     68                     69
                      A                      A                      A
 Frequencies --   1608.4079              1665.0886              1748.7677
 Red. masses --      4.5034                 1.0895                 9.4041
 Frc consts  --      6.8641                 1.7797                16.9447
 IR Inten    --      8.2680                25.8008               226.3050

                     70                     71                     72
                      A                      A                      A
 Frequencies --   1818.8733              2951.2122              3020.6127
 Red. masses --      9.9215                 1.0743                 1.0595
 Frc consts  --     19.3389                 5.5130                 5.6958
 IR Inten    --    216.2225                68.3213                18.7679

                     73                     74                     75
                      A                      A                      A
 Frequencies --   3040.1479              3053.2549              3055.9120
 Red. masses --      1.0804                 1.0667                 1.0997
 Frc consts  --      5.8836                 5.8587                 6.0506
 IR Inten    --     11.2292                10.3737                13.6181

                     76                     77                     78
                      A                      A                      A
 Frequencies --   3094.8166              3106.3203              3231.5771
 Red. masses --      1.0902                 1.0992                 1.0956
 Frc consts  --      6.1520                 6.2489                 6.7409
 IR Inten    --     17.2932                 7.4785                 7.7803

                     79                     80                     81
                      A                      A                      A
 Frequencies --   3238.5230              3486.4769              3562.7868
 Red. masses --      1.0980                 1.0501                 1.0921
 Frc consts  --      6.7848                 7.5206                 8.1674
 IR Inten    --      0.6687                 0.9766                 0.0676

                     82                     83                     84
                      A                      A                      A
 Frequencies --   3581.2532              3653.5667              3756.8502
 Red. masses --      1.0772                 1.0811                 1.0644
 Frc consts  --      8.1400                 8.5025                 8.8510
 IR Inten    --     65.1007                53.5149                84.8318

 - Thermochemistry -
 -------------------
 Temperature   298.150 Kelvin.  Pressure   1.00000 Atm.
 Atom     1 has atomic number  8 and mass  15.99491

 Molecular mass:   226.10659 amu.
 Principal axes and moments of inertia in atomic units:
                           1         2         3
     Eigenvalues --  2274.550536455.390487543.82630
           X            0.95682  -0.09649  -0.27419
           Y            0.19355  -0.49228   0.84864
           Z            0.21686   0.86507   0.45235
 This molecule is an asymmetric top.
 Rotational symmetry number  1.
 Warning -- assumption of classical behavior for rotation
           may cause significant error
 Rotational temperatures (Kelvin)      0.03808     0.01342     0.01148
 Rotational constants (GHZ):           0.79345     0.27957     0.23923
 Zero-point vibrational energy     640771.9 (Joules/Mol)
                                  153.14816 (Kcal/Mol)
 Warning -- explicit consideration of  23 degrees of freedom as
           vibrations may cause significant error
 Vibrational temperatures:     34.20    50.36    69.06    77.11    89.98
          (Kelvin)            103.13   109.04   174.86   188.77   269.73
                              316.26   357.73   380.18   444.61   474.05
                              527.89   572.60   684.51   731.46   778.79
                              841.03   858.29   887.47   926.59   948.67
                              984.44  1016.48  1059.61  1120.07  1164.26
                             1172.81  1222.64  1233.48  1252.93  1326.36
                             1348.46  1395.03  1417.27  1468.37  1478.89
                             1525.95  1572.31  1589.97  1601.91  1645.58
                             1669.00  1700.08  1743.91  1770.01  1799.50
                             1812.43  1821.24  1855.85  1894.52  1926.87
                             1960.99  1980.79  2002.46  2027.15  2052.52
                             2055.10  2115.87  2135.54  2158.02  2185.85
                             2186.52  2314.14  2395.69  2516.08  2616.95
                             4246.13  4345.98  4374.09  4392.95  4396.77
                             4452.75  4469.30  4649.51  4659.51  5016.26
                             5126.05  5152.62  5256.66  5405.26

 Zero-point correction=                           0.244057 (Hartree/Particle)
 Thermal correction to Energy=                    0.260323
 Thermal correction to Enthalpy=                  0.261267
 Thermal correction to Gibbs Free Energy=         0.197191
 Sum of electronic and zero-point Energies=           -796.069869
 Sum of electronic and thermal Energies=              -796.053604
 Sum of electronic and thermal Enthalpies=            -796.052659
 Sum of electronic and thermal Free Energies=         -796.116735

                     E (Thermal)             CV                S
                      KCal/Mol        Cal/Mol-Kelvin    Cal/Mol-Kelvin
 Total                  163.355             58.555            134.859
 Electronic               0.000              0.000              0.000
 Translational            0.889              2.981             42.150
 Rotational               0.889              2.981             33.071
 Vibrational            161.577             52.593             59.638
 Vibration     1          0.593              1.985              6.291
 Vibration     2          0.594              1.982              5.524
 Vibration     3          0.595              1.978              4.898
 Vibration     4          0.596              1.976              4.680
 Vibration     5          0.597              1.972              4.375
 Vibration     6          0.598              1.968              4.107
 Vibration     7          0.599              1.965              3.997
 Vibration     8          0.609              1.931              3.076
 Vibration     9          0.612              1.922              2.928
 Vibration    10          0.632              1.857              2.253
 Vibration    11          0.647              1.811              1.961
 Vibration    12          0.662              1.765              1.740
 Vibration    13          0.671              1.738              1.634
 Vibration    14          0.698              1.657              1.368
 Vibration    15          0.712              1.617              1.263
 Vibration    16          0.740              1.540              1.093
 Vibration    17          0.764              1.474              0.970
 Vibration    18          0.832              1.304              0.722
 Vibration    19          0.864              1.231              0.637
 Vibration    20          0.896              1.159              0.563
 Vibration    21          0.941              1.065              0.477
 Vibration    22          0.954              1.039              0.456
 Vibration    23          0.977              0.996              0.422

 Optimization completed.
    -- Stationary point found.
 Normal termination of Gaussian 09 at Wed Jul 28 23:33:21 2021.
