 Gaussian 09, Revision D.01,
 Gaussian 09:  ES64L-G09RevD.01 24-Apr-2013

 ----------------------------------------------------------------------
 # B3LYP/6-311G(d,p) opt=calcfc freq=noraman nosymm integral(ultrafineg
 rid)
 ----------------------------------------------------------------------

 ------------------------------------------------------------
 Candidate Structure: Conf:640 OPT and FREQ calc in gas phase
 ------------------------------------------------------------
 Symbolic Z-matrix:
 Charge =  0 Multiplicity = 1

 SCF Done:  E(RB3LYP) =  -796.313947348     A.U. after   14 cycles
 SCF Done:  E(RB3LYP) =  -796.315817150     A.U. after   12 cycles
 SCF Done:  E(RB3LYP) =  -796.316030882     A.U. after   12 cycles
 SCF Done:  E(RB3LYP) =  -796.316036794     A.U. after   11 cycles
 SCF Done:  E(RB3LYP) =  -796.316045187     A.U. after   10 cycles
 SCF Done:  E(RB3LYP) =  -796.316045456     A.U. after    8 cycles
 Optimization completed.
    -- Stationary point found.
 Normal termination of Gaussian 09 at Wed Jul 28 22:45:23 2021.

 ----------------------------------------------------------------------
 #N Geom=AllCheck Guess=TCheck SCRF=Check GenChk RB3LYP/6-311G(d,p) Fre
 q
 ----------------------------------------------------------------------

 Structure from the checkpoint file:  "conf-640.chk"
 ------------------------------------------------------------
 Candidate Structure: Conf:640 OPT and FREQ calc in gas phase
 ------------------------------------------------------------
 Charge =  0 Multiplicity = 1

                          Input orientation:
 ---------------------------------------------------------------------
 Center     Atomic      Atomic             Coordinates (Angstroms)
 Number     Number       Type             X           Y           Z
 ---------------------------------------------------------------------
      1          8           0        0.922815   -1.271509   -0.907331
      2          6           0        1.171549   -0.123410   -0.544463
      3          7           0        0.258599    0.882813   -0.640711
      4          6           0       -0.983338    0.731984   -1.376633
      5          6           0       -1.122091    1.919095   -2.321591
      6          8           0       -2.083768    1.714703   -3.239833
      7          8           0       -0.478736    2.935380   -2.245563
      8          6           0       -2.258302    0.637506   -0.494148
      9          6           0       -2.244907   -0.426646    0.561102
     10          6           0       -2.939848   -0.508985    1.744784
     11          7           0       -2.707847   -1.710741    2.371305
     12          6           0       -1.875925   -2.350301    1.581803
     13          7           0       -1.575585   -1.630922    0.460706
     14          6           0        2.512743    0.243582    0.063470
     15          6           0        2.924554   -0.731891    1.190275
     16          7           0        4.248820   -0.509872    1.760616
     17          1           0        0.554692    1.832361   -0.463085
     18          1           0       -0.899058   -0.177751   -1.975555
     19          1           0       -2.144033    2.518938   -3.778018
     20          1           0       -3.099460    0.488602   -1.179948
     21          1           0       -2.422805    1.601888   -0.002792
     22          1           0       -3.602634    0.229262    2.171637
     23          1           0       -1.452978   -3.326085    1.766714
     24          1           0       -0.828405   -1.834623   -0.199303
     25          1           0        2.510591    1.272790    0.436874
     26          1           0        3.254903    0.188807   -0.741295
     27          1           0        2.190644   -0.675452    1.999979
     28          1           0        2.876630   -1.749096    0.797541
     29          1           0        4.325343    0.422601    2.154687
     30          1           0        4.967917   -0.593159    1.048723
 ---------------------------------------------------------------------

 SCF Done:  E(RB3LYP) =  -796.316045456     A.U. after    1 cycles

 Alpha  occ. eigenvalues --  -19.19768 -19.14216 -19.10777 -14.36101 -14.35036
 Alpha  occ. eigenvalues --  -14.29582 -14.27666 -10.33485 -10.29485 -10.25294
 Alpha  occ. eigenvalues --  -10.20908 -10.20553 -10.20405 -10.19935 -10.19352
 Alpha  occ. eigenvalues --  -10.17005  -1.14458  -1.06424  -1.05525  -1.00475
 Alpha  occ. eigenvalues --   -0.95411  -0.89288  -0.86180  -0.81937  -0.77179
 Alpha  occ. eigenvalues --   -0.74640  -0.68470  -0.66110  -0.62552  -0.61475
 Alpha  occ. eigenvalues --   -0.59923  -0.58218  -0.55156  -0.52678  -0.52416
 Alpha  occ. eigenvalues --   -0.51579  -0.50292  -0.49525  -0.48488  -0.46872
 Alpha  occ. eigenvalues --   -0.45289  -0.44722  -0.43599  -0.42654  -0.42551
 Alpha  occ. eigenvalues --   -0.41609  -0.40821  -0.40147  -0.39630  -0.39023
 Alpha  occ. eigenvalues --   -0.37735  -0.35687  -0.35616  -0.31742  -0.29152
 Alpha  occ. eigenvalues --   -0.28583  -0.27345  -0.25919  -0.24686  -0.21948
 Alpha virt. eigenvalues --   -0.02529  -0.00758   0.01399   0.02709   0.03062
 Alpha virt. eigenvalues --    0.04387   0.05553   0.06245   0.06907   0.07141
 Alpha virt. eigenvalues --    0.07917   0.09656   0.10495   0.11323   0.11810

 Mulliken charges:
               1
     1  O   -0.427679
     2  C    0.387230
     3  N   -0.372626
     4  C   -0.127054
     5  C    0.366600
     6  O   -0.312680
     7  O   -0.331687
     8  C   -0.122701
     9  C    0.073792
    10  C   -0.069739
    11  N   -0.300653
    12  C    0.143519
    13  N   -0.369838
    14  C   -0.242262
    15  C   -0.106821
    16  N   -0.442146
    17  H    0.237424
    18  H    0.171764
    19  H    0.262716
    20  H    0.150338
    21  H    0.121803
    22  H    0.088254
    23  H    0.105243
    24  H    0.248751
    25  H    0.101687
    26  H    0.132397
    27  H    0.127036
    28  H    0.137310
    29  H    0.184143
    30  H    0.185880
 Sum of Mulliken charges =   0.00000

 Dipole moment (field-independent basis, Debye):
    X=              1.6858    Y=              3.8855    Z=             -4.0020  Tot=              5.8270
 Quadrupole moment (field-independent basis, Debye-Ang):
   XX=            -94.0949   YY=            -96.1857   ZZ=            -99.8805
   XY=             -4.8632   XZ=             10.4296   YZ=              3.6949

  Exact polarizability: 137.323  -6.428 130.954   2.286 -21.140 124.609
 Approx polarizability: 181.366  -9.449 212.250  -6.265 -10.173 183.351

                      1                      2                      3
                      A                      A                      A
 Frequencies --     20.6990                34.2598                59.2947
 Red. masses --      4.7991                 3.2229                 6.2913
 Frc consts  --      0.0012                 0.0022                 0.0130
 IR Inten    --      0.4668                 2.7286                 3.5188

                      4                      5                      6
                      A                      A                      A
 Frequencies --     66.5798                73.6248                83.4356
 Red. masses --      5.2720                 4.5916                 2.1143
 Frc consts  --      0.0138                 0.0147                 0.0087
 IR Inten    --      1.9538                 3.1012                 1.4231

                      7                      8                      9
                      A                      A                      A
 Frequencies --    101.7194               136.1827               165.6236
 Red. masses --      6.2079                 5.6045                 5.6616
 Frc consts  --      0.0378                 0.0612                 0.0915
 IR Inten    --      0.7480                10.3711                11.6942

                     10                     11                     12
                      A                      A                      A
 Frequencies --    183.8502               208.9830               257.1517
 Red. masses --      4.4840                 5.2078                 4.9561
 Frc consts  --      0.0893                 0.1340                 0.1931
 IR Inten    --      6.1787                 8.9529                 0.6492

                     13                     14                     15
                      A                      A                      A
 Frequencies --    289.3898               306.9673               324.5703
 Red. masses --      3.4463                 1.1152                 6.6487
 Frc consts  --      0.1700                 0.0619                 0.4127
 IR Inten    --      1.2428                41.3302                 3.3809

                     16                     17                     18
                      A                      A                      A
 Frequencies --    340.5175               392.4699               451.6523
 Red. masses --      3.5495                 3.6605                 3.7047
 Frc consts  --      0.2425                 0.3322                 0.4453
 IR Inten    --      6.2854                 4.1816                 8.5860

                     19                     20                     21
                      A                      A                      A
 Frequencies --    524.4825               548.7042               601.4714
 Red. masses --      3.2202                 1.3276                 1.3680
 Frc consts  --      0.5219                 0.2355                 0.2916
 IR Inten    --     32.4849                68.6171                92.0880

                     22                     23                     24
                      A                      A                      A
 Frequencies --    626.8999               630.7501               654.1774
 Red. masses --      3.1886                 3.6354                 3.8728
 Frc consts  --      0.7383                 0.8522                 0.9765
 IR Inten    --     11.6677                18.9543                46.0331

                     25                     26                     27
                      A                      A                      A
 Frequencies --    676.8454               699.0538               743.6839
 Red. masses --      3.4863                 3.0570                 1.3659
 Frc consts  --      0.9410                 0.8802                 0.4451
 IR Inten    --     34.4997                31.8186                92.2378

                     28                     29                     30
                      A                      A                      A
 Frequencies --    749.9860               776.8757               784.7211
 Red. masses --      2.5507                 1.3840                 3.8698
 Frc consts  --      0.8453                 0.4922                 1.4040
 IR Inten    --     18.5109                 1.6272                19.7283

                     31                     32                     33
                      A                      A                      A
 Frequencies --    818.1867               831.2312               839.0737
 Red. masses --      1.4066                 1.4847                 1.3545
 Frc consts  --      0.5548                 0.6044                 0.5619
 IR Inten    --     19.5087               219.9758                36.9195

                     34                     35                     36
                      A                      A                      A
 Frequencies --    893.4641               927.5759               940.5938
 Red. masses --      2.0876                 4.8041                 5.6967
 Frc consts  --      0.9819                 2.4353                 2.9695
 IR Inten    --      3.4438                 0.8822                20.9315

                     37                     38                     39
                      A                      A                      A
 Frequencies --    978.2665               994.4533              1017.9824
 Red. masses --      1.4012                 3.4765                 4.4091
 Frc consts  --      0.7901                 2.0256                 2.6920
 IR Inten    --      4.4003                 6.3864                84.3119

                     40                     41                     42
                      A                      A                      A
 Frequencies --   1019.5711              1049.3592              1098.6446
 Red. masses --      3.7417                 3.1619                 3.0287
 Frc consts  --      2.2917                 2.0514                 2.1539
 IR Inten    --     15.2034                 5.2474                 8.5651

                     43                     44                     45
                      A                      A                      A
 Frequencies --   1115.5160              1139.1612              1148.3957
 Red. masses --      2.4393                 1.9867                 1.7049
 Frc consts  --      1.7884                 1.5190                 1.3247
 IR Inten    --     51.1775                20.4657                88.7202

                     46                     47                     48
                      A                      A                      A
 Frequencies --   1151.8640              1181.6696              1229.1484
 Red. masses --      1.7969                 2.2628                 1.4712
 Frc consts  --      1.4047                 1.8616                 1.3096
 IR Inten    --      9.4255               122.5373                30.3692

                     49                     50                     51
                      A                      A                      A
 Frequencies --   1244.4707              1261.7387              1276.4061
 Red. masses --      1.6157                 2.0670                 1.4622
 Frc consts  --      1.4743                 1.9388                 1.4036
 IR Inten    --     19.0275                 3.4473                12.1387

                     52                     53                     54
                      A                      A                      A
 Frequencies --   1282.9306              1296.6437              1338.3845
 Red. masses --      1.3855                 1.3092                 1.3793
 Frc consts  --      1.3436                 1.2969                 1.4557
 IR Inten    --     24.1251                 7.4362                 6.9825

                     55                     56                     57
                      A                      A                      A
 Frequencies --   1352.2644              1372.8060              1386.1328
 Red. masses --      1.8280                 1.4150                 1.2952
 Frc consts  --      1.9694                 1.5712                 1.4662
 IR Inten    --      1.4569                15.1182                 8.5592

                     58                     59                     60
                      A                      A                      A
 Frequencies --   1392.9838              1395.0333              1401.5636
 Red. masses --      1.9673                 1.4239                 2.3044
 Frc consts  --      2.2491                 1.6327                 2.6671
 IR Inten    --      7.5520                 5.5067               175.0289

                     61                     62                     63
                      A                      A                      A
 Frequencies --   1458.5878              1469.5965              1484.5623
 Red. masses --      2.2234                 1.1182                 1.2408
 Frc consts  --      2.7870                 1.4229                 1.6112
 IR Inten    --     35.5218                 6.6659                25.2391

                     64                     65                     66
                      A                      A                      A
 Frequencies --   1498.2589              1504.0564              1541.4683
 Red. masses --      2.8581                 1.0903                 2.0115
 Frc consts  --      3.7801                 1.4532                 2.8160
 IR Inten    --     14.7412                 4.7888               249.5279

                     67                     68                     69
                      A                      A                      A
 Frequencies --   1607.2972              1666.0224              1714.8587
 Red. masses --      3.5369                 1.0923                 7.9145
 Frc consts  --      5.3834                 1.7863                13.7130
 IR Inten    --     12.0728                31.7456               199.7045

                     70                     71                     72
                      A                      A                      A
 Frequencies --   1820.5875              3021.4079              3024.4017
 Red. masses --      9.9542                 1.0586                 1.0601
 Frc consts  --     19.4392                 5.6938                 5.7132
 IR Inten    --    269.3519                 8.2210                21.5774

                     73                     74                     75
                      A                      A                      A
 Frequencies --   3042.2729              3056.5250              3061.8781
 Red. masses --      1.0679                 1.0995                 1.0988
 Frc consts  --      5.8232                 6.0518                 6.0692
 IR Inten    --     28.2822                 8.0684                11.4246

                     76                     77                     78
                      A                      A                      A
 Frequencies --   3081.4217              3099.1333              3224.6520
 Red. masses --      1.0858                 1.1026                 1.0959
 Frc consts  --      6.0742                 6.2393                 6.7143
 IR Inten    --      7.6899                21.3816                 9.5870

                     79                     80                     81
                      A                      A                      A
 Frequencies --   3239.1233              3482.0290              3488.2926
 Red. masses --      1.0972                 1.0849                 1.0484
 Frc consts  --      6.7822                 7.7504                 7.5161
 IR Inten    --      1.3343               312.8344                 1.0968

                     82                     83                     84
                      A                      A                      A
 Frequencies --   3566.4379              3603.1795              3749.3685
 Red. masses --      1.0937                 1.0772                 1.0643
 Frc consts  --      8.1963                 8.2398                 8.8155
 IR Inten    --      0.0074                56.5695                83.4006

 - Thermochemistry -
 -------------------
 Temperature   298.150 Kelvin.  Pressure   1.00000 Atm.
 Atom     1 has atomic number  8 and mass  15.99491

 Molecular mass:   226.10659 amu.
 Principal axes and moments of inertia in atomic units:
                           1         2         3
     Eigenvalues --  3621.605914386.516647206.78839
           X            0.84922  -0.52474  -0.05895
           Y           -0.30540  -0.57916   0.75584
           Z            0.43076   0.62387   0.65209
 This molecule is an asymmetric top.
 Rotational symmetry number  1.
 Warning -- assumption of classical behavior for rotation
           may cause significant error
 Rotational temperatures (Kelvin)      0.02392     0.01975     0.01202
 Rotational constants (GHZ):           0.49833     0.41143     0.25042
 Zero-point vibrational energy     642368.1 (Joules/Mol)
                                  153.52966 (Kcal/Mol)
 Warning -- explicit consideration of  21 degrees of freedom as
           vibrations may cause significant error
 Vibrational temperatures:     29.78    49.29    85.31    95.79   105.93
          (Kelvin)            120.05   146.35   195.94   238.30   264.52
                              300.68   369.98   416.37   441.66   466.98
                              489.93   564.68   649.83   754.61   789.46
                              865.38   901.97   907.51   941.21   973.83
                             1005.78  1069.99  1079.06  1117.75  1129.04
                             1177.19  1195.95  1207.24  1285.49  1334.57
                             1353.30  1407.51  1430.79  1464.65  1466.93
                             1509.79  1580.70  1604.98  1639.00  1652.28
                             1657.27  1700.16  1768.47  1790.51  1815.36
                             1836.46  1845.85  1865.58  1925.63  1945.60
                             1975.16  1994.33  2004.19  2007.14  2016.53
                             2098.58  2114.42  2135.95  2155.66  2164.00
                             2217.83  2312.54  2397.03  2467.30  2619.42
                             4347.13  4351.43  4377.15  4397.65  4405.35
                             4433.47  4458.96  4639.55  4660.37  5009.86
                             5018.87  5131.30  5184.17  5394.50

 Zero-point correction=                           0.244665 (Hartree/Particle)
 Thermal correction to Energy=                    0.260659
 Thermal correction to Enthalpy=                  0.261603
 Thermal correction to Gibbs Free Energy=         0.198697
 Sum of electronic and zero-point Energies=           -796.071380
 Sum of electronic and thermal Energies=              -796.055387
 Sum of electronic and thermal Enthalpies=            -796.054443
 Sum of electronic and thermal Free Energies=         -796.117349

                     E (Thermal)             CV                S
                      KCal/Mol        Cal/Mol-Kelvin    Cal/Mol-Kelvin
 Total                  163.566             58.158            132.397
 Electronic               0.000              0.000              0.000
 Translational            0.889              2.981             42.150
 Rotational               0.889              2.981             33.104
 Vibrational            161.788             52.196             57.143
 Vibration     1          0.593              1.986              6.566
 Vibration     2          0.594              1.983              5.566
 Vibration     3          0.597              1.974              4.481
 Vibration     4          0.598              1.970              4.252
 Vibration     5          0.599              1.966              4.054
 Vibration     6          0.600              1.961              3.808
 Vibration     7          0.604              1.948              3.421
 Vibration     8          0.614              1.917              2.857
 Vibration     9          0.624              1.885              2.485
 Vibration    10          0.631              1.862              2.289
 Vibration    11          0.642              1.827              2.053
 Vibration    12          0.667              1.751              1.681
 Vibration    13          0.686              1.693              1.478
 Vibration    14          0.697              1.660              1.379
 Vibration    15          0.709              1.626              1.287
 Vibration    16          0.720              1.595              1.210
 Vibration    17          0.760              1.486              0.991
 Vibration    18          0.810              1.357              0.791
 Vibration    19          0.879              1.196              0.600
 Vibration    20          0.904              1.143              0.547
 Vibration    21          0.960              1.029              0.447

 Optimization completed.
    -- Stationary point found.
 Normal termination of Gaussian 09 at Wed Jul 28 23:17:33 2021.
