 Gaussian 09, Revision D.01,
 Gaussian 09:  ES64L-G09RevD.01 24-Apr-2013

 ----------------------------------------------------------------------
 # B3LYP/6-311G(d,p) opt=calcfc freq=noraman nosymm integral(ultrafineg
 rid)
 ----------------------------------------------------------------------

 ------------------------------------------------------------
 Candidate Structure: Conf:900 OPT and FREQ calc in gas phase
 ------------------------------------------------------------
 Symbolic Z-matrix:
 Charge =  0 Multiplicity = 1

 SCF Done:  E(RB3LYP) =  -796.317293300     A.U. after   14 cycles
 SCF Done:  E(RB3LYP) =  -796.318945892     A.U. after   12 cycles
 SCF Done:  E(RB3LYP) =  -796.319118953     A.U. after   12 cycles
 SCF Done:  E(RB3LYP) =  -796.319138261     A.U. after   10 cycles
 SCF Done:  E(RB3LYP) =  -796.319140831     A.U. after    9 cycles
 SCF Done:  E(RB3LYP) =  -796.319141257     A.U. after    8 cycles
 SCF Done:  E(RB3LYP) =  -796.319141283     A.U. after    6 cycles
 Optimization completed.
    -- Stationary point found.
 Normal termination of Gaussian 09 at Wed Jul 28 22:46:40 2021.

 ----------------------------------------------------------------------
 #N Geom=AllCheck Guess=TCheck SCRF=Check GenChk RB3LYP/6-311G(d,p) Fre
 q
 ----------------------------------------------------------------------

 Structure from the checkpoint file:  "conf-900.chk"
 ------------------------------------------------------------
 Candidate Structure: Conf:900 OPT and FREQ calc in gas phase
 ------------------------------------------------------------
 Charge =  0 Multiplicity = 1

                          Input orientation:
 ---------------------------------------------------------------------
 Center     Atomic      Atomic             Coordinates (Angstroms)
 Number     Number       Type             X           Y           Z
 ---------------------------------------------------------------------
      1          8           0       -0.812791    0.542252   -1.085841
      2          6           0       -1.219165   -0.541868   -0.665974
      3          7           0       -0.429908   -1.392064    0.032969
      4          6           0        0.981179   -1.154165    0.281712
      5          6           0        1.594698   -2.492156    0.660171
      6          8           0        2.932837   -2.416974    0.738362
      7          8           0        0.968572   -3.499314    0.883240
      8          6           0        1.258229   -0.070708    1.393101
      9          6           0        1.992738    1.132796    0.905323
     10          6           0        3.171679    1.723123    1.294511
     11          7           0        3.429553    2.845716    0.543189
     12          6           0        2.421347    2.933494   -0.296405
     13          7           0        1.520124    1.926677   -0.119561
     14          6           0       -2.642886   -1.028125   -0.909322
     15          6           0       -3.557920    0.065944   -1.456608
     16          7           0       -3.737945    1.126139   -0.459692
     17          1           0       -0.783612   -2.293380    0.326626
     18          1           0        1.459692   -0.821095   -0.642766
     19          1           0        3.256087   -3.290477    1.006389
     20          1           0        0.284460    0.203552    1.809801
     21          1           0        1.837428   -0.509563    2.207256
     22          1           0        3.844419    1.399413    2.074732
     23          1           0        2.292974    3.697931   -1.047833
     24          1           0        0.673817    1.718908   -0.644433
     25          1           0       -3.054671   -1.409441    0.030153
     26          1           0       -2.594935   -1.868752   -1.612216
     27          1           0       -4.534329   -0.382278   -1.660917
     28          1           0       -3.153310    0.420768   -2.415140
     29          1           0       -2.898510    1.696916   -0.435663
     30          1           0       -4.499717    1.737023   -0.735035
 ---------------------------------------------------------------------

 SCF Done:  E(RB3LYP) =  -796.319141283     A.U. after    1 cycles

 Alpha  occ. eigenvalues --  -19.19516 -19.14169 -19.11072 -14.35718 -14.34573
 Alpha  occ. eigenvalues --  -14.28681 -14.27402 -10.33431 -10.29489 -10.25138
 Alpha  occ. eigenvalues --  -10.20806 -10.20164 -10.20146 -10.19409 -10.19097
 Alpha  occ. eigenvalues --  -10.16869  -1.14366  -1.06415  -1.05444  -1.00227
 Alpha  occ. eigenvalues --   -0.95245  -0.88590  -0.85920  -0.81501  -0.77007
 Alpha  occ. eigenvalues --   -0.74371  -0.68523  -0.66225  -0.61714  -0.60845
 Alpha  occ. eigenvalues --   -0.59995  -0.57928  -0.54299  -0.53489  -0.51991
 Alpha  occ. eigenvalues --   -0.51102  -0.49703  -0.48911  -0.48459  -0.47788
 Alpha  occ. eigenvalues --   -0.45406  -0.44241  -0.43582  -0.42976  -0.42028
 Alpha  occ. eigenvalues --   -0.40257  -0.39886  -0.39515  -0.39418  -0.38602
 Alpha  occ. eigenvalues --   -0.37319  -0.36945  -0.35517  -0.31617  -0.28793
 Alpha  occ. eigenvalues --   -0.28500  -0.26987  -0.25680  -0.24439  -0.21852
 Alpha virt. eigenvalues --   -0.02597  -0.00256   0.01576   0.02837   0.03397
 Alpha virt. eigenvalues --    0.05205   0.06574   0.06735   0.07287   0.07813
 Alpha virt. eigenvalues --    0.08020   0.08991   0.09595   0.10956   0.11526

 Mulliken charges:
               1
     1  O   -0.439777
     2  C    0.422832
     3  N   -0.413373
     4  C   -0.069584
     5  C    0.351987
     6  O   -0.305490
     7  O   -0.337634
     8  C   -0.166852
     9  C    0.070834
    10  C   -0.067784
    11  N   -0.303777
    12  C    0.148397
    13  N   -0.366310
    14  C   -0.260626
    15  C   -0.104993
    16  N   -0.468504
    17  H    0.245923
    18  H    0.184329
    19  H    0.263222
    20  H    0.151776
    21  H    0.137473
    22  H    0.087719
    23  H    0.102251
    24  H    0.258010
    25  H    0.135634
    26  H    0.136348
    27  H    0.109896
    28  H    0.106234
    29  H    0.200925
    30  H    0.190915
 Sum of Mulliken charges =   0.00000

 Dipole moment (field-independent basis, Debye):
    X=             -2.7349    Y=             -3.7764    Z=             -1.0447  Tot=              4.7783
 Quadrupole moment (field-independent basis, Debye-Ang):
   XX=            -99.2497   YY=            -98.0346   ZZ=            -91.5883
   XY=            -18.2769   XZ=              5.5801   YZ=             -5.1407

  Exact polarizability: 147.535  11.685 144.307  19.740 -14.292 102.737
 Approx polarizability: 201.091  23.681 210.265  19.655 -28.129 161.758

                      1                      2                      3
                      A                      A                      A
 Frequencies --     18.2922                34.4706                56.2037
 Red. masses --      3.5766                 6.3086                 5.0867
 Frc consts  --      0.0007                 0.0044                 0.0095
 IR Inten    --      0.9469                 1.2642                 1.4826

                      4                      5                      6
                      A                      A                      A
 Frequencies --     58.7613                77.8807                86.7885
 Red. masses --      7.0336                 5.4072                 5.7407
 Frc consts  --      0.0143                 0.0193                 0.0255
 IR Inten    --      0.7018                 0.5682                 5.3164

                      7                      8                      9
                      A                      A                      A
 Frequencies --    110.7259               137.2543               142.8169
 Red. masses --      4.3419                 5.2969                 3.9970
 Frc consts  --      0.0314                 0.0588                 0.0480
 IR Inten    --      2.7611                 3.5299                 4.0616

                     10                     11                     12
                      A                      A                      A
 Frequencies --    193.7530               249.2314               284.9704
 Red. masses --      4.6204                 2.3988                 5.8789
 Frc consts  --      0.1022                 0.0878                 0.2813
 IR Inten    --      1.9822                35.1108                 1.2351

                     13                     14                     15
                      A                      A                      A
 Frequencies --    289.8518               306.5085               321.9611
 Red. masses --      2.3761                 1.3448                 3.9365
 Frc consts  --      0.1176                 0.0744                 0.2404
 IR Inten    --     15.7262                32.8489                 5.6520

                     16                     17                     18
                      A                      A                      A
 Frequencies --    349.8605               406.5034               433.2073
 Red. masses --      4.7919                 3.6353                 2.5338
 Frc consts  --      0.3456                 0.3539                 0.2802
 IR Inten    --      3.4593                10.3186                29.2738

                     19                     20                     21
                      A                      A                      A
 Frequencies --    540.1955               565.8142               594.8275
 Red. masses --      1.5786                 3.1675                 1.5580
 Frc consts  --      0.2714                 0.5975                 0.3248
 IR Inten    --     65.3297                25.1560                68.9646

                     22                     23                     24
                      A                      A                      A
 Frequencies --    627.5784               633.2247               646.8086
 Red. masses --      2.0976                 3.2318                 2.7914
 Frc consts  --      0.4868                 0.7635                 0.6881
 IR Inten    --     18.7769                23.9342                 0.6466

                     25                     26                     27
                      A                      A                      A
 Frequencies --    676.3374               678.7460               716.6126
 Red. masses --      3.2434                 3.4512                 3.2541
 Frc consts  --      0.8741                 0.9368                 0.9846
 IR Inten    --     16.9329                39.0644                24.4316

                     28                     29                     30
                      A                      A                      A
 Frequencies --    770.1642               779.1674               821.9227
 Red. masses --      4.1430                 1.1068                 1.4224
 Frc consts  --      1.4479                 0.3959                 0.5662
 IR Inten    --     14.7722                35.1594                21.2355

                     31                     32                     33
                      A                      A                      A
 Frequencies --    841.3960               857.6203               869.9644
 Red. masses --      1.5215                 2.2000                 1.7811
 Frc consts  --      0.6346                 0.9534                 0.7942
 IR Inten    --     22.0913                10.3969                89.0688

                     34                     35                     36
                      A                      A                      A
 Frequencies --    891.4166               903.9176               941.2515
 Red. masses --      1.9730                 1.8681                 5.8297
 Frc consts  --      0.9237                 0.8993                 3.0430
 IR Inten    --     10.8101                35.5403                19.7029

                     37                     38                     39
                      A                      A                      A
 Frequencies --    952.9538               981.4104              1018.6433
 Red. masses --      2.7010                 4.0270                 2.8773
 Frc consts  --      1.4452                 2.2852                 1.7591
 IR Inten    --      8.9364                 6.6108                22.4028

                     40                     41                     42
                      A                      A                      A
 Frequencies --   1024.2516              1059.9789              1100.0986
 Red. masses --      3.8506                 2.5259                 3.2114
 Frc consts  --      2.3801                 1.6721                 2.2898
 IR Inten    --      2.0350                16.4976                37.3026

                     43                     44                     45
                      A                      A                      A
 Frequencies --   1125.4148              1130.4765              1147.2054
 Red. masses --      1.8073                 1.8141                 1.9409
 Frc consts  --      1.3487                 1.3659                 1.5050
 IR Inten    --     23.6134                44.5221                 3.5038

                     46                     47                     48
                      A                      A                      A
 Frequencies --   1172.6625              1186.4324              1210.2306
 Red. masses --      1.6384                 2.1065                 1.3148
 Frc consts  --      1.3274                 1.7471                 1.1346
 IR Inten    --    128.2751                84.9605                10.2330

                     49                     50                     51
                      A                      A                      A
 Frequencies --   1237.5888              1253.8853              1262.2590
 Red. masses --      1.2187                 1.6017                 2.3563
 Frc consts  --      1.0998                 1.4837                 2.2120
 IR Inten    --      4.8197                29.6309                 5.3069

                     52                     53                     54
                      A                      A                      A
 Frequencies --   1274.8486              1287.3118              1327.9087
 Red. masses --      1.4011                 1.3093                 1.3866
 Frc consts  --      1.3417                 1.2784                 1.4406
 IR Inten    --     12.2741                17.6133                 0.3505

                     55                     56                     57
                      A                      A                      A
 Frequencies --   1353.9917              1356.6550              1380.1828
 Red. masses --      1.2494                 1.4182                 1.5617
 Frc consts  --      1.3496                 1.5379                 1.7527
 IR Inten    --      7.2276                30.9725                24.6622

                     58                     59                     60
                      A                      A                      A
 Frequencies --   1386.8226              1415.3165              1426.8317
 Red. masses --      3.9005                 2.3242                 1.3915
 Frc consts  --      4.4199                 2.7430                 1.6691
 IR Inten    --     13.7293                96.2733                13.7586

                     61                     62                     63
                      A                      A                      A
 Frequencies --   1445.8623              1448.4165              1478.0322
 Red. masses --      2.3818                 1.1146                 1.1615
 Frc consts  --      2.9336                 1.3776                 1.4950
 IR Inten    --     67.3257                18.4895                14.1090

                     64                     65                     66
                      A                      A                      A
 Frequencies --   1501.5453              1502.5445              1544.0917
 Red. masses --      1.1202                 3.0623                 2.2879
 Frc consts  --      1.4881                 4.0733                 3.2138
 IR Inten    --      2.2833                25.7743               328.6268

                     67                     68                     69
                      A                      A                      A
 Frequencies --   1610.3644              1657.4861              1717.5999
 Red. masses --      4.1083                 1.1587                 5.6868
 Frc consts  --      6.2772                 1.8755                 9.8846
 IR Inten    --     19.3726                92.8307               166.0220

                     70                     71                     72
                      A                      A                      A
 Frequencies --   1814.4032              2978.5102              3022.4303
 Red. masses --      9.7424                 1.0710                 1.0626
 Frc consts  --     18.8966                 5.5981                 5.7192
 IR Inten    --    293.5591                57.0502                14.5896

                     73                     74                     75
                      A                      A                      A
 Frequencies --   3039.0060              3060.5383              3063.7252
 Red. masses --      1.0660                 1.0913                 1.0837
 Frc consts  --      5.8005                 6.0228                 5.9933
 IR Inten    --     17.6868                37.2919                 9.8851

                     76                     77                     78
                      A                      A                      A
 Frequencies --   3071.0478              3095.0824              3227.1270
 Red. masses --      1.0991                 1.0974                 1.0958
 Frc consts  --      6.1075                 6.1940                 6.7241
 IR Inten    --     17.5841                10.3787                10.3215

                     79                     80                     81
                      A                      A                      A
 Frequencies --   3237.0829              3495.6077              3497.1373
 Red. masses --      1.0974                 1.0791                 1.0548
 Frc consts  --      6.7750                 7.7690                 7.6003
 IR Inten    --      1.6520               368.1545                49.5164

                     82                     83                     84
                      A                      A                      A
 Frequencies --   3571.6454              3580.4306              3756.1996
 Red. masses --      1.0928                 1.0776                 1.0644
 Frc consts  --      8.2133                 8.1395                 8.8480
 IR Inten    --      2.1626                86.3057                89.9164

 - Thermochemistry -
 -------------------
 Temperature   298.150 Kelvin.  Pressure   1.00000 Atm.
 Atom     1 has atomic number  8 and mass  15.99491

 Molecular mass:   226.10659 amu.
 Principal axes and moments of inertia in atomic units:
                           1         2         3
     Eigenvalues --  3096.621594856.989097521.97616
           X            0.94441  -0.14123  -0.29689
           Y            0.18485   0.97488   0.12426
           Z            0.27188  -0.17223   0.94679
 This molecule is an asymmetric top.
 Rotational symmetry number  1.
 Warning -- assumption of classical behavior for rotation
           may cause significant error
 Rotational temperatures (Kelvin)      0.02797     0.01783     0.01151
 Rotational constants (GHZ):           0.58281     0.37158     0.23993
 Zero-point vibrational energy     642426.3 (Joules/Mol)
                                  153.54356 (Kcal/Mol)
 Warning -- explicit consideration of  21 degrees of freedom as
           vibrations may cause significant error
 Vibrational temperatures:     26.32    49.60    80.86    84.54   112.05
          (Kelvin)            124.87   159.31   197.48   205.48   278.77
                              358.59   410.01   417.03   441.00   463.23
                              503.37   584.87   623.29   777.22   814.08
                              855.82   902.94   911.07   930.61   973.10
                              976.56  1031.04  1108.09  1121.05  1182.56
                             1210.58  1233.92  1251.68  1282.55  1300.53
                             1354.25  1371.09  1412.03  1465.60  1473.67
                             1525.07  1582.79  1619.22  1626.50  1650.57
                             1687.20  1707.01  1741.25  1780.61  1804.06
                             1816.11  1834.22  1852.15  1910.56  1948.09
                             1951.92  1985.77  1995.33  2036.32  2052.89
                             2080.27  2083.95  2126.56  2160.39  2161.82
                             2221.60  2316.95  2384.75  2471.24  2610.52
                             4285.41  4348.60  4372.45  4403.43  4408.01
                             4418.55  4453.13  4643.11  4657.43  5029.39
                             5031.59  5138.79  5151.43  5404.33

 Zero-point correction=                           0.244687 (Hartree/Particle)
 Thermal correction to Energy=                    0.260572
 Thermal correction to Enthalpy=                  0.261516
 Thermal correction to Gibbs Free Energy=         0.198706
 Sum of electronic and zero-point Energies=           -796.074454
 Sum of electronic and thermal Energies=              -796.058569
 Sum of electronic and thermal Enthalpies=            -796.057625
 Sum of electronic and thermal Free Energies=         -796.120435

                     E (Thermal)             CV                S
                      KCal/Mol        Cal/Mol-Kelvin    Cal/Mol-Kelvin
 Total                  163.511             57.955            132.194
 Electronic               0.000              0.000              0.000
 Translational            0.889              2.981             42.150
 Rotational               0.889              2.981             33.092
 Vibrational            161.734             51.993             56.953
 Vibration     1          0.593              1.986              6.811
 Vibration     2          0.594              1.983              5.554
 Vibration     3          0.596              1.975              4.586
 Vibration     4          0.596              1.974              4.498
 Vibration     5          0.599              1.964              3.944
 Vibration     6          0.601              1.958              3.731
 Vibration     7          0.607              1.941              3.256
 Vibration     8          0.614              1.916              2.842
 Vibration     9          0.616              1.910              2.766
 Vibration    10          0.635              1.849              2.192
 Vibration    11          0.662              1.764              1.736
 Vibration    12          0.683              1.702              1.504
 Vibration    13          0.686              1.693              1.475
 Vibration    14          0.697              1.661              1.381
 Vibration    15          0.707              1.631              1.300
 Vibration    16          0.727              1.576              1.167
 Vibration    17          0.771              1.456              0.939
 Vibration    18          0.794              1.398              0.848
 Vibration    19          0.895              1.161              0.565
 Vibration    20          0.922              1.105              0.512
 Vibration    21          0.953              1.043              0.459

 Optimization completed.
    -- Stationary point found.
 Normal termination of Gaussian 09 at Wed Jul 28 23:18:35 2021.
