 Gaussian 09, Revision D.01,
 Gaussian 09:  ES64L-G09RevD.01 24-Apr-2013

 ----------------------------------------------------------------------
 # B3LYP/6-311G(d,p) opt=calcfc freq=noraman nosymm integral(ultrafineg
 rid)
 ----------------------------------------------------------------------

 ------------------------------------------------------------
 Candidate Structure: Conf:490 OPT and FREQ calc in gas phase
 ------------------------------------------------------------
 Symbolic Z-matrix:
 Charge =  0 Multiplicity = 1

 SCF Done:  E(RB3LYP) =  -796.308494222     A.U. after   14 cycles
 SCF Done:  E(RB3LYP) =  -796.310667981     A.U. after   14 cycles
 SCF Done:  E(RB3LYP) =  -796.306461173     A.U. after   14 cycles
 SCF Done:  E(RB3LYP) =  -796.311216017     A.U. after   11 cycles
 SCF Done:  E(RB3LYP) =  -796.312002305     A.U. after   14 cycles
 SCF Done:  E(RB3LYP) =  -796.312112038     A.U. after   12 cycles
 SCF Done:  E(RB3LYP) =  -796.312140045     A.U. after   12 cycles
 SCF Done:  E(RB3LYP) =  -796.312216607     A.U. after   10 cycles
 SCF Done:  E(RB3LYP) =  -796.312226492     A.U. after   10 cycles
 SCF Done:  E(RB3LYP) =  -796.312228895     A.U. after    8 cycles
 SCF Done:  E(RB3LYP) =  -796.312229380     A.U. after    8 cycles
 SCF Done:  E(RB3LYP) =  -796.312229426     A.U. after    7 cycles
 Optimization completed.
    -- Stationary point found.
 Normal termination of Gaussian 09 at Wed Jul 28 23:01:32 2021.

 ----------------------------------------------------------------------
 #N Geom=AllCheck Guess=TCheck SCRF=Check GenChk RB3LYP/6-311G(d,p) Fre
 q
 ----------------------------------------------------------------------

 Structure from the checkpoint file:  "conf-490.chk"
 ------------------------------------------------------------
 Candidate Structure: Conf:490 OPT and FREQ calc in gas phase
 ------------------------------------------------------------
 Charge =  0 Multiplicity = 1

                          Input orientation:
 ---------------------------------------------------------------------
 Center     Atomic      Atomic             Coordinates (Angstroms)
 Number     Number       Type             X           Y           Z
 ---------------------------------------------------------------------
      1          8           0        0.904684    0.595464   -2.326181
      2          6           0        1.580257    0.193050   -1.387407
      3          7           0        1.074509    0.036533   -0.133964
      4          6           0       -0.282068    0.431013    0.165074
      5          6           0       -0.395999    0.710525    1.665968
      6          8           0       -1.527222    1.332025    2.059324
      7          8           0        0.441703    0.395412    2.466984
      8          6           0       -1.303814   -0.651784   -0.310590
      9          6           0       -2.740976   -0.280682   -0.117385
     10          6           0       -3.536177    0.687344   -0.692664
     11          7           0       -4.805829    0.668609   -0.158669
     12          6           0       -4.793526   -0.295061    0.730120
     13          7           0       -3.570664   -0.900913    0.798396
     14          6           0        3.050744   -0.187244   -1.568663
     15          6           0        3.995874    0.162025   -0.411037
     16          7           0        3.686014   -0.634259    0.786933
     17          1           0        1.699292   -0.259424    0.619701
     18          1           0       -0.508337    1.348082   -0.389835
     19          1           0       -2.122064    1.468454    1.304365
     20          1           0       -1.097557   -0.800826   -1.372032
     21          1           0       -1.075965   -1.591121    0.202131
     22          1           0       -3.266700    1.376396   -1.479106
     23          1           0       -5.624773   -0.598855    1.347903
     24          1           0       -3.306188   -1.649132    1.420247
     25          1           0        3.098147   -1.265765   -1.766553
     26          1           0        3.375805    0.310839   -2.483581
     27          1           0        5.032479    0.040142   -0.755311
     28          1           0        3.872326    1.216702   -0.148632
     29          1           0        4.151557   -0.262848    1.607603
     30          1           0        3.994281   -1.594818    0.671469
 ---------------------------------------------------------------------

 SCF Done:  E(RB3LYP) =  -796.312229426     A.U. after    1 cycles

 Alpha  occ. eigenvalues --  -19.16877 -19.11327 -19.07919 -14.38054 -14.32756
 Alpha  occ. eigenvalues --  -14.31415 -14.29887 -10.31035 -10.26833 -10.23754
 Alpha  occ. eigenvalues --  -10.23293 -10.22065 -10.21482 -10.20324 -10.19211
 Alpha  occ. eigenvalues --  -10.18432  -1.11268  -1.03760  -1.03275  -1.02914
 Alpha  occ. eigenvalues --   -0.92873  -0.90422  -0.88549  -0.81222  -0.77152
 Alpha  occ. eigenvalues --   -0.74083  -0.68357  -0.64411  -0.62929  -0.62353
 Alpha  occ. eigenvalues --   -0.60528  -0.58031  -0.56619  -0.54415  -0.52026
 Alpha  occ. eigenvalues --   -0.50011  -0.48170  -0.47766  -0.46581  -0.46377
 Alpha  occ. eigenvalues --   -0.45260  -0.44392  -0.43671  -0.43381  -0.42053
 Alpha  occ. eigenvalues --   -0.41555  -0.40502  -0.39911  -0.39473  -0.38345
 Alpha  occ. eigenvalues --   -0.37633  -0.35279  -0.33046  -0.29785  -0.28886
 Alpha  occ. eigenvalues --   -0.28001  -0.26971  -0.26412  -0.25244  -0.23943
 Alpha virt. eigenvalues --   -0.00941   0.00842   0.01298   0.02563   0.03095
 Alpha virt. eigenvalues --    0.03678   0.05505   0.06392   0.06548   0.07124
 Alpha virt. eigenvalues --    0.08425   0.09262   0.09657   0.10840   0.11595

 Mulliken charges:
               1
     1  O   -0.392384
     2  C    0.349487
     3  N   -0.413499
     4  C   -0.135088
     5  C    0.388597
     6  O   -0.292403
     7  O   -0.318622
     8  C   -0.121912
     9  C   -0.019639
    10  C   -0.079367
    11  N   -0.284870
    12  C    0.152786
    13  N   -0.343213
    14  C   -0.232433
    15  C   -0.131717
    16  N   -0.477105
    17  H    0.255560
    18  H    0.161585
    19  H    0.262103
    20  H    0.172136
    21  H    0.118044
    22  H    0.114828
    23  H    0.115071
    24  H    0.232390
    25  H    0.125771
    26  H    0.138418
    27  H    0.112041
    28  H    0.129288
    29  H    0.213658
    30  H    0.200489
 Sum of Mulliken charges =   0.00000

 Dipole moment (field-independent basis, Debye):
    X=              3.3027    Y=             -3.7435    Z=              1.3163  Tot=              5.1628
 Quadrupole moment (field-independent basis, Debye-Ang):
   XX=            -83.7531   YY=            -88.9962   ZZ=           -109.4145
   XY=              7.2846   XZ=             -6.6112   YZ=             -3.6363

  Exact polarizability: 173.466  -7.752 100.582  -7.248 -10.152 121.045
 Approx polarizability: 218.241 -19.552 167.034   1.366 -27.308 193.643

                      1                      2                      3
                      A                      A                      A
 Frequencies --     25.6394                39.8527                46.1264
 Red. masses --      4.7305                 5.2991                 4.5562
 Frc consts  --      0.0018                 0.0050                 0.0057
 IR Inten    --      0.6641                 6.0162                 3.9666

                      4                      5                      6
                      A                      A                      A
 Frequencies --     58.5998                79.5108                86.4477
 Red. masses --      4.3815                 5.7450                 5.1128
 Frc consts  --      0.0089                 0.0214                 0.0225
 IR Inten    --      6.8328                 2.1854                 4.3288

                      7                      8                      9
                      A                      A                      A
 Frequencies --    101.4550               121.3866               173.2383
 Red. masses --      6.6381                 4.2650                 5.0967
 Frc consts  --      0.0403                 0.0370                 0.0901
 IR Inten    --      4.4599                 5.9173                 7.1759

                     10                     11                     12
                      A                      A                      A
 Frequencies --    201.5780               227.0637               288.6313
 Red. masses --      2.2454                 5.3906                 7.7409
 Frc consts  --      0.0538                 0.1638                 0.3800
 IR Inten    --      6.4992                 6.0903                 0.5195

                     13                     14                     15
                      A                      A                      A
 Frequencies --    297.5986               333.2975               344.8712
 Red. masses --      1.3041                 2.2015                 6.6863
 Frc consts  --      0.0681                 0.1441                 0.4685
 IR Inten    --     10.2388                 5.5979                 4.5142

                     16                     17                     18
                      A                      A                      A
 Frequencies --    345.9332               390.5597               474.8889
 Red. masses --      3.4991                 4.4616                 2.7133
 Frc consts  --      0.2467                 0.4010                 0.3605
 IR Inten    --     11.9216                19.6376                12.4818

                     19                     20                     21
                      A                      A                      A
 Frequencies --    509.1119               549.6861               592.9251
 Red. masses --      3.1530                 1.4023                 1.3290
 Frc consts  --      0.4815                 0.2496                 0.2753
 IR Inten    --     26.9240                96.6128                83.1708

                     22                     23                     24
                      A                      A                      A
 Frequencies --    601.6861               643.0345               670.4643
 Red. masses --      3.9061                 3.3565                 3.1057
 Frc consts  --      0.8332                 0.8177                 0.8225
 IR Inten    --      0.4034                 2.9764                20.3663

                     25                     26                     27
                      A                      A                      A
 Frequencies --    681.7764               697.0672               733.7437
 Red. masses --      2.9722                 3.2392                 3.3206
 Frc consts  --      0.8140                 0.9273                 1.0533
 IR Inten    --      9.0788                27.8013                 6.9003

                     28                     29                     30
                      A                      A                      A
 Frequencies --    762.9308               802.2306               818.9940
 Red. masses --      3.3025                 1.5678                 1.8959
 Frc consts  --      1.1326                 0.5945                 0.7493
 IR Inten    --      2.2267                38.1699                21.3446

                     31                     32                     33
                      A                      A                      A
 Frequencies --    823.7327               843.0878               860.7701
 Red. masses --      1.5053                 1.3526                 1.4147
 Frc consts  --      0.6018                 0.5665                 0.6176
 IR Inten    --     11.4918                84.0831                26.1936

                     34                     35                     36
                      A                      A                      A
 Frequencies --    890.0148               917.5743               936.9561
 Red. masses --      2.7164                 1.9983                 5.7825
 Frc consts  --      1.2678                 0.9913                 2.9909
 IR Inten    --     10.8484                15.6763                12.8927

                     37                     38                     39
                      A                      A                      A
 Frequencies --    972.5435              1001.7837              1010.5489
 Red. masses --      2.2027                 1.8403                 2.8252
 Frc consts  --      1.2275                 1.0881                 1.6999
 IR Inten    --     17.2970                18.0314                 0.9342

                     40                     41                     42
                      A                      A                      A
 Frequencies --   1025.2109              1035.6175              1081.9201
 Red. masses --      4.1669                 2.9567                 2.6038
 Frc consts  --      2.5804                 1.8683                 1.7958
 IR Inten    --      8.9264                 8.3693                 5.8665

                     43                     44                     45
                      A                      A                      A
 Frequencies --   1108.2258              1140.6851              1142.2629
 Red. masses --      1.6394                 2.5482                 2.1705
 Frc consts  --      1.1863                 1.9535                 1.6685
 IR Inten    --     16.2217                17.2496                10.6350

                     46                     47                     48
                      A                      A                      A
 Frequencies --   1159.1621              1159.7549              1198.0178
 Red. masses --      1.4375                 1.6540                 2.3380
 Frc consts  --      1.1380                 1.3107                 1.9771
 IR Inten    --      5.1342                23.5182                18.0517

                     49                     50                     51
                      A                      A                      A
 Frequencies --   1244.5279              1253.9962              1276.4799
 Red. masses --      1.6402                 1.9692                 1.3991
 Frc consts  --      1.4968                 1.8245                 1.3431
 IR Inten    --     31.5403                28.0539                 0.3256

                     52                     53                     54
                      A                      A                      A
 Frequencies --   1295.1180              1312.1973              1315.5671
 Red. masses --      1.3336                 1.4752                 1.3571
 Frc consts  --      1.3180                 1.4966                 1.3839
 IR Inten    --      2.1408                12.6505                10.3498

                     55                     56                     57
                      A                      A                      A
 Frequencies --   1318.4162              1358.4154              1368.3204
 Red. masses --      1.4161                 1.3484                 1.3782
 Frc consts  --      1.4503                 1.4661                 1.5203
 IR Inten    --    117.0039               101.4822                13.9566

                     58                     59                     60
                      A                      A                      A
 Frequencies --   1393.4130              1399.1342              1420.0604
 Red. masses --      2.4361                 1.9898                 1.4018
 Frc consts  --      2.7868                 2.2950                 1.6656
 IR Inten    --     50.0973                74.7808                18.1511

                     61                     62                     63
                      A                      A                      A
 Frequencies --   1430.9938              1466.3160              1486.3256
 Red. masses --      3.1066                 1.0823                 1.2300
 Frc consts  --      3.7481                 1.3711                 1.6009
 IR Inten    --     21.2821                12.8390                 9.2378

                     64                     65                     66
                      A                      A                      A
 Frequencies --   1492.2698              1511.4732              1551.9653
 Red. masses --      3.0143                 1.0987                 1.9491
 Frc consts  --      3.9549                 1.4789                 2.7659
 IR Inten    --     17.5853                12.9265               377.2920

                     67                     68                     69
                      A                      A                      A
 Frequencies --   1596.5168              1659.4058              1733.7741
 Red. masses --      4.0997                 1.0900                 9.1744
 Frc consts  --      6.1566                 1.7683                16.2484
 IR Inten    --      8.9764                38.7748               287.7877

                     70                     71                     72
                      A                      A                      A
 Frequencies --   1844.0453              2976.5802              3018.2816
 Red. masses --      9.9039                 1.0726                 1.0706
 Frc consts  --     19.8426                 5.5990                 5.7462
 IR Inten    --    261.8300                92.4043                 9.7557

                     73                     74                     75
                      A                      A                      A
 Frequencies --   3032.8009              3047.6690              3061.5021
 Red. masses --      1.0791                 1.0663                 1.0907
 Frc consts  --      5.8477                 5.8356                 6.0231
 IR Inten    --      7.0362                23.2743                28.4115

                     76                     77                     78
                      A                      A                      A
 Frequencies --   3098.3146              3100.8256              3232.2720
 Red. masses --      1.1019                 1.0922                 1.0960
 Frc consts  --      6.2322                 6.1877                 6.7466
 IR Inten    --      2.5138                11.6569                 3.9622

                     79                     80                     81
                      A                      A                      A
 Frequencies --   3242.5968              3390.9006              3499.5729
 Red. masses --      1.0979                 1.0818                 1.0500
 Frc consts  --      6.8014                 7.3288                 7.5762
 IR Inten    --      0.9546               326.8543                 0.2590

                     82                     83                     84
                      A                      A                      A
 Frequencies --   3581.0095              3643.5153              3687.7464
 Red. masses --      1.0932                 1.0813                 1.0667
 Frc consts  --      8.2598                 8.4576                 8.5468
 IR Inten    --      3.1289                51.1324               192.8658

 - Thermochemistry -
 -------------------
 Temperature   298.150 Kelvin.  Pressure   1.00000 Atm.
 Atom     1 has atomic number  8 and mass  15.99491

 Molecular mass:   226.10659 amu.
 Principal axes and moments of inertia in atomic units:
                           1         2         3
     Eigenvalues --  1654.349596670.230487654.63737
           X            0.99162   0.12838   0.01474
           Y           -0.02217   0.05663   0.99815
           Z           -0.12731   0.99011  -0.05900
 This molecule is an asymmetric top.
 Rotational symmetry number  1.
 Warning -- assumption of classical behavior for rotation
           may cause significant error
 Rotational temperatures (Kelvin)      0.05236     0.01299     0.01132
 Rotational constants (GHZ):           1.09091     0.27057     0.23577
 Zero-point vibrational energy     642098.7 (Joules/Mol)
                                  153.46527 (Kcal/Mol)
 Warning -- explicit consideration of  22 degrees of freedom as
           vibrations may cause significant error
 Vibrational temperatures:     36.89    57.34    66.37    84.31   114.40
          (Kelvin)            124.38   145.97   174.65   249.25   290.03
                              326.69   415.28   428.18   479.54   496.19
                              497.72   561.93   683.26   732.50   790.87
                              853.09   865.69   925.18   964.65   980.92
                             1002.92  1055.69  1097.69  1154.23  1178.35
                             1185.17  1213.01  1238.45  1280.53  1320.18
                             1348.07  1399.27  1441.34  1453.95  1475.05
                             1490.02  1556.64  1594.49  1641.19  1643.46
                             1667.77  1668.63  1723.68  1790.60  1804.22
                             1836.57  1863.38  1887.96  1892.81  1896.90
                             1954.45  1968.71  2004.81  2013.04  2043.15
                             2058.88  2109.70  2138.49  2147.04  2174.67
                             2232.93  2297.03  2387.51  2494.51  2653.17
                             4282.63  4342.63  4363.52  4384.91  4404.81
                             4457.78  4461.39  4650.51  4665.37  4878.74
                             5035.10  5152.27  5242.20  5305.84

 Zero-point correction=                           0.244562 (Hartree/Particle)
 Thermal correction to Energy=                    0.260387
 Thermal correction to Enthalpy=                  0.261331
 Thermal correction to Gibbs Free Energy=         0.199014
 Sum of electronic and zero-point Energies=           -796.067667
 Sum of electronic and thermal Energies=              -796.051843
 Sum of electronic and thermal Enthalpies=            -796.050898
 Sum of electronic and thermal Free Energies=         -796.113215

                     E (Thermal)             CV                S
                      KCal/Mol        Cal/Mol-Kelvin    Cal/Mol-Kelvin
 Total                  163.395             57.883            131.157
 Electronic               0.000              0.000              0.000
 Translational            0.889              2.981             42.150
 Rotational               0.889              2.981             32.802
 Vibrational            161.618             51.921             56.206
 Vibration     1          0.593              1.985              6.141
 Vibration     2          0.594              1.981              5.266
 Vibration     3          0.595              1.979              4.977
 Vibration     4          0.596              1.974              4.504
 Vibration     5          0.600              1.963              3.903
 Vibration     6          0.601              1.959              3.739
 Vibration     7          0.604              1.948              3.426
 Vibration     8          0.609              1.931              3.078
 Vibration     9          0.627              1.875              2.400
 Vibration    10          0.638              1.838              2.119
 Vibration    11          0.651              1.800              1.902
 Vibration    12          0.685              1.695              1.482
 Vibration    13          0.691              1.678              1.430
 Vibration    14          0.715              1.609              1.244
 Vibration    15          0.723              1.586              1.190
 Vibration    16          0.724              1.584              1.185
 Vibration    17          0.758              1.490              0.998
 Vibration    18          0.832              1.306              0.724
 Vibration    19          0.864              1.230              0.636
 Vibration    20          0.905              1.140              0.545
 Vibration    21          0.950              1.047              0.462
 Vibration    22          0.960              1.028              0.447

 Optimization completed.
    -- Stationary point found.
 Normal termination of Gaussian 09 at Wed Jul 28 23:33:21 2021.
