 Gaussian 09, Revision D.01,
 Gaussian 09:  ES64L-G09RevD.01 24-Apr-2013

 ----------------------------------------------------------------------
 # B3LYP/6-311G(d,p) opt=calcfc freq=noraman nosymm integral(ultrafineg
 rid)
 ----------------------------------------------------------------------

 ------------------------------------------------------------
 Candidate Structure: Conf:591 OPT and FREQ calc in gas phase
 ------------------------------------------------------------
 Symbolic Z-matrix:
 Charge =  0 Multiplicity = 1

 SCF Done:  E(RB3LYP) =  -796.309097408     A.U. after   14 cycles
 SCF Done:  E(RB3LYP) =  -796.311196255     A.U. after   14 cycles
 SCF Done:  E(RB3LYP) =  -796.311220067     A.U. after   13 cycles
 SCF Done:  E(RB3LYP) =  -796.311360199     A.U. after   13 cycles
 SCF Done:  E(RB3LYP) =  -796.311853289     A.U. after   11 cycles
 SCF Done:  E(RB3LYP) =  -796.312008034     A.U. after   12 cycles
 SCF Done:  E(RB3LYP) =  -796.313353445     A.U. after   14 cycles
 SCF Done:  E(RB3LYP) =  -796.310130236     A.U. after   14 cycles
 SCF Done:  E(RB3LYP) =  -796.314799171     A.U. after   11 cycles
 SCF Done:  E(RB3LYP) =  -796.313556759     A.U. after   13 cycles
 SCF Done:  E(RB3LYP) =  -796.316468829     A.U. after   12 cycles
 SCF Done:  E(RB3LYP) =  -796.316801106     A.U. after   11 cycles
 SCF Done:  E(RB3LYP) =  -796.316947934     A.U. after   11 cycles
 SCF Done:  E(RB3LYP) =  -796.317032388     A.U. after   11 cycles
 SCF Done:  E(RB3LYP) =  -796.317059801     A.U. after   10 cycles
 SCF Done:  E(RB3LYP) =  -796.317068840     A.U. after   10 cycles
 SCF Done:  E(RB3LYP) =  -796.317072220     A.U. after    9 cycles
 SCF Done:  E(RB3LYP) =  -796.317072693     A.U. after    7 cycles
 SCF Done:  E(RB3LYP) =  -796.317072762     A.U. after    6 cycles
 Optimization completed.
    -- Stationary point found.
 Normal termination of Gaussian 09 at Wed Jul 28 23:19:59 2021.

 ----------------------------------------------------------------------
 #N Geom=AllCheck Guess=TCheck SCRF=Check GenChk RB3LYP/6-311G(d,p) Fre
 q
 ----------------------------------------------------------------------

 Structure from the checkpoint file:  "conf-591.chk"
 ------------------------------------------------------------
 Candidate Structure: Conf:591 OPT and FREQ calc in gas phase
 ------------------------------------------------------------
 Charge =  0 Multiplicity = 1

                          Input orientation:
 ---------------------------------------------------------------------
 Center     Atomic      Atomic             Coordinates (Angstroms)
 Number     Number       Type             X           Y           Z
 ---------------------------------------------------------------------
      1          8           0       -0.832005    0.161999   -1.014278
      2          6           0       -1.266352    0.052673    0.131900
      3          7           0       -0.470523   -0.249157    1.186587
      4          6           0        0.950748   -0.520945    1.058942
      5          6           0        1.374232   -1.257841    2.318693
      6          8           0        2.629258   -1.724539    2.219199
      7          8           0        0.686591   -1.396405    3.300524
      8          6           0        1.829496    0.769859    0.840305
      9          6           0        2.547060    0.813746   -0.467137
     10          6           0        3.876679    0.950446   -0.789548
     11          7           0        4.052157    0.959755   -2.153209
     12          6           0        2.843133    0.825246   -2.653272
     13          7           0        1.893884    0.737334   -1.679941
     14          6           0       -2.737202    0.257451    0.447930
     15          6           0       -3.646963   -0.522994   -0.509222
     16          7           0       -5.051231   -0.261149   -0.176358
     17          1           0       -0.867533   -0.391552    2.105589
     18          1           0        1.113736   -1.189979    0.210390
     19          1           0        2.843930   -2.156972    3.059597
     20          1           0        2.575481    0.851776    1.632648
     21          1           0        1.156981    1.626175    0.950602
     22          1           0        4.712594    1.043723   -0.112212
     23          1           0        2.597799    0.784793   -3.703814
     24          1           0        0.891086    0.585838   -1.768944
     25          1           0       -2.975948   -0.013222    1.479305
     26          1           0       -2.940027    1.329774    0.339191
     27          1           0       -3.465348   -1.594399   -0.377449
     28          1           0       -3.363593   -0.273571   -1.539649
     29          1           0       -5.655188   -0.882283   -0.705030
     30          1           0       -5.302911    0.684561   -0.450695
 ---------------------------------------------------------------------

 SCF Done:  E(RB3LYP) =  -796.317072762     A.U. after    1 cycles

 Alpha  occ. eigenvalues --  -19.19465 -19.14113 -19.10592 -14.35793 -14.34415
 Alpha  occ. eigenvalues --  -14.29704 -14.27295 -10.33376 -10.29309 -10.25059
 Alpha  occ. eigenvalues --  -10.20682 -10.20573 -10.20183 -10.19320 -10.19115
 Alpha  occ. eigenvalues --  -10.16785  -1.14311  -1.06148  -1.05362  -1.00105
 Alpha  occ. eigenvalues --   -0.95145  -0.89359  -0.85798  -0.81445  -0.77142
 Alpha  occ. eigenvalues --   -0.74347  -0.68454  -0.66023  -0.62084  -0.60842
 Alpha  occ. eigenvalues --   -0.59862  -0.57828  -0.54387  -0.54095  -0.51959
 Alpha  occ. eigenvalues --   -0.50461  -0.50160  -0.49096  -0.48372  -0.46637
 Alpha  occ. eigenvalues --   -0.45770  -0.44803  -0.43490  -0.42928  -0.41775
 Alpha  occ. eigenvalues --   -0.40823  -0.39870  -0.39614  -0.39398  -0.38829
 Alpha  occ. eigenvalues --   -0.38148  -0.35740  -0.35448  -0.31574  -0.28823
 Alpha  occ. eigenvalues --   -0.28371  -0.26869  -0.25606  -0.24894  -0.21758
 Alpha virt. eigenvalues --   -0.02546  -0.00174   0.01679   0.03000   0.03244
 Alpha virt. eigenvalues --    0.04288   0.06399   0.06733   0.07245   0.07766
 Alpha virt. eigenvalues --    0.08305   0.08910   0.09802   0.11070   0.11714

 Mulliken charges:
               1
     1  O   -0.439877
     2  C    0.401840
     3  N   -0.411116
     4  C   -0.068727
     5  C    0.350965
     6  O   -0.305734
     7  O   -0.336939
     8  C   -0.166085
     9  C    0.070998
    10  C   -0.068754
    11  N   -0.304197
    12  C    0.148440
    13  N   -0.366061
    14  C   -0.235545
    15  C   -0.103670
    16  N   -0.462449
    17  H    0.245535
    18  H    0.184929
    19  H    0.263108
    20  H    0.137803
    21  H    0.146717
    22  H    0.087157
    23  H    0.102250
    24  H    0.260342
    25  H    0.121401
    26  H    0.134162
    27  H    0.113682
    28  H    0.119315
    29  H    0.193489
    30  H    0.187020
 Sum of Mulliken charges =   0.00000

 Dipole moment (field-independent basis, Debye):
    X=             -3.7212    Y=             -1.1075    Z=              2.4364  Tot=              4.5837
 Quadrupole moment (field-independent basis, Debye-Ang):
   XX=           -103.4087   YY=            -91.6825   ZZ=            -95.7721
   XY=             -8.5870   XZ=             23.2344   YZ=              1.5608

  Exact polarizability: 163.905   2.812  91.994  -4.698 -11.770 141.207
 Approx polarizability: 216.214   1.155 137.473 -10.880 -10.138 219.397

                      1                      2                      3
                      A                      A                      A
 Frequencies --     24.4606                34.4854                55.9247
 Red. masses --      3.3807                 5.7647                 4.7324
 Frc consts  --      0.0012                 0.0040                 0.0087
 IR Inten    --      1.3439                 1.2794                 1.6869

                      4                      5                      6
                      A                      A                      A
 Frequencies --     60.2547                75.5490                80.4161
 Red. masses --      7.0963                 2.7076                 4.2881
 Frc consts  --      0.0152                 0.0091                 0.0163
 IR Inten    --      0.6588                 1.3850                 1.0164

                      7                      8                      9
                      A                      A                      A
 Frequencies --     91.4844               131.7004               137.5095
 Red. masses --      6.3967                 5.5789                 4.2445
 Frc consts  --      0.0315                 0.0570                 0.0473
 IR Inten    --      8.2911                 3.5645                 8.6336

                     10                     11                     12
                      A                      A                      A
 Frequencies --    190.3624               229.3605               243.8502
 Red. masses --      4.9644                 2.5503                 1.6856
 Frc consts  --      0.1060                 0.0790                 0.0591
 IR Inten    --      1.4910                 8.1177                49.5456

                     13                     14                     15
                      A                      A                      A
 Frequencies --    280.6572               289.7712               314.9922
 Red. masses --      3.1362                 3.0792                 4.0200
 Frc consts  --      0.1455                 0.1523                 0.2350
 IR Inten    --     10.5387                 7.3291                 5.1215

                     16                     17                     18
                      A                      A                      A
 Frequencies --    354.7106               394.3615               425.5803
 Red. masses --      6.5619                 4.2610                 3.4495
 Frc consts  --      0.4864                 0.3904                 0.3681
 IR Inten    --      0.6019                 5.9414                 3.8113

                     19                     20                     21
                      A                      A                      A
 Frequencies --    533.4054               565.0184               592.5731
 Red. masses --      2.4861                 1.5501                 1.4834
 Frc consts  --      0.4168                 0.2916                 0.3069
 IR Inten    --     65.9541                30.6466                76.5249

                     22                     23                     24
                      A                      A                      A
 Frequencies --    634.6093               646.5711               652.1192
 Red. masses --      3.8646                 3.6958                 2.1295
 Frc consts  --      0.9170                 0.9103                 0.5336
 IR Inten    --     28.0564                 8.6292                 5.2227

                     25                     26                     27
                      A                      A                      A
 Frequencies --    677.4073               716.0263               754.7033
 Red. masses --      3.4522                 3.2699                 4.9976
 Frc consts  --      0.9334                 0.9877                 1.6771
 IR Inten    --     48.5285                22.4942                14.6633

                     28                     29                     30
                      A                      A                      A
 Frequencies --    777.5085               782.7218               802.1584
 Red. masses --      3.1421                 1.1732                 1.2854
 Frc consts  --      1.1191                 0.4235                 0.4873
 IR Inten    --     24.2517                34.8447                10.9104

                     31                     32                     33
                      A                      A                      A
 Frequencies --    823.1102               842.9080               859.3467
 Red. masses --      1.4186                 1.3959                 1.3402
 Frc consts  --      0.5663                 0.5843                 0.5831
 IR Inten    --     22.7694                23.0006               136.2628

                     34                     35                     36
                      A                      A                      A
 Frequencies --    867.7640               941.4503               941.5706
 Red. masses --      2.3919                 4.1355                 4.9584
 Frc consts  --      1.0612                 2.1596                 2.5900
 IR Inten    --     20.4988                16.3955                12.1302

                     37                     38                     39
                      A                      A                      A
 Frequencies --    977.4140               987.0191              1023.1129
 Red. masses --      2.9941                 2.7740                 3.5447
 Frc consts  --      1.6853                 1.5922                 2.1861
 IR Inten    --      1.6892                 4.5288                 4.0730

                     40                     41                     42
                      A                      A                      A
 Frequencies --   1024.6545              1048.6237              1087.6280
 Red. masses --      3.4316                 2.3439                 2.5644
 Frc consts  --      2.1228                 1.5185                 1.7873
 IR Inten    --     23.0174                 3.9771                43.4277

                     43                     44                     45
                      A                      A                      A
 Frequencies --   1129.5987              1133.0235              1148.6028
 Red. masses --      2.5180                 2.0749                 1.8977
 Frc consts  --      1.8930                 1.5694                 1.4751
 IR Inten    --     46.5026                41.1777                 3.1594

                     46                     47                     48
                      A                      A                      A
 Frequencies --   1159.4934              1181.6475              1209.8238
 Red. masses --      1.3208                 2.5285                 1.2759
 Frc consts  --      1.0462                 2.0801                 1.1003
 IR Inten    --     24.9553               175.4601                 8.8119

                     49                     50                     51
                      A                      A                      A
 Frequencies --   1234.3427              1263.1143              1273.0181
 Red. masses --      1.5593                 2.3311                 1.3836
 Frc consts  --      1.3998                 2.1913                 1.3210
 IR Inten    --     21.9239                 4.7115                14.4150

                     52                     53                     54
                      A                      A                      A
 Frequencies --   1285.4989              1300.1254              1316.2773
 Red. masses --      1.3154                 1.3425                 1.2201
 Frc consts  --      1.2807                 1.3370                 1.2455
 IR Inten    --     13.7823                 6.0852                 0.8030

                     55                     56                     57
                      A                      A                      A
 Frequencies --   1330.8308              1356.2323              1365.1110
 Red. masses --      1.3715                 1.4191                 1.4334
 Frc consts  --      1.4312                 1.5379                 1.5738
 IR Inten    --      1.1894                31.1173                 6.8969

                     58                     59                     60
                      A                      A                      A
 Frequencies --   1387.0497              1412.1070              1426.5944
 Red. masses --      3.9588                 2.3696                 1.4233
 Frc consts  --      4.4875                 2.7839                 1.7067
 IR Inten    --     18.4038               104.6661                36.7656

                     61                     62                     63
                      A                      A                      A
 Frequencies --   1447.2093              1476.5244              1478.0881
 Red. masses --      2.3357                 1.1378                 1.1356
 Frc consts  --      2.8823                 1.4615                 1.4618
 IR Inten    --     69.4747                14.5528                10.9927

                     64                     65                     66
                      A                      A                      A
 Frequencies --   1502.5903              1522.7953              1541.1004
 Red. masses --      3.3534                 1.0859                 2.3354
 Frc consts  --      4.4608                 1.4837                 3.2679
 IR Inten    --     23.7599                 1.9892               323.1505

                     67                     68                     69
                      A                      A                      A
 Frequencies --   1610.0574              1662.7566              1716.8844
 Red. masses --      4.0461                 1.0889                 8.4754
 Frc consts  --      6.1798                 1.7737                14.7195
 IR Inten    --     20.1002                29.2959               231.7799

                     70                     71                     72
                      A                      A                      A
 Frequencies --   1814.6890              2997.6555              3023.1451
 Red. masses --      9.7389                 1.0656                 1.0675
 Frc consts  --     18.8958                 5.6417                 5.7482
 IR Inten    --    288.3752                33.8293                 7.9390

                     73                     74                     75
                      A                      A                      A
 Frequencies --   3035.6316              3049.5943              3066.1405
 Red. masses --      1.0665                 1.0920                 1.0838
 Frc consts  --      5.7907                 5.9835                 6.0034
 IR Inten    --     20.7592                25.1804                 9.4980

                     76                     77                     78
                      A                      A                      A
 Frequencies --   3084.7275              3093.8335              3226.3930
 Red. masses --      1.1001                 1.0966                 1.0959
 Frc consts  --      6.1677                 6.1841                 6.7213
 IR Inten    --     27.7608                10.8101                10.4430

                     79                     80                     81
                      A                      A                      A
 Frequencies --   3237.2892              3483.0070              3484.0871
 Red. masses --      1.0973                 1.0851                 1.0502
 Frc consts  --      6.7754                 7.7558                 7.5112
 IR Inten    --      1.7762               446.4672                 0.5786

                     82                     83                     84
                      A                      A                      A
 Frequencies --   3561.8349              3589.2476              3756.0469
 Red. masses --      1.0920                 1.0778                 1.0644
 Frc consts  --      8.1625                 8.1808                 8.8472
 IR Inten    --      0.1309                82.4154                89.3545

 - Thermochemistry -
 -------------------
 Temperature   298.150 Kelvin.  Pressure   1.00000 Atm.
 Atom     1 has atomic number  8 and mass  15.99491

 Molecular mass:   226.10659 amu.
 Principal axes and moments of inertia in atomic units:
                           1         2         3
     Eigenvalues --  2741.631075877.282848238.90459
           X            0.98634   0.15821  -0.04582
           Y            0.10694  -0.40352   0.90870
           Z           -0.12528   0.90119   0.41493
 This molecule is an asymmetric top.
 Rotational symmetry number  1.
 Warning -- assumption of classical behavior for rotation
           may cause significant error
 Rotational temperatures (Kelvin)      0.03159     0.01474     0.01051
 Rotational constants (GHZ):           0.65827     0.30707     0.21905
 Zero-point vibrational energy     642087.7 (Joules/Mol)
                                  153.46263 (Kcal/Mol)
 Warning -- explicit consideration of  21 degrees of freedom as
           vibrations may cause significant error
 Vibrational temperatures:     35.19    49.62    80.46    86.69   108.70
          (Kelvin)            115.70   131.63   189.49   197.85   273.89
                              330.00   350.85   403.80   416.92   453.20
                              510.35   567.40   612.31   767.45   812.93
                              852.58   913.06   930.27   938.25   974.64
                             1030.20  1085.85  1118.66  1126.16  1154.13
                             1184.27  1212.76  1236.41  1248.52  1354.54
                             1354.71  1406.28  1420.10  1472.03  1474.25
                             1508.73  1564.85  1625.24  1630.17  1652.58
                             1668.25  1700.13  1740.66  1775.94  1817.34
                             1831.59  1849.54  1870.59  1893.83  1914.77
                             1951.31  1964.09  1995.65  2031.70  2052.55
                             2082.21  2124.39  2126.64  2161.89  2190.96
                             2217.30  2316.51  2392.33  2470.21  2610.93
                             4312.95  4349.63  4367.59  4387.68  4411.49
                             4438.23  4451.33  4642.05  4657.73  5011.26
                             5012.82  5124.68  5164.12  5404.11

 Zero-point correction=                           0.244558 (Hartree/Particle)
 Thermal correction to Energy=                    0.260617
 Thermal correction to Enthalpy=                  0.261561
 Thermal correction to Gibbs Free Energy=         0.198335
 Sum of electronic and zero-point Energies=           -796.072514
 Sum of electronic and thermal Energies=              -796.056456
 Sum of electronic and thermal Enthalpies=            -796.055512
 Sum of electronic and thermal Free Energies=         -796.118738

                     E (Thermal)             CV                S
                      KCal/Mol        Cal/Mol-Kelvin    Cal/Mol-Kelvin
 Total                  163.540             58.052            133.071
 Electronic               0.000              0.000              0.000
 Translational            0.889              2.981             42.150
 Rotational               0.889              2.981             33.251
 Vibrational            161.762             52.090             57.671
 Vibration     1          0.593              1.985              6.235
 Vibration     2          0.594              1.983              5.553
 Vibration     3          0.596              1.975              4.596
 Vibration     4          0.597              1.973              4.449
 Vibration     5          0.599              1.965              4.003
 Vibration     6          0.600              1.962              3.881
 Vibration     7          0.602              1.955              3.628
 Vibration     8          0.612              1.922              2.921
 Vibration     9          0.614              1.916              2.838
 Vibration    10          0.634              1.853              2.224
 Vibration    11          0.652              1.796              1.884
 Vibration    12          0.659              1.773              1.775
 Vibration    13          0.680              1.709              1.530
 Vibration    14          0.686              1.693              1.475
 Vibration    15          0.702              1.645              1.336
 Vibration    16          0.731              1.566              1.145
 Vibration    17          0.761              1.482              0.984
 Vibration    18          0.787              1.415              0.873
 Vibration    19          0.888              1.176              0.580
 Vibration    20          0.921              1.107              0.514
 Vibration    21          0.950              1.048              0.463

 Optimization completed.
    -- Stationary point found.
 Normal termination of Gaussian 09 at Wed Jul 28 23:50:54 2021.
