 Gaussian 09, Revision D.01,
 Gaussian 09:  ES64L-G09RevD.01 24-Apr-2013

 ----------------------------------------------------------------------
 # B3LYP/6-311G(d,p) opt=calcfc freq=noraman nosymm integral(ultrafineg
 rid)
 ----------------------------------------------------------------------

 ------------------------------------------------------------
 Candidate Structure: Conf:609 OPT and FREQ calc in gas phase
 ------------------------------------------------------------
 Symbolic Z-matrix:
 Charge =  0 Multiplicity = 1

 SCF Done:  E(RB3LYP) =  -796.304087325     A.U. after   14 cycles
 SCF Done:  E(RB3LYP) =  -796.306332429     A.U. after   12 cycles
 SCF Done:  E(RB3LYP) =  -796.306615769     A.U. after   14 cycles
 SCF Done:  E(RB3LYP) =  -796.306852700     A.U. after   12 cycles
 SCF Done:  E(RB3LYP) =  -796.306956491     A.U. after   12 cycles
 SCF Done:  E(RB3LYP) =  -796.307015961     A.U. after   12 cycles
 SCF Done:  E(RB3LYP) =  -796.307025695     A.U. after   11 cycles
 SCF Done:  E(RB3LYP) =  -796.307030264     A.U. after   10 cycles
 SCF Done:  E(RB3LYP) =  -796.307030477     A.U. after    8 cycles
 SCF Done:  E(RB3LYP) =  -796.307030570     A.U. after    8 cycles
 Optimization completed.
    -- Stationary point found.
 Normal termination of Gaussian 09 at Wed Jul 28 22:53:05 2021.

 ----------------------------------------------------------------------
 #N Geom=AllCheck Guess=TCheck SCRF=Check GenChk RB3LYP/6-311G(d,p) Fre
 q
 ----------------------------------------------------------------------

 Structure from the checkpoint file:  "conf-609.chk"
 ------------------------------------------------------------
 Candidate Structure: Conf:609 OPT and FREQ calc in gas phase
 ------------------------------------------------------------
 Charge =  0 Multiplicity = 1

                          Input orientation:
 ---------------------------------------------------------------------
 Center     Atomic      Atomic             Coordinates (Angstroms)
 Number     Number       Type             X           Y           Z
 ---------------------------------------------------------------------
      1          8           0        1.423813    1.092151   -0.604250
      2          6           0        1.629115    0.269322    0.274217
      3          7           0        0.621017   -0.522784    0.757429
      4          6           0       -0.693028   -0.513271    0.125780
      5          6           0       -0.522538   -0.883875   -1.358687
      6          8           0       -1.391872   -0.248613   -2.186996
      7          8           0        0.265011   -1.694356   -1.762108
      8          6           0       -1.481415    0.793522    0.418380
      9          6           0       -2.969706    0.646877    0.444704
     10          6           0       -3.863388    0.651929    1.490437
     11          7           0       -5.154843    0.497721    1.042837
     12          6           0       -5.054791    0.398454   -0.262366
     13          7           0       -3.757849    0.485366   -0.678097
     14          6           0        3.004978    0.057569    0.880935
     15          6           0        4.045169   -0.302680   -0.206776
     16          7           0        5.422584   -0.435605    0.256892
     17          1           0        0.860249   -1.309048    1.338986
     18          1           0       -1.252048   -1.344706    0.565915
     19          1           0       -1.179882   -0.557359   -3.081527
     20          1           0       -1.171312    1.118959    1.413026
     21          1           0       -1.159130    1.567815   -0.279465
     22          1           0       -3.642956    0.772025    2.540849
     23          1           0       -5.875342    0.264878   -0.951144
     24          1           0       -3.397163    0.406083   -1.616219
     25          1           0        3.298917    0.999193    1.356315
     26          1           0        2.990652   -0.712842    1.659535
     27          1           0        3.752195   -1.241464   -0.686519
     28          1           0        4.007741    0.465794   -0.981217
     29          1           0        5.498622   -1.153203    0.971186
     30          1           0        5.747267    0.432157    0.672397
 ---------------------------------------------------------------------

 SCF Done:  E(RB3LYP) =  -796.307030570     A.U. after    1 cycles

 Alpha  occ. eigenvalues --  -19.19197 -19.12720 -19.09620 -14.36016 -14.35397
 Alpha  occ. eigenvalues --  -14.29352 -14.28283 -10.32467 -10.28299 -10.25025
 Alpha  occ. eigenvalues --  -10.21731 -10.20227 -10.20072 -10.19403 -10.18812
 Alpha  occ. eigenvalues --  -10.17564  -1.13422  -1.05552  -1.04273  -1.01242
 Alpha  occ. eigenvalues --   -0.94461  -0.89003  -0.86873  -0.81205  -0.76784
 Alpha  occ. eigenvalues --   -0.73956  -0.68332  -0.65662  -0.62494  -0.61319
 Alpha  occ. eigenvalues --   -0.59531  -0.58783  -0.55091  -0.52833  -0.51747
 Alpha  occ. eigenvalues --   -0.50977  -0.50748  -0.48587  -0.46840  -0.45656
 Alpha  occ. eigenvalues --   -0.45171  -0.43867  -0.43399  -0.42587  -0.41999
 Alpha  occ. eigenvalues --   -0.41167  -0.40624  -0.39846  -0.39478  -0.38791
 Alpha  occ. eigenvalues --   -0.37718  -0.35342  -0.34416  -0.30185  -0.28497
 Alpha  occ. eigenvalues --   -0.27929  -0.27446  -0.26528  -0.24357  -0.22571
 Alpha virt. eigenvalues --   -0.01954   0.00179   0.01626   0.02123   0.02547
 Alpha virt. eigenvalues --    0.03905   0.05942   0.06463   0.07084   0.07443
 Alpha virt. eigenvalues --    0.07729   0.08911   0.10416   0.11136   0.11369

 Mulliken charges:
               1
     1  O   -0.390099
     2  C    0.365392
     3  N   -0.389883
     4  C   -0.070265
     5  C    0.396897
     6  O   -0.346611
     7  O   -0.328518
     8  C   -0.172245
     9  C    0.079774
    10  C   -0.073625
    11  N   -0.297819
    12  C    0.147535
    13  N   -0.363303
    14  C   -0.244651
    15  C   -0.104452
    16  N   -0.443095
    17  H    0.229254
    18  H    0.162318
    19  H    0.263044
    20  H    0.132486
    21  H    0.164719
    22  H    0.091034
    23  H    0.104716
    24  H    0.233744
    25  H    0.129457
    26  H    0.092043
    27  H    0.125688
    28  H    0.138572
    29  H    0.181928
    30  H    0.185964
 Sum of Mulliken charges =   0.00000

 Dipole moment (field-independent basis, Debye):
    X=              1.6401    Y=             -1.5183    Z=              0.2906  Tot=              2.2538
 Quadrupole moment (field-independent basis, Debye-Ang):
   XX=           -116.0320   YY=            -97.4050   ZZ=            -84.4689
   XY=              4.2460   XZ=             27.7302   YZ=             -3.1964

  Exact polarizability: 178.334  -4.698  95.423   3.411   2.061 123.468
 Approx polarizability: 218.261  -3.330 157.251  -0.484  -6.769 199.085

                      1                      2                      3
                      A                      A                      A
 Frequencies --     18.9903                27.1629                40.4232
 Red. masses --      4.6042                 5.0991                 5.3226
 Frc consts  --      0.0010                 0.0022                 0.0051
 IR Inten    --      0.5008                 9.7652                 6.0020

                      4                      5                      6
                      A                      A                      A
 Frequencies --     55.9122                72.2921                91.4493
 Red. masses --      4.4332                 2.8272                 8.1456
 Frc consts  --      0.0082                 0.0087                 0.0401
 IR Inten    --      2.2521                 2.6453                 2.3431

                      7                      8                      9
                      A                      A                      A
 Frequencies --     93.0801               125.0809               143.8904
 Red. masses --      2.7760                 5.9045                 6.3233
 Frc consts  --      0.0142                 0.0544                 0.0771
 IR Inten    --      2.6546                 1.9673                 5.1571

                     10                     11                     12
                      A                      A                      A
 Frequencies --    190.4539               222.0236               279.1304
 Red. masses --      4.3496                 5.2884                 4.1897
 Frc consts  --      0.0930                 0.1536                 0.1923
 IR Inten    --      9.6988                 3.1979                 7.2947

                     13                     14                     15
                      A                      A                      A
 Frequencies --    306.5496               306.9362               336.7461
 Red. masses --      1.8212                 1.5479                 3.7709
 Frc consts  --      0.1008                 0.0859                 0.2519
 IR Inten    --     28.0346                21.0096                 1.7132

                     16                     17                     18
                      A                      A                      A
 Frequencies --    365.2087               386.5961               418.5833
 Red. masses --      3.9017                 3.6052                 1.2622
 Frc consts  --      0.3066                 0.3175                 0.1303
 IR Inten    --      1.7243                12.4892                64.5293

                     19                     20                     21
                      A                      A                      A
 Frequencies --    437.9329               520.3486               548.5212
 Red. masses --      4.1486                 3.6565                 2.8810
 Frc consts  --      0.4688                 0.5833                 0.5107
 IR Inten    --      1.1776                32.6029                25.7201

                     22                     23                     24
                      A                      A                      A
 Frequencies --    591.2592               612.8546               672.6485
 Red. masses --      1.5656                 2.0973                 2.4863
 Frc consts  --      0.3225                 0.4641                 0.6628
 IR Inten    --     35.0785                81.2003                56.3132

                     25                     26                     27
                      A                      A                      A
 Frequencies --    680.5463               692.0905               730.8135
 Red. masses --      3.0173                 1.9417                 3.5492
 Frc consts  --      0.8233                 0.5480                 1.1168
 IR Inten    --     35.4673                 4.0431                33.5724

                     28                     29                     30
                      A                      A                      A
 Frequencies --    738.3738               768.7508               777.9626
 Red. masses --      4.7558                 1.8810                 1.7527
 Frc consts  --      1.5277                 0.6550                 0.6250
 IR Inten    --      3.7814                 4.1132                 1.8024

                     31                     32                     33
                      A                      A                      A
 Frequencies --    814.2365               830.8527               844.5471
 Red. masses --      1.4131                 1.7114                 1.6292
 Frc consts  --      0.5520                 0.6961                 0.6847
 IR Inten    --     18.7735               175.3570                61.5770

                     34                     35                     36
                      A                      A                      A
 Frequencies --    855.1992               912.3946               938.2577
 Red. masses --      2.2277                 2.6239                 5.6893
 Frc consts  --      0.9600                 1.2869                 2.9509
 IR Inten    --     37.1018                 0.5373                17.1664

                     37                     38                     39
                      A                      A                      A
 Frequencies --    968.6395               988.4364              1015.1377
 Red. masses --      1.7807                 2.0703                 4.9167
 Frc consts  --      0.9844                 1.1917                 2.9852
 IR Inten    --      8.5216                12.1129                79.6192

                     40                     41                     42
                      A                      A                      A
 Frequencies --   1028.2897              1046.0601              1084.4554
 Red. masses --      3.7714                 4.7388                 2.0014
 Frc consts  --      2.3495                 3.0552                 1.3868
 IR Inten    --     18.5068                 5.0266                11.7385

                     43                     44                     45
                      A                      A                      A
 Frequencies --   1102.8022              1111.2684              1135.1733
 Red. masses --      3.3572                 1.5719                 1.6619
 Frc consts  --      2.4056                 1.1437                 1.2618
 IR Inten    --     19.0080                49.2757                53.8863

                     46                     47                     48
                      A                      A                      A
 Frequencies --   1144.9453              1158.6937              1198.1591
 Red. masses --      2.1008                 2.3217                 1.4966
 Frc consts  --      1.6226                 1.8365                 1.2659
 IR Inten    --     37.9936               165.6791                42.6214

                     49                     50                     51
                      A                      A                      A
 Frequencies --   1244.1449              1259.4525              1272.4913
 Red. masses --      1.7916                 2.3994                 1.3693
 Frc consts  --      1.6339                 2.2424                 1.3063
 IR Inten    --     66.5910                19.8175                 5.6077

                     52                     53                     54
                      A                      A                      A
 Frequencies --   1293.0525              1304.4816              1329.4411
 Red. masses --      1.3172                 1.2578                 1.3789
 Frc consts  --      1.2976                 1.2610                 1.4359
 IR Inten    --      4.7237                 1.3164                 7.9823

                     55                     56                     57
                      A                      A                      A
 Frequencies --   1334.8284              1350.0080              1376.8992
 Red. masses --      1.4451                 1.8169                 1.7552
 Frc consts  --      1.5171                 1.9510                 1.9606
 IR Inten    --     39.4528                 5.6279                 4.3902

                     58                     59                     60
                      A                      A                      A
 Frequencies --   1384.8179              1393.2518              1394.0041
 Red. masses --      1.2412                 1.2223                 2.8904
 Frc consts  --      1.4024                 1.3980                 3.3093
 IR Inten    --     16.9418                12.8660                11.1683

                     61                     62                     63
                      A                      A                      A
 Frequencies --   1429.2806              1477.0905              1486.9138
 Red. masses --      2.8559                 1.1085                 1.1570
 Frc consts  --      3.4374                 1.4250                 1.5072
 IR Inten    --     23.6652                 3.5262                12.1444

                     64                     65                     66
                      A                      A                      A
 Frequencies --   1500.2018              1504.3153              1522.7221
 Red. masses --      3.2395                 1.0884                 1.9075
 Frc consts  --      4.2956                 1.4512                 2.6059
 IR Inten    --     33.5950                 5.1263               220.1024

                     67                     68                     69
                      A                      A                      A
 Frequencies --   1604.4993              1665.8840              1747.1757
 Red. masses --      4.3469                 1.0898                 9.2670
 Frc consts  --      6.5933                 1.7819                16.6672
 IR Inten    --      8.7572                27.6378               178.0933

                     70                     71                     72
                      A                      A                      A
 Frequencies --   1835.7301              3022.3495              3041.9576
 Red. masses --     10.2466                 1.0589                 1.0686
 Frc consts  --     20.3445                 5.6987                 5.8260
 IR Inten    --    281.9502                16.4114                23.9593

                     73                     74                     75
                      A                      A                      A
 Frequencies --   3053.8300              3063.7971              3069.3803
 Red. masses --      1.0820                 1.0972                 1.0619
 Frc consts  --      5.9454                 6.0684                 5.8943
 IR Inten    --      3.2879                12.4006                12.0099

                     76                     77                     78
                      A                      A                      A
 Frequencies --   3097.8810              3110.9750              3226.2091
 Red. masses --      1.1035                 1.1034                 1.0958
 Frc consts  --      6.2393                 6.2917                 6.7202
 IR Inten    --     23.4365                 3.9228                 9.3957

                     79                     80                     81
                      A                      A                      A
 Frequencies --   3236.7318              3486.3662              3563.9808
 Red. masses --      1.0974                 1.0484                 1.0935
 Frc consts  --      6.7739                 7.5078                 8.1839
 IR Inten    --      1.6284                 0.6244                 0.0079

                     82                     83                     84
                      A                      A                      A
 Frequencies --   3643.6901              3645.2181              3746.1661
 Red. masses --      1.0785                 1.0811                 1.0642
 Frc consts  --      8.4360                 8.4636                 8.7994
 IR Inten    --     26.8632               113.3660                74.4646

 - Thermochemistry -
 -------------------
 Temperature   298.150 Kelvin.  Pressure   1.00000 Atm.
 Atom     1 has atomic number  8 and mass  15.99491

 Molecular mass:   226.10659 amu.
 Principal axes and moments of inertia in atomic units:
                           1         2         3
     Eigenvalues --  1306.566538031.313388767.82180
           X            0.99604   0.04854   0.07451
           Y           -0.08752   0.38647   0.91814
           Z           -0.01577   0.92102  -0.38919
 This molecule is an asymmetric top.
 Rotational symmetry number  1.
 Warning -- assumption of classical behavior for rotation
           may cause significant error
 Rotational temperatures (Kelvin)      0.06629     0.01078     0.00988
 Rotational constants (GHZ):           1.38129     0.22471     0.20584
 Zero-point vibrational energy     640895.6 (Joules/Mol)
                                  153.17773 (Kcal/Mol)
 Warning -- explicit consideration of  23 degrees of freedom as
           vibrations may cause significant error
 Vibrational temperatures:     27.32    39.08    58.16    80.45   104.01
          (Kelvin)            131.58   133.92   179.96   207.03   274.02
                              319.44   401.61   441.06   441.61   484.50
                              525.45   556.22   602.25   630.09   748.66
                              789.20   850.69   881.76   967.79   979.15
                              995.76  1051.48  1062.35  1106.06  1119.31
                             1171.50  1195.41  1215.11  1230.44  1312.73
                             1349.94  1393.65  1422.14  1460.55  1479.48
                             1505.05  1560.29  1586.68  1598.87  1633.26
                             1647.32  1667.10  1723.88  1790.04  1812.07
                             1830.83  1860.41  1876.86  1912.77  1920.52
                             1942.36  1981.05  1992.44  2004.58  2005.66
                             2056.41  2125.20  2139.33  2158.45  2164.37
                             2190.85  2308.51  2396.83  2513.79  2641.20
                             4348.48  4376.69  4393.77  4408.12  4416.15
                             4457.15  4475.99  4641.79  4656.93  5016.10
                             5127.77  5242.45  5244.65  5389.89

 Zero-point correction=                           0.244104 (Hartree/Particle)
 Thermal correction to Energy=                    0.260331
 Thermal correction to Enthalpy=                  0.261275
 Thermal correction to Gibbs Free Energy=         0.197375
 Sum of electronic and zero-point Energies=           -796.062926
 Sum of electronic and thermal Energies=              -796.046699
 Sum of electronic and thermal Enthalpies=            -796.045755
 Sum of electronic and thermal Free Energies=         -796.109656

                     E (Thermal)             CV                S
                      KCal/Mol        Cal/Mol-Kelvin    Cal/Mol-Kelvin
 Total                  163.360             58.859            134.490
 Electronic               0.000              0.000              0.000
 Translational            0.889              2.981             42.150
 Rotational               0.889              2.981             32.887
 Vibrational            161.583             52.897             59.453
 Vibration     1          0.593              1.986              6.737
 Vibration     2          0.593              1.984              6.027
 Vibration     3          0.594              1.981              5.238
 Vibration     4          0.596              1.975              4.597
 Vibration     5          0.598              1.967              4.090
 Vibration     6          0.602              1.955              3.629
 Vibration     7          0.602              1.954              3.594
 Vibration     8          0.610              1.928              3.020
 Vibration     9          0.616              1.909              2.751
 Vibration    10          0.634              1.853              2.223
 Vibration    11          0.648              1.808              1.943
 Vibration    12          0.679              1.712              1.539
 Vibration    13          0.697              1.661              1.381
 Vibration    14          0.697              1.661              1.379
 Vibration    15          0.717              1.602              1.228
 Vibration    16          0.738              1.544              1.100
 Vibration    17          0.755              1.499              1.013
 Vibration    18          0.781              1.430              0.897
 Vibration    19          0.798              1.387              0.833
 Vibration    20          0.875              1.205              0.609
 Vibration    21          0.904              1.143              0.547
 Vibration    22          0.949              1.050              0.465
 Vibration    23          0.972              1.005              0.428

 Optimization completed.
    -- Stationary point found.
 Normal termination of Gaussian 09 at Wed Jul 28 23:23:42 2021.
