 Gaussian 09, Revision D.01,
 Gaussian 09:  ES64L-G09RevD.01 24-Apr-2013

 ----------------------------------------------------------------------
 # B3LYP/6-311G(d,p) opt=calcfc freq=noraman nosymm integral(ultrafineg
 rid)
 ----------------------------------------------------------------------

 ------------------------------------------------------------
 Candidate Structure: Conf:295 OPT and FREQ calc in gas phase
 ------------------------------------------------------------
 Symbolic Z-matrix:
 Charge =  0 Multiplicity = 1

 SCF Done:  E(RB3LYP) =  -796.307905206     A.U. after   14 cycles
 SCF Done:  E(RB3LYP) =  -796.310951305     A.U. after   12 cycles
 SCF Done:  E(RB3LYP) =  -796.311961093     A.U. after   13 cycles
 SCF Done:  E(RB3LYP) =  -796.312043412     A.U. after   14 cycles
 SCF Done:  E(RB3LYP) =  -796.312526941     A.U. after   12 cycles
 SCF Done:  E(RB3LYP) =  -796.312615678     A.U. after   11 cycles
 SCF Done:  E(RB3LYP) =  -796.312690601     A.U. after   11 cycles
 SCF Done:  E(RB3LYP) =  -796.312717687     A.U. after   10 cycles
 SCF Done:  E(RB3LYP) =  -796.312723997     A.U. after   10 cycles
 SCF Done:  E(RB3LYP) =  -796.312724310     A.U. after    7 cycles
 SCF Done:  E(RB3LYP) =  -796.312724345     A.U. after    7 cycles
 SCF Done:  E(RB3LYP) =  -796.312724352     A.U. after    6 cycles
 Optimization completed.
    -- Stationary point found.
 Normal termination of Gaussian 09 at Wed Jul 28 22:57:42 2021.

 ----------------------------------------------------------------------
 #N Geom=AllCheck Guess=TCheck SCRF=Check GenChk RB3LYP/6-311G(d,p) Fre
 q
 ----------------------------------------------------------------------

 Structure from the checkpoint file:  "conf-295.chk"
 ------------------------------------------------------------
 Candidate Structure: Conf:295 OPT and FREQ calc in gas phase
 ------------------------------------------------------------
 Charge =  0 Multiplicity = 1

                          Input orientation:
 ---------------------------------------------------------------------
 Center     Atomic      Atomic             Coordinates (Angstroms)
 Number     Number       Type             X           Y           Z
 ---------------------------------------------------------------------
      1          8           0        1.340681    0.926729   -0.714857
      2          6           0        1.745925    0.034940    0.017796
      3          7           0        0.911225   -0.618724    0.878285
      4          6           0       -0.473942   -0.219012    1.042390
      5          6           0       -0.919273   -0.745659    2.396994
      6          8           0       -2.191134   -0.399507    2.711746
      7          8           0       -0.243988   -1.416702    3.135018
      8          6           0       -1.376490   -0.725272   -0.134580
      9          6           0       -2.545337    0.133299   -0.494222
     10          6           0       -2.802688    0.855484   -1.635324
     11          7           0       -4.026325    1.478620   -1.564134
     12          6           0       -4.512439    1.146593   -0.391262
     13          7           0       -3.664314    0.325871    0.294910
     14          6           0        3.194248   -0.443348    0.037716
     15          6           0        4.088904    0.338560   -0.923269
     16          7           0        3.709586    0.063178   -2.312280
     17          1           0        1.279134   -1.270979    1.556372
     18          1           0       -0.534722    0.874366    1.053985
     19          1           0       -2.369470   -0.781825    3.585143
     20          1           0       -0.726471   -0.748845   -1.008433
     21          1           0       -1.680462   -1.760215    0.062089
     22          1           0       -2.166276    0.955297   -2.501433
     23          1           0       -5.461727    1.464332    0.013237
     24          1           0       -3.760171   -0.000088    1.243477
     25          1           0        3.574359   -0.365641    1.063283
     26          1           0        3.213422   -1.503049   -0.238222
     27          1           0        5.119673    0.002712   -0.775792
     28          1           0        4.051519    1.404865   -0.654117
     29          1           0        2.828855    0.533373   -2.499810
     30          1           0        4.397717    0.460649   -2.943466
 ---------------------------------------------------------------------

 SCF Done:  E(RB3LYP) =  -796.312724352     A.U. after    1 cycles

 Alpha  occ. eigenvalues --  -19.20768 -19.14899 -19.09393 -14.35980 -14.34594
 Alpha  occ. eigenvalues --  -14.28102 -14.27576 -10.34130 -10.27978 -10.25020
 Alpha  occ. eigenvalues --  -10.21640 -10.20130 -10.20092 -10.19299 -10.18211
 Alpha  occ. eigenvalues --  -10.17314  -1.15241  -1.06309  -1.05010  -1.01129
 Alpha  occ. eigenvalues --   -0.94241  -0.87568  -0.86774  -0.81392  -0.76529
 Alpha  occ. eigenvalues --   -0.74284  -0.69035  -0.65768  -0.61539  -0.60989
 Alpha  occ. eigenvalues --   -0.60004  -0.58655  -0.54761  -0.52988  -0.52626
 Alpha  occ. eigenvalues --   -0.50358  -0.50054  -0.48657  -0.48090  -0.46513
 Alpha  occ. eigenvalues --   -0.46050  -0.44548  -0.43352  -0.42534  -0.41765
 Alpha  occ. eigenvalues --   -0.40651  -0.40355  -0.39675  -0.39411  -0.37643
 Alpha  occ. eigenvalues --   -0.36609  -0.36334  -0.35936  -0.32101  -0.28018
 Alpha  occ. eigenvalues --   -0.27562  -0.26688  -0.26338  -0.23413  -0.22442
 Alpha virt. eigenvalues --   -0.03197   0.00387   0.01010   0.02087   0.03885
 Alpha virt. eigenvalues --    0.05855   0.06239   0.06295   0.07516   0.08077
 Alpha virt. eigenvalues --    0.08279   0.08925   0.10249   0.10861   0.11584

 Mulliken charges:
               1
     1  O   -0.389693
     2  C    0.391300
     3  N   -0.422378
     4  C   -0.049868
     5  C    0.384947
     6  O   -0.345876
     7  O   -0.328404
     8  C   -0.179670
     9  C    0.086722
    10  C   -0.056779
    11  N   -0.298382
    12  C    0.147687
    13  N   -0.367981
    14  C   -0.268018
    15  C   -0.099408
    16  N   -0.468326
    17  H    0.239336
    18  H    0.177294
    19  H    0.268049
    20  H    0.159034
    21  H    0.125145
    22  H    0.100328
    23  H    0.104022
    24  H    0.228013
    25  H    0.126179
    26  H    0.138467
    27  H    0.105537
    28  H    0.101534
    29  H    0.205356
    30  H    0.185833
 Sum of Mulliken charges =   0.00000

 Dipole moment (field-independent basis, Debye):
    X=              0.4675    Y=             -2.1779    Z=              5.0424  Tot=              5.5125
 Quadrupole moment (field-independent basis, Debye-Ang):
   XX=            -87.7897   YY=           -100.3952   ZZ=            -92.4017
   XY=              9.8962   XZ=            -18.4134   YZ=              2.3902

  Exact polarizability: 161.568 -16.248 101.092  -7.623 -20.896 131.892
 Approx polarizability: 204.341 -27.275 167.332  -4.480 -38.126 200.975

                      1                      2                      3
                      A                      A                      A
 Frequencies --     19.1454                30.9568                33.4017
 Red. masses --      3.5294                 4.5667                 7.2625
 Frc consts  --      0.0008                 0.0026                 0.0048
 IR Inten    --      1.4620                 1.5611                 0.9599

                      4                      5                      6
                      A                      A                      A
 Frequencies --     52.2516                65.3119                70.5044
 Red. masses --      4.4704                 9.0566                 4.6773
 Frc consts  --      0.0072                 0.0228                 0.0137
 IR Inten    --      1.6285                 3.9783                 1.4036

                      7                      8                      9
                      A                      A                      A
 Frequencies --    124.1703               129.9941               158.8728
 Red. masses --      4.7845                 5.7127                 3.5996
 Frc consts  --      0.0435                 0.0569                 0.0535
 IR Inten    --      6.4651                 1.9886                 4.0714

                     10                     11                     12
                      A                      A                      A
 Frequencies --    192.1395               247.1676               272.4189
 Red. masses --      4.7143                 2.6914                 5.7011
 Frc consts  --      0.1025                 0.0969                 0.2493
 IR Inten    --      0.8554                31.0434                 0.6592

                     13                     14                     15
                      A                      A                      A
 Frequencies --    304.5859               322.6975               328.9657
 Red. masses --      2.5240                 1.4236                 4.1551
 Frc consts  --      0.1380                 0.0873                 0.2649
 IR Inten    --      6.8062                34.4839                 2.5108

                     16                     17                     18
                      A                      A                      A
 Frequencies --    345.2935               380.5657               427.5999
 Red. masses --      3.1496                 4.0092                 2.5336
 Frc consts  --      0.2213                 0.3421                 0.2729
 IR Inten    --     19.7863                 5.8985                36.5792

                     19                     20                     21
                      A                      A                      A
 Frequencies --    492.3246               560.2194               566.3922
 Red. masses --      1.3698                 2.3203                 1.8104
 Frc consts  --      0.1956                 0.4291                 0.3422
 IR Inten    --     72.7737                23.3267                41.1819

                     22                     23                     24
                      A                      A                      A
 Frequencies --    593.4754               612.4111               635.1808
 Red. masses --      1.7764                 2.2087                 3.1231
 Frc consts  --      0.3686                 0.4881                 0.7424
 IR Inten    --     40.9177                 3.5440                36.4583

                     25                     26                     27
                      A                      A                      A
 Frequencies --    667.8080               683.5371               685.4894
 Red. masses --      2.1588                 3.3861                 2.3766
 Frc consts  --      0.5672                 0.9321                 0.6580
 IR Inten    --     97.0926                 9.8484                 0.5384

                     28                     29                     30
                      A                      A                      A
 Frequencies --    738.0982               769.2116               809.5700
 Red. masses --      3.1362                 4.0465                 2.7123
 Frc consts  --      1.0067                 1.4106                 1.0474
 IR Inten    --     26.3056                 5.0576                13.8048

                     31                     32                     33
                      A                      A                      A
 Frequencies --    812.9960               856.0288               873.8943
 Red. masses --      1.4143                 1.4343                 1.9772
 Frc consts  --      0.5508                 0.6193                 0.8896
 IR Inten    --     18.6392                19.7327                61.4044

                     34                     35                     36
                      A                      A                      A
 Frequencies --    888.3287               912.1862               937.1902
 Red. masses --      1.9459                 1.6829                 5.6530
 Frc consts  --      0.9047                 0.8250                 2.9254
 IR Inten    --      9.6668                58.4590                14.5806

                     37                     38                     39
                      A                      A                      A
 Frequencies --    956.3308              1006.1360              1014.7607
 Red. masses --      2.2500                 4.2755                 3.3904
 Frc consts  --      1.2124                 2.5501                 2.0569
 IR Inten    --     12.6394                 9.2178                 8.8435

                     40                     41                     42
                      A                      A                      A
 Frequencies --   1029.4719              1061.6597              1100.7097
 Red. masses --      3.6084                 2.5954                 3.5678
 Frc consts  --      2.2532                 1.7236                 2.5468
 IR Inten    --     10.3993                17.3598                39.9996

                     43                     44                     45
                      A                      A                      A
 Frequencies --   1114.4827              1124.8292              1145.2325
 Red. masses --      1.5998                 1.7434                 2.0482
 Frc consts  --      1.1707                 1.2997                 1.5827
 IR Inten    --     36.9089                18.0514                15.7031

                     46                     47                     48
                      A                      A                      A
 Frequencies --   1166.3194              1187.9705              1190.1771
 Red. masses --      1.6798                 2.2778                 1.3903
 Frc consts  --      1.3463                 1.8940                 1.1604
 IR Inten    --    155.1165                65.8535                27.6727

                     49                     50                     51
                      A                      A                      A
 Frequencies --   1230.1717              1241.5016              1261.2469
 Red. masses --      1.2735                 1.5504                 2.4217
 Frc consts  --      1.1355                 1.4080                 2.2697
 IR Inten    --     10.2115                26.4393                17.0317

                     52                     53                     54
                      A                      A                      A
 Frequencies --   1272.5729              1306.5208              1322.2327
 Red. masses --      1.4212                 1.4010                 1.2303
 Frc consts  --      1.3560                 1.4090                 1.2673
 IR Inten    --     10.4978                15.6148                 2.8127

                     55                     56                     57
                      A                      A                      A
 Frequencies --   1355.0099              1357.5417              1373.1234
 Red. masses --      1.2167                 1.5873                 1.5600
 Frc consts  --      1.3162                 1.7235                 1.7330
 IR Inten    --      5.3952                38.1424                 9.7562

                     58                     59                     60
                      A                      A                      A
 Frequencies --   1387.6685              1409.8269              1429.4427
 Red. masses --      2.7900                 2.3032                 1.3659
 Frc consts  --      3.1653                 2.6973                 1.6444
 IR Inten    --     33.1050                71.4982                10.0419

                     61                     62                     63
                      A                      A                      A
 Frequencies --   1431.1178              1448.6472              1472.3558
 Red. masses --      2.6293                 1.1245                 1.1624
 Frc consts  --      3.1728                 1.3904                 1.4847
 IR Inten    --     30.1077                22.5501                19.7122

                     64                     65                     66
                      A                      A                      A
 Frequencies --   1501.4252              1504.0693              1529.0250
 Red. masses --      3.3292                 1.0857                 2.0783
 Frc consts  --      4.4218                 1.4471                 2.8627
 IR Inten    --     22.7487                 2.0757               327.5121

                     67                     68                     69
                      A                      A                      A
 Frequencies --   1605.4978              1656.2618              1741.6272
 Red. masses --      4.2940                 1.1310                 6.9754
 Frc consts  --      6.5212                 1.8279                12.4661
 IR Inten    --      6.2957                85.9020               155.8690

                     70                     71                     72
                      A                      A                      A
 Frequencies --   1820.0953              2965.6458              3017.7734
 Red. masses --      9.5188                 1.0718                 1.0718
 Frc consts  --     18.5789                 5.5542                 5.7509
 IR Inten    --    289.2121                65.2037                26.8330

                     73                     74                     75
                      A                      A                      A
 Frequencies --   3020.5289              3044.9719              3054.0522
 Red. masses --      1.0615                 1.0825                 1.0897
 Frc consts  --      5.7059                 5.9135                 5.9881
 IR Inten    --     16.7179                12.7625                44.2167

                     76                     77                     78
                      A                      A                      A
 Frequencies --   3064.3011              3118.0559              3233.7038
 Red. masses --      1.1004                 1.0914                 1.0944
 Frc consts  --      6.0880                 6.2519                 6.7425
 IR Inten    --     15.9080                 2.0206                 8.2261

                     79                     80                     81
                      A                      A                      A
 Frequencies --   3237.3744              3491.5471              3567.2324
 Red. masses --      1.0993                 1.0493                 1.0927
 Frc consts  --      6.7879                 7.5370                 8.1927
 IR Inten    --      0.3323                 7.6823                 4.1862

                     82                     83                     84
                      A                      A                      A
 Frequencies --   3600.3784              3652.1403              3745.0353
 Red. masses --      1.0776                 1.0808                 1.0643
 Frc consts  --      8.2303                 8.4939                 8.7944
 IR Inten    --     69.7462               103.6295                86.4443

 - Thermochemistry -
 -------------------
 Temperature   298.150 Kelvin.  Pressure   1.00000 Atm.
 Atom     1 has atomic number  8 and mass  15.99491

 Molecular mass:   226.10659 amu.
 Principal axes and moments of inertia in atomic units:
                           1         2         3
     Eigenvalues --  2434.544756147.592138285.20799
           X            0.98968   0.08466   0.11561
           Y           -0.07358  -0.39206   0.91699
           Z           -0.12296   0.91603   0.38179
 This molecule is an asymmetric top.
 Rotational symmetry number  1.
 Warning -- assumption of classical behavior for rotation
           may cause significant error
 Rotational temperatures (Kelvin)      0.03558     0.01409     0.01045
 Rotational constants (GHZ):           0.74131     0.29357     0.21783
 Zero-point vibrational energy     641008.1 (Joules/Mol)
                                  153.20462 (Kcal/Mol)
 Warning -- explicit consideration of  23 degrees of freedom as
           vibrations may cause significant error
 Vibrational temperatures:     27.55    44.54    48.06    75.18    93.97
          (Kelvin)            101.44   178.65   187.03   228.58   276.45
                              355.62   391.95   438.23   464.29   473.31
                              496.80   547.55   615.22   708.34   806.03
                              814.91   853.88   881.12   913.88   960.83
                              983.46   986.27  1061.96  1106.72  1164.79
                             1169.72  1231.63  1257.34  1278.11  1312.43
                             1348.41  1375.95  1447.60  1460.01  1481.18
                             1527.49  1583.67  1603.49  1618.38  1647.73
                             1678.07  1709.22  1712.40  1769.94  1786.24
                             1814.65  1830.95  1879.79  1902.40  1949.55
                             1953.20  1975.62  1996.54  2028.42  2056.65
                             2059.06  2084.28  2118.39  2160.21  2164.02
                             2199.92  2309.95  2382.99  2505.81  2618.71
                             4266.90  4341.90  4345.86  4381.03  4394.09
                             4408.84  4486.18  4652.57  4657.85  5023.55
                             5132.45  5180.13  5254.61  5388.26

 Zero-point correction=                           0.244147 (Hartree/Particle)
 Thermal correction to Energy=                    0.260256
 Thermal correction to Enthalpy=                  0.261200
 Thermal correction to Gibbs Free Energy=         0.197276
 Sum of electronic and zero-point Energies=           -796.068577
 Sum of electronic and thermal Energies=              -796.052469
 Sum of electronic and thermal Enthalpies=            -796.051525
 Sum of electronic and thermal Free Energies=         -796.115448

                     E (Thermal)             CV                S
                      KCal/Mol        Cal/Mol-Kelvin    Cal/Mol-Kelvin
 Total                  163.313             58.524            134.539
 Electronic               0.000              0.000              0.000
 Translational            0.889              2.981             42.150
 Rotational               0.889              2.981             33.183
 Vibrational            161.535             52.562             59.206
 Vibration     1          0.593              1.986              6.721
 Vibration     2          0.594              1.984              5.767
 Vibration     3          0.594              1.983              5.616
 Vibration     4          0.596              1.977              4.730
 Vibration     5          0.597              1.971              4.290
 Vibration     6          0.598              1.968              4.139
 Vibration     7          0.610              1.929              3.034
 Vibration     8          0.612              1.923              2.946
 Vibration     9          0.621              1.893              2.563
 Vibration    10          0.634              1.851              2.207
 Vibration    11          0.661              1.767              1.751
 Vibration    12          0.675              1.724              1.581
 Vibration    13          0.695              1.665              1.392
 Vibration    14          0.708              1.630              1.296
 Vibration    15          0.712              1.618              1.265
 Vibration    16          0.724              1.585              1.188
 Vibration    17          0.750              1.512              1.037
 Vibration    18          0.789              1.410              0.867
 Vibration    19          0.848              1.267              0.678
 Vibration    20          0.916              1.117              0.523
 Vibration    21          0.922              1.104              0.511
 Vibration    22          0.951              1.046              0.461
 Vibration    23          0.972              1.006              0.429

 Optimization completed.
    -- Stationary point found.
 Normal termination of Gaussian 09 at Wed Jul 28 23:28:21 2021.
