 Gaussian 09, Revision D.01,
 Gaussian 09:  ES64L-G09RevD.01 24-Apr-2013

 ----------------------------------------------------------------------
 # B3LYP/6-311G(d,p) EmpiricalDispersion=GD3BJ opt=calcfc freq=noraman
 nosymm integral(ultrafinegrid)
 ----------------------------------------------------------------------

 ------------------------------------------------------------
 Candidate Structure: Conf:580 OPT and FREQ calc in gas phase
 ------------------------------------------------------------
 Symbolic Z-matrix:
 Charge =  1 Multiplicity = 1

 SCF Done:  E(RB3LYP) =  -796.721367668     A.U. after   17 cycles
 SCF Done:  E(RB3LYP) =  -796.727292432     A.U. after   14 cycles
 SCF Done:  E(RB3LYP) =  -796.727717633     A.U. after   14 cycles
 SCF Done:  E(RB3LYP) =  -796.728705360     A.U. after   14 cycles
 SCF Done:  E(RB3LYP) =  -796.728407854     A.U. after   13 cycles
 SCF Done:  E(RB3LYP) =  -796.728869446     A.U. after   12 cycles
 SCF Done:  E(RB3LYP) =  -796.728880440     A.U. after   10 cycles
 SCF Done:  E(RB3LYP) =  -796.728882390     A.U. after    9 cycles
 SCF Done:  E(RB3LYP) =  -796.728883035     A.U. after    8 cycles
 SCF Done:  E(RB3LYP) =  -796.728883136     A.U. after    7 cycles
 SCF Done:  E(RB3LYP) =  -796.728883151     A.U. after    7 cycles
 Optimization completed.
    -- Stationary point found.
 Normal termination of Gaussian 09 at Sat Jul 24 01:32:24 2021.

 ----------------------------------------------------------------------
 #N Geom=AllCheck Guess=TCheck SCRF=Check GenChk RB3LYP/6-311G(d,p) Fre
 q
 ----------------------------------------------------------------------

 Structure from the checkpoint file:  "conf-580.chk"
 ------------------------------------------------------------
 Candidate Structure: Conf:580 OPT and FREQ calc in gas phase
 ------------------------------------------------------------
 Charge =  1 Multiplicity = 1

                          Input orientation:
 ---------------------------------------------------------------------
 Center     Atomic      Atomic             Coordinates (Angstroms)
 Number     Number       Type             X           Y           Z
 ---------------------------------------------------------------------
      1          8           0        1.356930    0.308710   -1.251139
      2          6           0        1.482723    0.340291   -0.036023
      3          7           0        0.469563    0.401932    0.839549
      4          6           0       -0.928096    0.391792    0.425580
      5          6           0       -1.722936    0.929243    1.604891
      6          8           0       -2.898794    1.426674    1.230022
      7          8           0       -1.320742    0.878565    2.742498
      8          6           0       -1.383213   -1.051162    0.050821
      9          6           0       -2.815171   -1.168926   -0.328648
     10          6           0       -3.895871   -1.681340    0.345497
     11          7           0       -5.052389   -1.511437   -0.378547
     12          6           0       -4.690041   -0.901818   -1.481739
     13          7           0       -3.342212   -0.666070   -1.505576
     14          6           0        2.891760    0.290042    0.593480
     15          6           0        3.867930    0.862548   -0.420148
     16          7           0        5.304643    0.477055   -0.087021
     17          1           0        0.618910    0.429738    1.841410
     18          1           0       -1.052233    1.050367   -0.434530
     19          1           0       -3.400118    1.668595    2.025075
     20          1           0       -1.194616   -1.695491    0.912643
     21          1           0       -0.724706   -1.382029   -0.757493
     22          1           0       -3.899796   -2.164868    1.310685
     23          1           0       -5.341836   -0.614322   -2.292126
     24          1           0       -2.825165   -0.239952   -2.258397
     25          1           0        3.115498   -0.765108    0.791794
     26          1           0        2.925954    0.826454    1.544708
     27          1           0        3.647218    0.470072   -1.411709
     28          1           0        3.842264    1.950971   -0.456589
     29          1           0        5.960418    0.857072   -0.776302
     30          1           0        5.586332    0.823796    0.834653
     31          1           0        5.417985   -0.541241   -0.080126
 ---------------------------------------------------------------------

 SCF Done:  E(RB3LYP) =  -796.728883151     A.U. after    1 cycles

 Alpha  occ. eigenvalues --  -19.27311 -19.22258 -19.22000 -14.64162 -14.46983
 Alpha  occ. eigenvalues --  -14.44022 -14.35564 -10.41644 -10.41603 -10.41396
 Alpha  occ. eigenvalues --  -10.35788 -10.34183 -10.29185 -10.29010 -10.28079
 Alpha  occ. eigenvalues --  -10.25188  -1.22256  -1.20737  -1.18127  -1.13528
 Alpha  occ. eigenvalues --   -1.08841  -1.06414  -0.96872  -0.94528  -0.90831
 Alpha  occ. eigenvalues --   -0.85416  -0.82867  -0.79253  -0.78673  -0.77450
 Alpha  occ. eigenvalues --   -0.74004  -0.71308  -0.69473  -0.68799  -0.66690
 Alpha  occ. eigenvalues --   -0.65471  -0.64150  -0.62063  -0.60765  -0.59790
 Alpha  occ. eigenvalues --   -0.58702  -0.58038  -0.57238  -0.55717  -0.54111
 Alpha  occ. eigenvalues --   -0.53543  -0.52589  -0.51189  -0.50673  -0.49687
 Alpha  occ. eigenvalues --   -0.48420  -0.48070  -0.47248  -0.43238  -0.40491
 Alpha  occ. eigenvalues --   -0.39685  -0.39158  -0.35511  -0.33663  -0.30230
 Alpha virt. eigenvalues --   -0.18977  -0.13379  -0.12328  -0.11787  -0.10388
 Alpha virt. eigenvalues --   -0.10048  -0.07286  -0.06235  -0.05428  -0.04778
 Alpha virt. eigenvalues --   -0.04250  -0.03927  -0.02068  -0.01900  -0.01084

 Mulliken charges:
               1
     1  O   -0.379619
     2  C    0.400086
     3  N   -0.412448
     4  C   -0.060768
     5  C    0.393128
     6  O   -0.287060
     7  O   -0.343297
     8  C   -0.177135
     9  C    0.075084
    10  C   -0.053873
    11  N   -0.286085
    12  C    0.162155
    13  N   -0.370900
    14  C   -0.286014
    15  C   -0.134933
    16  N   -0.331271
    17  H    0.248676
    18  H    0.170954
    19  H    0.276795
    20  H    0.137966
    21  H    0.155044
    22  H    0.104077
    23  H    0.123315
    24  H    0.231095
    25  H    0.160731
    26  H    0.159676
    27  H    0.213361
    28  H    0.192556
    29  H    0.311469
    30  H    0.303015
    31  H    0.304218
 Sum of Mulliken charges =   1.00000

 Dipole moment (field-independent basis, Debye):
    X=             21.7984    Y=              3.7660    Z=              0.1130  Tot=             22.1216
 Quadrupole moment (field-independent basis, Debye-Ang):
   XX=             20.8054   YY=            -88.7512   ZZ=            -86.2165
   XY=             -0.0633   XZ=              5.0647   YZ=              0.1179

  Exact polarizability: 177.464   8.594  92.765   4.148  -3.270 122.929
 Approx polarizability: 219.883   4.980 140.664   3.913 -15.109 209.991

                      1                      2                      3
                      A                      A                      A
 Frequencies --     14.7181                25.1698                40.6858
 Red. masses --      5.2626                 3.9666                 2.0103
 Frc consts  --      0.0007                 0.0015                 0.0020
 IR Inten    --      0.8290                 4.1669                12.6647

                      4                      5                      6
                      A                      A                      A
 Frequencies --     52.4066                66.4657                72.3869
 Red. masses --      4.7200                 4.7574                 6.3698
 Frc consts  --      0.0076                 0.0124                 0.0197
 IR Inten    --      6.5283                 4.3569                 6.5301

                      7                      8                      9
                      A                      A                      A
 Frequencies --     77.9908               103.9787               115.7278
 Red. masses --      6.3072                 3.9868                 4.4651
 Frc consts  --      0.0226                 0.0254                 0.0352
 IR Inten    --      6.4579                 2.8942                 9.7925

                     10                     11                     12
                      A                      A                      A
 Frequencies --    180.2656               217.0221               241.0814
 Red. masses --      5.1885                 2.0036                 1.5622
 Frc consts  --      0.0993                 0.0556                 0.0535
 IR Inten    --      5.2849                10.3760                 2.8013

                     13                     14                     15
                      A                      A                      A
 Frequencies --    264.5396               320.3481               332.5663
 Red. masses --      5.4828                 6.1943                 2.1509
 Frc consts  --      0.2261                 0.3745                 0.1402
 IR Inten    --     10.2712                 7.9041                 5.0835

                     16                     17                     18
                      A                      A                      A
 Frequencies --    343.0639               368.6443               389.5860
 Red. masses --      6.5938                 3.7287                 3.8292
 Frc consts  --      0.4572                 0.2986                 0.3424
 IR Inten    --     11.9222                 8.1890                 6.1638

                     19                     20                     21
                      A                      A                      A
 Frequencies --    518.5744               534.8252               561.3394
 Red. masses --      1.4012                 3.3395                 1.9744
 Frc consts  --      0.2220                 0.5628                 0.3665
 IR Inten    --     70.0336                60.6220                17.6852

                     22                     23                     24
                      A                      A                      A
 Frequencies --    610.5540               631.6215               654.9716
 Red. masses --      1.2534                 4.0843                 1.6339
 Frc consts  --      0.2753                 0.9600                 0.4130
 IR Inten    --    116.5264                10.1772                28.1920

                     25                     26                     27
                      A                      A                      A
 Frequencies --    666.1299               679.1839               716.4445
 Red. masses --      2.6655                 3.0498                 3.5167
 Frc consts  --      0.6969                 0.8289                 1.0635
 IR Inten    --     30.8797                10.4606                 1.2689

                     28                     29                     30
                      A                      A                      A
 Frequencies --    752.4834               772.7666               796.7324
 Red. masses --      3.4779                 3.4967                 1.4454
 Frc consts  --      1.1603                 1.2303                 0.5406
 IR Inten    --     17.3913                13.1305                16.7259

                     31                     32                     33
                      A                      A                      A
 Frequencies --    819.4666               825.7736               855.1485
 Red. masses --      2.2413                 1.4233                 1.4642
 Frc consts  --      0.8868                 0.5718                 0.6308
 IR Inten    --      7.2737                17.7356                17.7870

                     34                     35                     36
                      A                      A                      A
 Frequencies --    886.5873               919.7715               935.0397
 Red. masses --      2.6223                 1.3110                 3.7868
 Frc consts  --      1.2144                 0.6534                 1.9507
 IR Inten    --     35.9338                 4.0263                11.0811

                     37                     38                     39
                      A                      A                      A
 Frequencies --    941.0708               986.6411               997.6621
 Red. masses --      5.5952                 2.1146                 3.4266
 Frc consts  --      2.9195                 1.2128                 2.0095
 IR Inten    --     24.0213                11.2252                26.6741

                     40                     41                     42
                      A                      A                      A
 Frequencies --   1026.1655              1034.4221              1084.9869
 Red. masses --      3.1032                 3.1452                 2.1205
 Frc consts  --      1.9253                 1.9829                 1.4708
 IR Inten    --     25.9419                 5.4999                26.1379

                     43                     44                     45
                      A                      A                      A
 Frequencies --   1104.9416              1110.4794              1146.2556
 Red. masses --      1.6421                 2.0183                 2.1331
 Frc consts  --      1.1812                 1.4664                 1.6513
 IR Inten    --     17.3704                30.3231                15.4444

                     46                     47                     48
                      A                      A                      A
 Frequencies --   1150.2563              1169.0943              1200.9141
 Red. masses --      2.2896                 1.5450                 1.9734
 Frc consts  --      1.7848                 1.2442                 1.6769
 IR Inten    --     17.2600                34.4090               125.9956

                     49                     50                     51
                      A                      A                      A
 Frequencies --   1236.3237              1263.2064              1274.0485
 Red. masses --      1.4977                 2.3679                 1.3813
 Frc consts  --      1.3487                 2.2262                 1.3210
 IR Inten    --     10.6539                 9.7155                 3.9039

                     52                     53                     54
                      A                      A                      A
 Frequencies --   1288.4547              1296.8929              1324.7595
 Red. masses --      1.2921                 1.3553                 1.3088
 Frc consts  --      1.2638                 1.3431                 1.3534
 IR Inten    --      1.5757                 5.8030                19.4347

                     55                     56                     57
                      A                      A                      A
 Frequencies --   1328.3601              1351.6399              1362.4856
 Red. masses --      1.4101                 1.2722                 1.4051
 Frc consts  --      1.4660                 1.3694                 1.5368
 IR Inten    --      1.1366                 4.4700                17.9646

                     58                     59                     60
                      A                      A                      A
 Frequencies --   1391.3389              1406.1095              1430.3879
 Red. masses --      3.2729                 1.3345                 2.8351
 Frc consts  --      3.7329                 1.5545                 3.4176
 IR Inten    --      5.4950                22.5104                42.8638

                     61                     62                     63
                      A                      A                      A
 Frequencies --   1437.8736              1479.3828              1484.3437
 Red. masses --      2.8688                 1.1160                 1.1552
 Frc consts  --      3.4946                 1.4391                 1.4996
 IR Inten    --    163.5050                 1.3656                11.5347

                     64                     65                     66
                      A                      A                      A
 Frequencies --   1498.8543              1508.6563              1517.7033
 Red. masses --      3.3216                 1.0726                 1.1767
 Frc consts  --      4.3967                 1.4383                 1.5969
 IR Inten    --     27.8171                16.1565               180.6652

                     67                     68                     69
                      A                      A                      A
 Frequencies --   1549.9175              1612.7162              1665.0172
 Red. masses --      2.3657                 4.5831                 1.0423
 Frc consts  --      3.3484                 7.0231                 1.7025
 IR Inten    --    302.2135                 5.5763                48.5244

                     70                     71                     72
                      A                      A                      A
 Frequencies --   1668.9385              1754.8565              1814.0822
 Red. masses --      1.0436                10.1592                 9.7701
 Frc consts  --      1.7127                18.4329                18.9436
 IR Inten    --     39.4401               319.7736               261.9983

                     73                     74                     75
                      A                      A                      A
 Frequencies --   3025.6636              3041.6350              3086.3006
 Red. masses --      1.0640                 1.0609                 1.0993
 Frc consts  --      5.7392                 5.7828                 6.1693
 IR Inten    --      4.1197                14.8072                 7.6174

                     76                     77                     78
                      A                      A                      A
 Frequencies --   3086.5732              3097.8447              3103.4417
 Red. masses --      1.0974                 1.0594                 1.0907
 Frc consts  --      6.1599                 5.9899                 6.1891
 IR Inten    --      1.9224                 5.3815                 5.8535

                     79                     80                     81
                      A                      A                      A
 Frequencies --   3157.6190              3229.3114              3244.7964
 Red. masses --      1.1118                 1.0969                 1.0986
 Frc consts  --      6.5313                 6.7397                 6.8152
 IR Inten    --      3.3584                 4.7814                 0.6913

                     82                     83                     84
                      A                      A                      A
 Frequencies --   3398.7801              3476.6927              3478.8279
 Red. masses --      1.0300                 1.0932                 1.0934
 Frc consts  --      7.0100                 7.7851                 7.7968
 IR Inten    --     53.5801                89.1852                89.0100

                     85                     86                     87
                      A                      A                      A
 Frequencies --   3560.3055              3646.1365              3741.8066
 Red. masses --      1.0783                 1.0812                 1.0645
 Frc consts  --      8.0534                 8.4692                 8.7809
 IR Inten    --    106.5207                46.0799               106.1602

 - Thermochemistry -
 -------------------
 Temperature   298.150 Kelvin.  Pressure   1.00000 Atm.
 Atom     1 has atomic number  8 and mass  15.99491

 Molecular mass:   227.11442 amu.
 Principal axes and moments of inertia in atomic units:
                           1         2         3
     Eigenvalues --  1610.500838116.763529087.42359
           X            0.98473  -0.10232  -0.14085
           Y            0.17225   0.45543   0.87345
           Z            0.02523   0.88437  -0.46610
 This molecule is an asymmetric top.
 Rotational symmetry number  1.
 Warning -- assumption of classical behavior for rotation
           may cause significant error
 Rotational temperatures (Kelvin)      0.05378     0.01067     0.00953
 Rotational constants (GHZ):           1.12061     0.22235     0.19860
 Zero-point vibrational energy     679712.4 (Joules/Mol)
                                  162.45516 (Kcal/Mol)
 Warning -- explicit consideration of  22 degrees of freedom as
           vibrations may cause significant error
 Vibrational temperatures:     21.18    36.21    58.54    75.40    95.63
          (Kelvin)            104.15   112.21   149.60   166.51   259.36
                              312.25   346.86   380.61   460.91   478.49
                              493.59   530.40   560.53   746.11   769.49
                              807.64   878.45   908.76   942.36   958.41
                              977.19  1030.80  1082.65  1111.84  1146.32
                             1179.03  1188.10  1230.37  1275.60  1323.34
                             1345.31  1353.99  1419.55  1435.41  1476.42
                             1488.30  1561.05  1589.76  1597.73  1649.20
                             1654.96  1682.06  1727.85  1778.79  1817.47
                             1833.07  1853.80  1865.94  1906.03  1911.21
                             1944.71  1960.31  2001.82  2023.08  2058.01
                             2068.78  2128.50  2135.64  2156.51  2170.62
                             2183.63  2229.98  2320.34  2395.59  2401.23
                             2524.84  2610.06  4353.25  4376.23  4440.49
                             4440.88  4457.10  4465.15  4543.10  4646.25
                             4668.53  4890.08  5002.18  5005.25  5122.48
                             5245.97  5383.62

 Zero-point correction=                           0.258889 (Hartree/Particle)
 Thermal correction to Energy=                    0.275409
 Thermal correction to Enthalpy=                  0.276353
 Thermal correction to Gibbs Free Energy=         0.210854
 Sum of electronic and zero-point Energies=           -796.469994
 Sum of electronic and thermal Energies=              -796.453474
 Sum of electronic and thermal Enthalpies=            -796.452530
 Sum of electronic and thermal Free Energies=         -796.518029

                     E (Thermal)             CV                S
                      KCal/Mol        Cal/Mol-Kelvin    Cal/Mol-Kelvin
 Total                  172.822             59.032            137.854
 Electronic               0.000              0.000              0.000
 Translational            0.889              2.981             42.163
 Rotational               0.889              2.981             33.140
 Vibrational            171.044             53.070             62.551
 Vibration     1          0.593              1.986              7.243
 Vibration     2          0.593              1.985              6.178
 Vibration     3          0.594              1.981              5.225
 Vibration     4          0.596              1.977              4.724
 Vibration     5          0.598              1.970              4.255
 Vibration     6          0.598              1.967              4.087
 Vibration     7          0.599              1.964              3.941
 Vibration     8          0.605              1.946              3.378
 Vibration     9          0.608              1.936              3.171
 Vibration    10          0.629              1.866              2.326
 Vibration    11          0.646              1.815              1.984
 Vibration    12          0.658              1.777              1.795
 Vibration    13          0.671              1.738              1.632
 Vibration    14          0.706              1.635              1.308
 Vibration    15          0.715              1.610              1.248
 Vibration    16          0.722              1.589              1.198
 Vibration    17          0.741              1.537              1.085
 Vibration    18          0.758              1.492              1.002
 Vibration    19          0.874              1.209              0.613
 Vibration    20          0.890              1.173              0.577
 Vibration    21          0.917              1.115              0.521
 Vibration    22          0.970              1.009              0.432

 Normal termination of Gaussian 09 at Sat Jul 24 02:04:18 2021.
