 Gaussian 09, Revision D.01,
 Gaussian 09:  ES64L-G09RevD.01 24-Apr-2013

 ----------------------------------------------------------------------
 # B3LYP/6-311G(d,p) EmpiricalDispersion=GD3BJ opt=calcfc freq=noraman
 nosymm integral(ultrafinegrid)
 ----------------------------------------------------------------------

 ------------------------------------------------------------
 Candidate Structure: Conf:214 OPT and FREQ calc in gas phase
 ------------------------------------------------------------
 Symbolic Z-matrix:
 Charge =  1 Multiplicity = 1

 SCF Done:  E(RB3LYP) =  -796.714441803     A.U. after   16 cycles
 SCF Done:  E(RB3LYP) =  -796.719768282     A.U. after   13 cycles
 SCF Done:  E(RB3LYP) =  -796.720717293     A.U. after   12 cycles
 SCF Done:  E(RB3LYP) =  -796.720980697     A.U. after   12 cycles
 SCF Done:  E(RB3LYP) =  -796.720753462     A.U. after   14 cycles
 SCF Done:  E(RB3LYP) =  -796.667735666     A.U. after   14 cycles
 SCF Done:  E(RB3LYP) =  -796.721025075     A.U. after    9 cycles
 SCF Done:  E(RB3LYP) =  -796.721066694     A.U. after   11 cycles
 SCF Done:  E(RB3LYP) =  -796.721105514     A.U. after   11 cycles
 SCF Done:  E(RB3LYP) =  -796.722151097     A.U. after   15 cycles
 SCF Done:  E(RB3LYP) =  -796.758778926     A.U. after   11 cycles
 SCF Done:  E(RB3LYP) =  -796.758895568     A.U. after   10 cycles
 SCF Done:  E(RB3LYP) =  -796.758947108     A.U. after   11 cycles
 SCF Done:  E(RB3LYP) =  -796.758972392     A.U. after   10 cycles
 SCF Done:  E(RB3LYP) =  -796.758982362     A.U. after   10 cycles
 SCF Done:  E(RB3LYP) =  -796.758985368     A.U. after    9 cycles
 SCF Done:  E(RB3LYP) =  -796.758985744     A.U. after    7 cycles
 SCF Done:  E(RB3LYP) =  -796.758985911     A.U. after    7 cycles
 SCF Done:  E(RB3LYP) =  -796.758985991     A.U. after    7 cycles
 Optimization completed.
    -- Stationary point found.
 Normal termination of Gaussian 09 at Sat Jul 24 03:51:00 2021.

 ----------------------------------------------------------------------
 #N Geom=AllCheck Guess=TCheck SCRF=Check GenChk RB3LYP/6-311G(d,p) Fre
 q
 ----------------------------------------------------------------------

 Structure from the checkpoint file:  "conf-214.chk"
 ------------------------------------------------------------
 Candidate Structure: Conf:214 OPT and FREQ calc in gas phase
 ------------------------------------------------------------
 Charge =  1 Multiplicity = 1

                          Input orientation:
 ---------------------------------------------------------------------
 Center     Atomic      Atomic             Coordinates (Angstroms)
 Number     Number       Type             X           Y           Z
 ---------------------------------------------------------------------
      1          8           0       -1.312972   -1.577737   -0.785633
      2          6           0       -1.108373   -0.946595    0.236052
      3          7           0       -0.012303   -1.120251    1.016075
      4          6           0        1.143096   -1.882951    0.576861
      5          6           0        2.202015   -1.742682    1.669525
      6          8           0        3.089850   -2.731745    1.786354
      7          8           0        2.293764   -0.739350    2.332648
      8          6           0        1.777261   -1.325185   -0.763197
      9          6           0        1.495260    0.129975   -0.886978
     10          6           0        0.503117    0.738715   -1.606003
     11          7           0        0.293573    2.022205   -1.143317
     12          6           0        1.179757    2.208840   -0.173019
     13          7           0        1.929360    1.096490    0.004544
     14          6           0       -2.113479    0.099209    0.747004
     15          6           0       -2.891594    0.747048   -0.401432
     16          7           0       -2.379741    2.126096   -0.761599
     17          1           0        0.171632   -0.486536    1.782867
     18          1           0        0.862893   -2.926879    0.419763
     19          1           0        2.850583   -3.497226    1.247497
     20          1           0        2.843921   -1.562836   -0.786232
     21          1           0        1.305847   -1.830005   -1.604201
     22          1           0       -0.105233    0.301206   -2.379894
     23          1           0        1.314988    3.112184    0.399873
     24          1           0        2.604690    0.952833    0.744347
     25          1           0       -1.629202    0.846234    1.382213
     26          1           0       -2.823383   -0.433209    1.385590
     27          1           0       -3.946195    0.863542   -0.157296
     28          1           0       -2.803661    0.120048   -1.288770
     29          1           0       -1.302911    2.174228   -0.962119
     30          1           0       -2.859692    2.474175   -1.593678
     31          1           0       -2.572883    2.790266   -0.010033
 ---------------------------------------------------------------------

 SCF Done:  E(RB3LYP) =  -796.758985991     A.U. after    1 cycles

 Alpha  occ. eigenvalues --  -19.30098 -19.24358 -19.22228 -14.56819 -14.50919
 Alpha  occ. eigenvalues --  -14.47455 -14.45292 -10.44257 -10.41287 -10.38374
 Alpha  occ. eigenvalues --  -10.37467 -10.37138 -10.34585 -10.33947 -10.32700
 Alpha  occ. eigenvalues --  -10.32393  -1.24628  -1.18304  -1.16704  -1.16394
 Alpha  occ. eigenvalues --   -1.14069  -1.07119  -1.02303  -0.94842  -0.93033
 Alpha  occ. eigenvalues --   -0.88577  -0.82826  -0.80338  -0.76798  -0.75967
 Alpha  occ. eigenvalues --   -0.74082  -0.73273  -0.72506  -0.71430  -0.68956
 Alpha  occ. eigenvalues --   -0.67830  -0.65221  -0.63247  -0.63155  -0.61154
 Alpha  occ. eigenvalues --   -0.60025  -0.58841  -0.58633  -0.58058  -0.56378
 Alpha  occ. eigenvalues --   -0.55960  -0.55218  -0.54194  -0.53670  -0.53086
 Alpha  occ. eigenvalues --   -0.52292  -0.51105  -0.49822  -0.45974  -0.44830
 Alpha  occ. eigenvalues --   -0.43432  -0.41860  -0.40305  -0.39797  -0.37242
 Alpha virt. eigenvalues --   -0.14274  -0.13991  -0.12893  -0.12504  -0.10306
 Alpha virt. eigenvalues --   -0.09353  -0.08905  -0.07909  -0.06592  -0.05607
 Alpha virt. eigenvalues --   -0.04409  -0.03916  -0.03805  -0.02498  -0.01769

 Mulliken charges:
               1
     1  O   -0.363068
     2  C    0.362831
     3  N   -0.392601
     4  C   -0.114250
     5  C    0.416048
     6  O   -0.261977
     7  O   -0.345281
     8  C   -0.204944
     9  C    0.096799
    10  C   -0.025837
    11  N   -0.414554
    12  C    0.188102
    13  N   -0.329474
    14  C   -0.259378
    15  C   -0.144204
    16  N   -0.358738
    17  H    0.245823
    18  H    0.174856
    19  H    0.269575
    20  H    0.164655
    21  H    0.178356
    22  H    0.138807
    23  H    0.149803
    24  H    0.268274
    25  H    0.129941
    26  H    0.193234
    27  H    0.175316
    28  H    0.195049
    29  H    0.305935
    30  H    0.286654
    31  H    0.274247
 Sum of Mulliken charges =   1.00000

 Dipole moment (field-independent basis, Debye):
    X=             -4.4559    Y=              3.8800    Z=             -0.4064  Tot=              5.9224
 Quadrupole moment (field-independent basis, Debye-Ang):
   XX=            -60.1215   YY=            -60.2595   ZZ=            -93.1025
   XY=            -24.8101   XZ=             -0.7213   YZ=             -2.8276

  Exact polarizability: 132.457 -19.623 132.542  14.839   0.889 107.657
 Approx polarizability: 186.123 -20.667 204.821  29.793  21.911 183.711

                      1                      2                      3
                      A                      A                      A
 Frequencies --     49.4535                67.7936                83.1620
 Red. masses --      5.6501                 3.8627                 4.6980
 Frc consts  --      0.0081                 0.0105                 0.0191
 IR Inten    --      4.4664                10.0149                 0.0689

                      4                      5                      6
                      A                      A                      A
 Frequencies --    102.7297               113.4738               126.1233
 Red. masses --      4.6647                 4.9730                 3.9050
 Frc consts  --      0.0290                 0.0377                 0.0366
 IR Inten    --     12.3047                 8.1083                26.1035

                      7                      8                      9
                      A                      A                      A
 Frequencies --    134.1413               152.1467               194.0759
 Red. masses --      4.6540                 6.8613                 4.8066
 Frc consts  --      0.0493                 0.0936                 0.1067
 IR Inten    --      3.5268                 7.1388                 3.6524

                     10                     11                     12
                      A                      A                      A
 Frequencies --    253.9709               267.4879               297.3601
 Red. masses --      2.7909                 4.7841                 4.8867
 Frc consts  --      0.1061                 0.2017                 0.2546
 IR Inten    --     50.6860                48.2069                 7.8538

                     13                     14                     15
                      A                      A                      A
 Frequencies --    324.8015               334.2108               349.2948
 Red. masses --      3.5766                 2.5254                 4.1823
 Frc consts  --      0.2223                 0.1662                 0.3006
 IR Inten    --      5.6068                 7.3040                18.2461

                     16                     17                     18
                      A                      A                      A
 Frequencies --    397.3093               439.1438               474.3698
 Red. masses --      2.2480                 2.0904                 1.6507
 Frc consts  --      0.2091                 0.2375                 0.2189
 IR Inten    --     16.1291                11.2876                 8.9173

                     19                     20                     21
                      A                      A                      A
 Frequencies --    516.7329               521.2093               582.1339
 Red. masses --      1.9004                 1.4033                 1.9946
 Frc consts  --      0.2990                 0.2246                 0.3983
 IR Inten    --      1.1403               133.0731                91.9290

                     22                     23                     24
                      A                      A                      A
 Frequencies --    626.1106               643.2162               645.5628
 Red. masses --      1.8903                 4.5371                 1.7877
 Frc consts  --      0.4366                 1.1060                 0.4390
 IR Inten    --     76.2534                14.2289                12.1312

                     25                     26                     27
                      A                      A                      A
 Frequencies --    691.5368               694.8186               704.6336
 Red. masses --      3.5961                 2.2124                 3.7320
 Frc consts  --      1.0133                 0.6293                 1.0917
 IR Inten    --     40.2112                 2.4294                 4.9628

                     28                     29                     30
                      A                      A                      A
 Frequencies --    740.4698               781.1343               826.8218
 Red. masses --      4.2652                 3.9264                 1.7620
 Frc consts  --      1.3779                 1.4116                 0.7097
 IR Inten    --      0.9397                 1.4561                 3.8739

                     31                     32                     33
                      A                      A                      A
 Frequencies --    834.6736               846.6413               861.2007
 Red. masses --      1.6208                 2.6235                 1.9838
 Frc consts  --      0.6653                 1.1080                 0.8669
 IR Inten    --     33.7738                 7.2409                16.1524

                     34                     35                     36
                      A                      A                      A
 Frequencies --    898.0174               923.0046               935.2682
 Red. masses --      3.3194                 2.2391                 1.9581
 Frc consts  --      1.5772                 1.1239                 1.0091
 IR Inten    --      6.3274                 7.6151                10.1967

                     37                     38                     39
                      A                      A                      A
 Frequencies --    967.3075               970.0968              1009.4306
 Red. masses --      2.0459                 5.5187                 2.8510
 Frc consts  --      1.1279                 3.0600                 1.7116
 IR Inten    --      0.7250                19.8778                 0.8853

                     40                     41                     42
                      A                      A                      A
 Frequencies --   1028.2703              1042.9756              1104.7780
 Red. masses --      2.7137                 2.9802                 2.6987
 Frc consts  --      1.6905                 1.9100                 1.9407
 IR Inten    --     19.5405                 2.5835                14.9220

                     43                     44                     45
                      A                      A                      A
 Frequencies --   1130.8757              1141.0708              1154.4383
 Red. masses --      1.3990                 1.8724                 1.7505
 Frc consts  --      1.0542                 1.4364                 1.3745
 IR Inten    --      6.3046                34.4588                 2.1499

                     46                     47                     48
                      A                      A                      A
 Frequencies --   1161.1922              1165.5617              1199.1146
 Red. masses --      1.5057                 1.4295                 1.5580
 Frc consts  --      1.1962                 1.1442                 1.3199
 IR Inten    --     17.5627                 4.7909                 8.3162

                     49                     50                     51
                      A                      A                      A
 Frequencies --   1231.8330              1256.1580              1267.0864
 Red. masses --      1.6249                 1.3148                 1.9929
 Frc consts  --      1.4527                 1.2223                 1.8852
 IR Inten    --     48.0599                61.1647                38.9532

                     52                     53                     54
                      A                      A                      A
 Frequencies --   1279.0367              1291.5609              1305.8836
 Red. masses --      1.3410                 1.5269                 1.7354
 Frc consts  --      1.2925                 1.5006                 1.7437
 IR Inten    --     49.0917                22.9101               174.0240

                     55                     56                     57
                      A                      A                      A
 Frequencies --   1338.2009              1362.0867              1368.5370
 Red. masses --      1.2396                 1.5599                 1.5929
 Frc consts  --      1.3079                 1.7051                 1.7577
 IR Inten    --      7.3213                 1.6032               115.8075

                     58                     59                     60
                      A                      A                      A
 Frequencies --   1380.6245              1404.4927              1416.6998
 Red. masses --      3.2894                 2.0217                 1.4332
 Frc consts  --      3.6942                 2.3497                 1.6947
 IR Inten    --     80.7061               177.3006                17.1862

                     61                     62                     63
                      A                      A                      A
 Frequencies --   1449.7956              1461.1730              1486.6105
 Red. masses --      2.2037                 1.0864                 1.2881
 Frc consts  --      2.7290                 1.3666                 1.6773
 IR Inten    --     23.5688                16.9897                17.0936

                     64                     65                     66
                      A                      A                      A
 Frequencies --   1507.8472              1515.3381              1540.1241
 Red. masses --      1.6083                 1.3687                 1.9889
 Frc consts  --      2.1545                 1.8517                 2.7795
 IR Inten    --     20.8545                37.9725               207.1259

                     67                     68                     69
                      A                      A                      A
 Frequencies --   1592.1271              1628.6268              1666.8189
 Red. masses --      1.1501                 4.1354                 1.0345
 Frc consts  --      1.7177                 6.4626                 1.6934
 IR Inten    --     79.8543                26.3437                20.7759

                     70                     71                     72
                      A                      A                      A
 Frequencies --   1712.3474              1761.9128              1823.6049
 Red. masses --      1.0473                 9.4636                 9.1849
 Frc consts  --      1.8094                17.3091                17.9964
 IR Inten    --     29.4153               213.5682               145.7982

                     73                     74                     75
                      A                      A                      A
 Frequencies --   2255.0792              3048.8361              3059.5314
 Red. masses --      1.1169                 1.0620                 1.0685
 Frc consts  --      3.3464                 5.8164                 5.8929
 IR Inten    --   2166.6538                 6.2934                 7.8891

                     76                     77                     78
                      A                      A                      A
 Frequencies --   3070.8057              3084.3879              3093.2910
 Red. masses --      1.0861                 1.0808                 1.0802
 Frc consts  --      6.0345                 6.0580                 6.0898
 IR Inten    --     16.8739                 6.9106                 5.3279

                     79                     80                     81
                      A                      A                      A
 Frequencies --   3134.5836              3141.1314              3256.6430
 Red. masses --      1.0969                 1.1099                 1.0966
 Frc consts  --      6.3502                 6.4519                 6.8525
 IR Inten    --      0.2873                 1.1521                 2.4841

                     82                     83                     84
                      A                      A                      A
 Frequencies --   3260.7153              3450.6583              3508.7067
 Red. masses --      1.1022                 1.0519                 1.0926
 Frc consts  --      6.9046                 7.3795                 7.9252
 IR Inten    --      2.3669                63.9134                55.2270

                     85                     86                     87
                      A                      A                      A
 Frequencies --   3578.9772              3601.7800              3793.1942
 Red. masses --      1.0775                 1.0828                 1.0664
 Frc consts  --      8.1314                 8.2765                 9.0404
 IR Inten    --     55.7645               141.7401                87.8734

 - Thermochemistry -
 -------------------
 Temperature   298.150 Kelvin.  Pressure   1.00000 Atm.
 Atom     1 has atomic number  8 and mass  15.99491

 Molecular mass:   227.11442 amu.
 Principal axes and moments of inertia in atomic units:
                           1         2         3
     Eigenvalues --  2044.968384384.166265214.37783
           X            0.75481   0.64430  -0.12304
           Y           -0.54608   0.72115   0.42632
           Z            0.36341  -0.25460   0.89617
 This molecule is an asymmetric top.
 Rotational symmetry number  1.
 Warning -- assumption of classical behavior for rotation
           may cause significant error
 Rotational temperatures (Kelvin)      0.04235     0.01976     0.01661
 Rotational constants (GHZ):           0.88253     0.41165     0.34611
 Zero-point vibrational energy     681250.5 (Joules/Mol)
                                  162.82278 (Kcal/Mol)
 Warning -- explicit consideration of  21 degrees of freedom as
           vibrations may cause significant error
 Vibrational temperatures:     71.15    97.54   119.65   147.80   163.26
          (Kelvin)            181.46   193.00   218.90   279.23   365.41
                              384.85   427.83   467.32   480.85   502.56
                              571.64   631.83   682.51   743.46   749.90
                              837.56   900.83   925.44   928.82   994.97
                              999.69  1013.81  1065.37  1123.88  1189.61
                             1200.91  1218.13  1239.07  1292.05  1328.00
                             1345.64  1391.74  1395.75  1452.34  1479.45
                             1500.61  1589.53  1627.08  1641.74  1660.98
                             1670.69  1676.98  1725.26  1772.33  1807.33
                             1823.05  1840.25  1858.27  1878.87  1925.37
                             1959.74  1969.02  1986.41  2020.75  2038.31
                             2085.93  2102.30  2138.90  2169.45  2180.23
                             2215.89  2290.71  2343.23  2398.18  2463.68
                             2535.00  2623.76  3244.55  4386.59  4401.98
                             4418.20  4437.74  4450.55  4509.96  4519.38
                             4685.58  4691.44  4964.72  5048.24  5149.34
                             5182.15  5457.55

 Zero-point correction=                           0.259475 (Hartree/Particle)
 Thermal correction to Energy=                    0.274490
 Thermal correction to Enthalpy=                  0.275434
 Thermal correction to Gibbs Free Energy=         0.217393
 Sum of electronic and zero-point Energies=           -796.499511
 Sum of electronic and thermal Energies=              -796.484496
 Sum of electronic and thermal Enthalpies=            -796.483552
 Sum of electronic and thermal Free Energies=         -796.541593

                     E (Thermal)             CV                S
                      KCal/Mol        Cal/Mol-Kelvin    Cal/Mol-Kelvin
 Total                  172.245             57.450            122.159
 Electronic               0.000              0.000              0.000
 Translational            0.889              2.981             42.163
 Rotational               0.889              2.981             32.214
 Vibrational            170.468             51.489             47.782
 Vibration     1          0.595              1.978              4.839
 Vibration     2          0.598              1.970              4.216
 Vibration     3          0.600              1.961              3.815
 Vibration     4          0.605              1.947              3.402
 Vibration     5          0.607              1.938              3.209
 Vibration     6          0.611              1.927              3.004
 Vibration     7          0.613              1.919              2.886
 Vibration     8          0.619              1.900              2.645
 Vibration     9          0.635              1.848              2.189
 Vibration    10          0.665              1.756              1.703
 Vibration    11          0.673              1.733              1.612
 Vibration    12          0.691              1.679              1.432
 Vibration    13          0.709              1.626              1.286
 Vibration    14          0.716              1.607              1.240
 Vibration    15          0.727              1.577              1.169
 Vibration    16          0.764              1.476              0.973
 Vibration    17          0.799              1.385              0.829
 Vibration    18          0.831              1.307              0.725
 Vibration    19          0.872              1.213              0.618
 Vibration    20          0.876              1.203              0.607
 Vibration    21          0.939              1.070              0.481

 Optimization completed.
    -- Stationary point found.
 Normal termination of Gaussian 09 at Sat Jul 24 04:31:45 2021.
