 Gaussian 09, Revision D.01,
 Gaussian 09:  ES64L-G09RevD.01 24-Apr-2013

 ----------------------------------------------------------------------
 # B3LYP/6-311G(d,p) EmpiricalDispersion=GD3BJ opt=calcfc freq=noraman
 nosymm integral(ultrafinegrid)
 ----------------------------------------------------------------------

 ------------------------------------------------------------
 Candidate Structure: Conf:719 OPT and FREQ calc in gas phase
 ------------------------------------------------------------
 Symbolic Z-matrix:
 Charge =  1 Multiplicity = 1

 SCF Done:  E(RB3LYP) =  -796.718264795     A.U. after   17 cycles
 SCF Done:  E(RB3LYP) =  -796.725949372     A.U. after   14 cycles
 SCF Done:  E(RB3LYP) =  -796.726538403     A.U. after   14 cycles
 SCF Done:  E(RB3LYP) =  -796.728456879     A.U. after   12 cycles
 SCF Done:  E(RB3LYP) =  -796.728713005     A.U. after   11 cycles
 SCF Done:  E(RB3LYP) =  -796.728747394     A.U. after   10 cycles
 SCF Done:  E(RB3LYP) =  -796.728751830     A.U. after    9 cycles
 SCF Done:  E(RB3LYP) =  -796.728752398     A.U. after    8 cycles
 SCF Done:  E(RB3LYP) =  -796.728752614     A.U. after    8 cycles
 SCF Done:  E(RB3LYP) =  -796.728752645     A.U. after    7 cycles
 Optimization completed.
    -- Stationary point found.
 Normal termination of Gaussian 09 at Sat Jul 24 01:30:32 2021.

 ----------------------------------------------------------------------
 #N Geom=AllCheck Guess=TCheck SCRF=Check GenChk RB3LYP/6-311G(d,p) Fre
 q
 ----------------------------------------------------------------------

 Structure from the checkpoint file:  "conf-719.chk"
 ------------------------------------------------------------
 Candidate Structure: Conf:719 OPT and FREQ calc in gas phase
 ------------------------------------------------------------
 Charge =  1 Multiplicity = 1

                          Input orientation:
 ---------------------------------------------------------------------
 Center     Atomic      Atomic             Coordinates (Angstroms)
 Number     Number       Type             X           Y           Z
 ---------------------------------------------------------------------
      1          8           0       -0.930102    0.076367    1.290626
      2          6           0       -1.346236    0.222254    0.152711
      3          7           0       -0.572254    0.347795   -0.936933
      4          6           0        0.883597    0.366910   -0.850368
      5          6           0        1.363071    0.892428   -2.193667
      6          8           0        2.700458    0.981393   -2.268818
      7          8           0        0.627900    1.181317   -3.104450
      8          6           0        1.483433   -1.031216   -0.496592
      9          6           0        2.710053   -0.978911    0.345961
     10          6           0        2.887109   -1.266177    1.678217
     11          7           0        4.195985   -1.076674    2.051584
     12          6           0        4.814724   -0.674447    0.965612
     13          7           0        3.963384   -0.601671   -0.100774
     14          6           0       -2.867859    0.235638   -0.114228
     15          6           0       -3.548532    0.705974    1.160531
     16          7           0       -5.025918    0.331707    1.175888
     17          1           0       -0.959050    0.554108   -1.850051
     18          1           0        1.187062    1.067010   -0.066969
     19          1           0        2.920525    1.321221   -3.151041
     20          1           0        0.725342   -1.555700    0.083656
     21          1           0        1.638761   -1.605858   -1.415485
     22          1           0        2.139595   -1.601444    2.380746
     23          1           0        5.862085   -0.426857    0.887653
     24          1           0        4.173771   -0.263625   -1.025866
     25          1           0       -3.159428   -0.794602   -0.351426
     26          1           0       -3.122109    0.862938   -0.971885
     27          1           0       -3.503882    1.787311    1.284329
     28          1           0       -3.084227    0.231809    2.024197
     29          1           0       -5.146449   -0.683737    1.111660
     30          1           0       -5.477576    0.642759    2.041273
     31          1           0       -5.533016    0.752038    0.391620
 ---------------------------------------------------------------------

 SCF Done:  E(RB3LYP) =  -796.728752645     A.U. after    1 cycles

 Alpha  occ. eigenvalues --  -19.29057 -19.23464 -19.22187 -14.64007 -14.46881
 Alpha  occ. eigenvalues --  -14.43281 -14.35087 -10.42800 -10.41458 -10.41450
 Alpha  occ. eigenvalues --  -10.35678 -10.34553 -10.28861 -10.28672 -10.27581
 Alpha  occ. eigenvalues --  -10.24731  -1.23784  -1.20583  -1.18116  -1.14941
 Alpha  occ. eigenvalues --   -1.08322  -1.06368  -0.96725  -0.93984  -0.90825
 Alpha  occ. eigenvalues --   -0.85212  -0.82998  -0.79103  -0.78589  -0.77200
 Alpha  occ. eigenvalues --   -0.74580  -0.71299  -0.69331  -0.68447  -0.66150
 Alpha  occ. eigenvalues --   -0.65437  -0.64349  -0.62690  -0.61079  -0.59778
 Alpha  occ. eigenvalues --   -0.59531  -0.58001  -0.57500  -0.55772  -0.54577
 Alpha  occ. eigenvalues --   -0.53653  -0.53175  -0.51462  -0.50190  -0.49085
 Alpha  occ. eigenvalues --   -0.48221  -0.48054  -0.47428  -0.44907  -0.40961
 Alpha  occ. eigenvalues --   -0.39840  -0.39501  -0.34995  -0.33216  -0.29876
 Alpha virt. eigenvalues --   -0.18829  -0.13283  -0.12170  -0.11884  -0.11272
 Alpha virt. eigenvalues --   -0.09983  -0.07150  -0.06801  -0.05879  -0.05071
 Alpha virt. eigenvalues --   -0.03921  -0.02249  -0.01508  -0.01095  -0.00724

 Mulliken charges:
               1
     1  O   -0.367424
     2  C    0.393165
     3  N   -0.416178
     4  C   -0.052421
     5  C    0.390504
     6  O   -0.327858
     7  O   -0.329005
     8  C   -0.191075
     9  C    0.080127
    10  C   -0.049768
    11  N   -0.288315
    12  C    0.158484
    13  N   -0.367219
    14  C   -0.285655
    15  C   -0.135306
    16  N   -0.331107
    17  H    0.248090
    18  H    0.194675
    19  H    0.283209
    20  H    0.153889
    21  H    0.141482
    22  H    0.100178
    23  H    0.120524
    24  H    0.231623
    25  H    0.160293
    26  H    0.158950
    27  H    0.192547
    28  H    0.215241
    29  H    0.304154
    30  H    0.311729
    31  H    0.302467
 Sum of Mulliken charges =   1.00000

 Dipole moment (field-independent basis, Debye):
    X=            -19.3562    Y=              2.8720    Z=             -1.5483  Tot=             19.6292
 Quadrupole moment (field-independent basis, Debye-Ang):
   XX=             28.1534   YY=            -89.0493   ZZ=            -89.0648
   XY=              0.0632   XZ=            -44.8017   YZ=              3.2438

  Exact polarizability: 170.683  -1.836  87.840   0.516 -13.890 132.215
 Approx polarizability: 214.348   4.705 134.240  10.263 -20.710 218.593

                      1                      2                      3
                      A                      A                      A
 Frequencies --     22.4005                29.6762                35.4030
 Red. masses --      4.3378                 3.2902                 2.9979
 Frc consts  --      0.0013                 0.0017                 0.0022
 IR Inten    --      7.5439                 6.0651                13.0733

                      4                      5                      6
                      A                      A                      A
 Frequencies --     40.2647                62.3151                78.4750
 Red. masses --      3.2492                 6.4605                 7.7431
 Frc consts  --      0.0031                 0.0148                 0.0281
 IR Inten    --      5.8290                 1.7842                 9.2786

                      7                      8                      9
                      A                      A                      A
 Frequencies --     91.7769               112.4726               126.8632
 Red. masses --      3.6560                 4.8623                 4.8680
 Frc consts  --      0.0181                 0.0362                 0.0462
 IR Inten    --      1.3918                 8.1208                 4.8649

                     10                     11                     12
                      A                      A                      A
 Frequencies --    189.5874               217.5246               241.8864
 Red. masses --      4.9736                 1.9367                 1.6413
 Frc consts  --      0.1053                 0.0540                 0.0566
 IR Inten    --      2.6195                10.9081                 2.7865

                     13                     14                     15
                      A                      A                      A
 Frequencies --    271.8876               308.4820               331.0270
 Red. masses --      5.1040                 2.9280                 3.2721
 Frc consts  --      0.2223                 0.1642                 0.2113
 IR Inten    --     18.2338                 3.2401                 3.0373

                     16                     17                     18
                      A                      A                      A
 Frequencies --    349.1006               377.4115               385.6301
 Red. masses --      6.4003                 3.8580                 3.8558
 Frc consts  --      0.4596                 0.3238                 0.3378
 IR Inten    --     10.8027                 1.7632                18.1255

                     19                     20                     21
                      A                      A                      A
 Frequencies --    530.9294               545.5588               558.6464
 Red. masses --      2.1194                 1.5380                 2.2670
 Frc consts  --      0.3520                 0.2697                 0.4169
 IR Inten    --     50.5005                89.8437                 9.3336

                     22                     23                     24
                      A                      A                      A
 Frequencies --    595.7233               639.3787               648.5884
 Red. masses --      1.7793                 2.5148                 1.8955
 Frc consts  --      0.3720                 0.6057                 0.4698
 IR Inten    --     37.7361                50.2854                14.4701

                     25                     26                     27
                      A                      A                      A
 Frequencies --    668.6975               681.7845               712.9337
 Red. masses --      2.2227                 2.6405                 3.6477
 Frc consts  --      0.5856                 0.7232                 1.0924
 IR Inten    --     83.7543                 1.6668                 3.4176

                     28                     29                     30
                      A                      A                      A
 Frequencies --    737.9250               772.1266               800.9780
 Red. masses --      3.0878                 3.0616                 1.4858
 Frc consts  --      0.9907                 1.0754                 0.5616
 IR Inten    --     28.7684                 8.4965                11.7649

                     31                     32                     33
                      A                      A                      A
 Frequencies --    823.6610               825.8704               854.6544
 Red. masses --      2.5828                 1.4105                 1.4446
 Frc consts  --      1.0324                 0.5668                 0.6217
 IR Inten    --     12.9342                22.2440                16.9402

                     34                     35                     36
                      A                      A                      A
 Frequencies --    887.3110               919.7671               927.0373
 Red. masses --      2.5918                 1.3255                 3.5028
 Frc consts  --      1.2023                 0.6607                 1.7736
 IR Inten    --     31.4866                 4.8141                24.4695

                     37                     38                     39
                      A                      A                      A
 Frequencies --    942.8227               984.8682              1006.5627
 Red. masses --      5.6561                 2.1524                 4.5377
 Frc consts  --      2.9623                 1.2300                 2.7088
 IR Inten    --     13.8489                15.9911                 9.4050

                     40                     41                     42
                      A                      A                      A
 Frequencies --   1015.2795              1032.4606              1085.8071
 Red. masses --      3.1501                 3.4925                 1.9621
 Frc consts  --      1.9131                 2.1935                 1.3630
 IR Inten    --     32.2793                14.0841                34.5977

                     43                     44                     45
                      A                      A                      A
 Frequencies --   1109.8450              1112.0425              1145.2661
 Red. masses --      2.0494                 1.6306                 2.1326
 Frc consts  --      1.4873                 1.1880                 1.6481
 IR Inten    --     29.4656                49.0274                 1.2101

                     46                     47                     48
                      A                      A                      A
 Frequencies --   1150.6768              1189.8113              1196.1363
 Red. masses --      2.1893                 1.3194                 2.6636
 Frc consts  --      1.7079                 1.1005                 2.2453
 IR Inten    --     24.9304                 8.0030               179.7638

                     49                     50                     51
                      A                      A                      A
 Frequencies --   1238.9438              1265.9596              1274.3242
 Red. masses --      1.5820                 2.2792                 1.4616
 Frc consts  --      1.4308                 2.1522                 1.3984
 IR Inten    --     14.3468                 7.9604                 6.2741

                     52                     53                     54
                      A                      A                      A
 Frequencies --   1286.7526              1306.1094              1318.2687
 Red. masses --      1.2936                 1.3498                 1.2292
 Frc consts  --      1.2620                 1.3567                 1.2586
 IR Inten    --      1.0312                 6.9264                 6.7430

                     55                     56                     57
                      A                      A                      A
 Frequencies --   1330.0173              1354.2793              1360.0550
 Red. masses --      1.2801                 1.3483                 1.5041
 Frc consts  --      1.3342                 1.4570                 1.6393
 IR Inten    --     13.5349                 9.5445                29.9636

                     58                     59                     60
                      A                      A                      A
 Frequencies --   1394.6858              1406.5786              1420.7709
 Red. masses --      3.2358                 1.3345                 2.5168
 Frc consts  --      3.7084                 1.5557                 2.9933
 IR Inten    --     50.8855                21.6119                86.9557

                     61                     62                     63
                      A                      A                      A
 Frequencies --   1432.5566              1475.2105              1479.1033
 Red. masses --      2.7403                 1.1589                 1.1151
 Frc consts  --      3.3134                 1.4860                 1.4374
 IR Inten    --     26.2097                23.9683                 1.5308

                     64                     65                     66
                      A                      A                      A
 Frequencies --   1498.2675              1508.9283              1517.3950
 Red. masses --      3.2609                 1.0723                 1.1784
 Frc consts  --      4.3129                 1.4384                 1.5985
 IR Inten    --     24.3708                18.1636               189.0171

                     67                     68                     69
                      A                      A                      A
 Frequencies --   1545.0445              1607.6896              1665.1409
 Red. masses --      2.3262                 4.4329                 1.0424
 Frc consts  --      3.2717                 6.7506                 1.7029
 IR Inten    --    298.6372                 4.0583                47.6614

                     70                     71                     72
                      A                      A                      A
 Frequencies --   1668.8265              1759.6065              1818.0085
 Red. masses --      1.0435                 9.9834                 9.6391
 Frc consts  --      1.7123                18.2122                18.7706
 IR Inten    --     38.7956               258.3126               287.2094

                     73                     74                     75
                      A                      A                      A
 Frequencies --   3025.6649              3034.0780              3061.5124
 Red. masses --      1.0641                 1.0704                 1.0831
 Frc consts  --      5.7397                 5.8054                 5.9811
 IR Inten    --      4.3716                22.0103                 6.8900

                     76                     77                     78
                      A                      A                      A
 Frequencies --   3086.1661              3096.9054              3117.8491
 Red. masses --      1.0995                 1.0593                 1.0934
 Frc consts  --      6.1700                 5.9857                 6.2622
 IR Inten    --      5.7583                 6.0689                 4.1758

                     79                     80                     81
                      A                      A                      A
 Frequencies --   3156.4158              3233.4527              3243.6986
 Red. masses --      1.1119                 1.0965                 1.0988
 Frc consts  --      6.5267                 6.7542                 6.8118
 IR Inten    --      3.8608                 5.5253                 0.5605

                     82                     83                     84
                      A                      A                      A
 Frequencies --   3398.9173              3476.6947              3479.2487
 Red. masses --      1.0300                 1.0932                 1.0934
 Frc consts  --      7.0106                 7.7851                 7.7986
 IR Inten    --     53.0417                89.8566                87.5794

                     85                     86                     87
                      A                      A                      A
 Frequencies --   3561.8802              3660.3538              3739.0154
 Red. masses --      1.0783                 1.0809                 1.0644
 Frc consts  --      8.0600                 8.5327                 8.7678
 IR Inten    --    113.3303                81.6298               120.6503

 - Thermochemistry -
 -------------------
 Temperature   298.150 Kelvin.  Pressure   1.00000 Atm.
 Atom     1 has atomic number  8 and mass  15.99491

 Molecular mass:   227.11442 amu.
 Principal axes and moments of inertia in atomic units:
                           1         2         3
     Eigenvalues --  2240.605126966.542628922.93858
           X            0.98969   0.00137   0.14320
           Y           -0.13266  -0.36790   0.92035
           Z           -0.05394   0.92986   0.36393
 This molecule is an asymmetric top.
 Rotational symmetry number  1.
 Warning -- assumption of classical behavior for rotation
           may cause significant error
 Rotational temperatures (Kelvin)      0.03866     0.01243     0.00971
 Rotational constants (GHZ):           0.80547     0.25906     0.20226
 Zero-point vibrational energy     679955.7 (Joules/Mol)
                                  162.51330 (Kcal/Mol)
 Warning -- explicit consideration of  22 degrees of freedom as
           vibrations may cause significant error
 Vibrational temperatures:     32.23    42.70    50.94    57.93    89.66
          (Kelvin)            112.91   132.05   161.82   182.53   272.77
                              312.97   348.02   391.19   443.84   476.27
                              502.28   543.01   554.83   763.89   784.94
                              803.77   857.11   919.92   933.17   962.11
                              980.93  1025.75  1061.71  1110.92  1152.43
                             1185.06  1188.24  1229.66  1276.64  1323.34
                             1333.80  1356.51  1417.00  1448.22  1460.76
                             1485.48  1562.23  1596.82  1599.98  1647.78
                             1655.57  1711.87  1720.97  1782.56  1821.43
                             1833.47  1851.35  1879.20  1896.69  1913.60
                             1948.50  1956.81  2006.64  2023.75  2044.17
                             2061.13  2122.50  2128.10  2155.67  2171.01
                             2183.19  2222.97  2313.10  2395.76  2401.07
                             2531.68  2615.71  4353.25  4365.36  4404.83
                             4440.30  4455.75  4485.88  4541.37  4652.21
                             4666.95  4890.28  5002.18  5005.86  5124.74
                             5266.43  5379.60

 Zero-point correction=                           0.258981 (Hartree/Particle)
 Thermal correction to Energy=                    0.275417
 Thermal correction to Enthalpy=                  0.276361
 Thermal correction to Gibbs Free Energy=         0.211353
 Sum of electronic and zero-point Energies=           -796.469771
 Sum of electronic and thermal Energies=              -796.453335
 Sum of electronic and thermal Enthalpies=            -796.452391
 Sum of electronic and thermal Free Energies=         -796.517399

                     E (Thermal)             CV                S
                      KCal/Mol        Cal/Mol-Kelvin    Cal/Mol-Kelvin
 Total                  172.827             58.978            136.821
 Electronic               0.000              0.000              0.000
 Translational            0.889              2.981             42.163
 Rotational               0.889              2.981             33.299
 Vibrational            171.050             53.016             61.359
 Vibration     1          0.593              1.985              6.409
 Vibration     2          0.593              1.984              5.851
 Vibration     3          0.594              1.982              5.501
 Vibration     4          0.594              1.981              5.246
 Vibration     5          0.597              1.972              4.383
 Vibration     6          0.600              1.964              3.929
 Vibration     7          0.602              1.955              3.622
 Vibration     8          0.607              1.939              3.226
 Vibration     9          0.611              1.926              2.993
 Vibration    10          0.633              1.854              2.232
 Vibration    11          0.646              1.814              1.980
 Vibration    12          0.658              1.776              1.789
 Vibration    13          0.675              1.725              1.584
 Vibration    14          0.698              1.658              1.370
 Vibration    15          0.713              1.614              1.255
 Vibration    16          0.726              1.577              1.170
 Vibration    17          0.748              1.518              1.050
 Vibration    18          0.754              1.501              1.017
 Vibration    19          0.886              1.182              0.585
 Vibration    20          0.901              1.149              0.553
 Vibration    21          0.914              1.121              0.527
 Vibration    22          0.953              1.041              0.457

 Normal termination of Gaussian 09 at Sat Jul 24 02:02:37 2021.
