 Gaussian 09, Revision D.01,
 Gaussian 09:  ES64L-G09RevD.01 24-Apr-2013

 ----------------------------------------------------------------------
 # B3LYP/6-311G(d,p) EmpiricalDispersion=GD3BJ opt=calcfc freq=noraman
 nosymm integral(ultrafinegrid)
 ----------------------------------------------------------------------

 ------------------------------------------------------------
 Candidate Structure: Conf:862 OPT and FREQ calc in gas phase
 ------------------------------------------------------------
 Symbolic Z-matrix:
 Charge =  1 Multiplicity = 1

 SCF Done:  E(RB3LYP) =  -796.760262131     A.U. after   14 cycles
 SCF Done:  E(RB3LYP) =  -796.670863407     A.U. after   15 cycles
 SCF Done:  E(RB3LYP) =  -796.767557655     A.U. after   12 cycles
 SCF Done:  E(RB3LYP) =  -796.769730064     A.U. after   12 cycles
 SCF Done:  E(RB3LYP) =  -796.768042564     A.U. after   12 cycles
 SCF Done:  E(RB3LYP) =  -796.771023869     A.U. after   10 cycles
 SCF Done:  E(RB3LYP) =  -796.772571693     A.U. after   12 cycles
 SCF Done:  E(RB3LYP) =  -796.772719494     A.U. after   12 cycles
 SCF Done:  E(RB3LYP) =  -796.772825178     A.U. after   11 cycles
 SCF Done:  E(RB3LYP) =  -796.772883521     A.U. after   10 cycles
 SCF Done:  E(RB3LYP) =  -796.772927415     A.U. after   10 cycles
 SCF Done:  E(RB3LYP) =  -796.772967248     A.U. after   11 cycles
 SCF Done:  E(RB3LYP) =  -796.772974998     A.U. after    9 cycles
 SCF Done:  E(RB3LYP) =  -796.772977758     A.U. after    8 cycles
 SCF Done:  E(RB3LYP) =  -796.772977924     A.U. after    7 cycles
 Optimization completed.
    -- Stationary point found.
 Normal termination of Gaussian 09 at Sat Jul 24 02:01:16 2021.

 ----------------------------------------------------------------------
 #N Geom=AllCheck Guess=TCheck SCRF=Check GenChk RB3LYP/6-311G(d,p) Fre
 q
 ----------------------------------------------------------------------

 Structure from the checkpoint file:  "conf-862.chk"
 ------------------------------------------------------------
 Candidate Structure: Conf:862 OPT and FREQ calc in gas phase
 ------------------------------------------------------------
 Charge =  1 Multiplicity = 1

                          Input orientation:
 ---------------------------------------------------------------------
 Center     Atomic      Atomic             Coordinates (Angstroms)
 Number     Number       Type             X           Y           Z
 ---------------------------------------------------------------------
      1          8           0       -0.719321    1.788038   -0.148579
      2          6           0        0.335200    1.239478    0.176086
      3          7           0        0.491843    0.566196    1.332190
      4          6           0       -0.630817    0.169444    2.160605
      5          6           0       -0.183806    0.197904    3.611773
      6          8           0       -1.230724    0.198835    4.442260
      7          8           0        0.971150    0.157852    3.948800
      8          6           0       -1.136417   -1.289109    1.810830
      9          6           0       -0.885421   -1.609980    0.375792
     10          6           0       -1.388692   -1.064428   -0.775318
     11          7           0       -0.611672   -1.417290   -1.862940
     12          6           0        0.329076   -2.217106   -1.389713
     13          7           0        0.207999   -2.352771   -0.043343
     14          6           0        1.527885    1.191249   -0.779233
     15          6           0        1.200493    1.756674   -2.161773
     16          7           0       -0.121057    1.235851   -2.668519
     17          1           0        1.405822    0.248463    1.626451
     18          1           0       -1.438781    0.878923    1.994437
     19          1           0       -0.899847    0.162204    5.354136
     20          1           0       -2.195925   -1.354279    2.058860
     21          1           0       -0.617934   -2.013750    2.444186
     22          1           0       -2.228422   -0.395956   -0.869416
     23          1           0        1.089647   -2.716586   -1.968689
     24          1           0        0.774014   -2.947724    0.544124
     25          1           0        1.860903    0.153949   -0.861428
     26          1           0        2.365187    1.761021   -0.366263
     27          1           0        1.973002    1.488697   -2.880702
     28          1           0        1.108918    2.841609   -2.130042
     29          1           0       -0.203234    0.182115   -2.643774
     30          1           0       -0.329744    1.575758   -3.606776
     31          1           0       -0.819225    1.584929   -1.985826
 ---------------------------------------------------------------------

 SCF Done:  E(RB3LYP) =  -796.772977924     A.U. after    1 cycles

 Alpha  occ. eigenvalues --  -19.28945 -19.23915 -19.23464 -14.55766 -14.51027
 Alpha  occ. eigenvalues --  -14.48144 -14.44409 -10.42958 -10.42718 -10.38661
 Alpha  occ. eigenvalues --  -10.36912 -10.36193 -10.34504 -10.34299 -10.32627
 Alpha  occ. eigenvalues --  -10.32030  -1.23752  -1.19639  -1.16207  -1.15075
 Alpha  occ. eigenvalues --   -1.13414  -1.07778  -1.01851  -0.95072  -0.92921
 Alpha  occ. eigenvalues --   -0.88641  -0.82763  -0.80854  -0.76301  -0.75420
 Alpha  occ. eigenvalues --   -0.73985  -0.73150  -0.72250  -0.71385  -0.68366
 Alpha  occ. eigenvalues --   -0.66369  -0.64152  -0.63001  -0.62147  -0.61366
 Alpha  occ. eigenvalues --   -0.60052  -0.59197  -0.58890  -0.57839  -0.56221
 Alpha  occ. eigenvalues --   -0.55668  -0.55390  -0.54393  -0.54264  -0.53631
 Alpha  occ. eigenvalues --   -0.52678  -0.50721  -0.50380  -0.44903  -0.43908
 Alpha  occ. eigenvalues --   -0.42746  -0.41977  -0.40834  -0.40658  -0.36833
 Alpha virt. eigenvalues --   -0.14114  -0.13455  -0.12154  -0.11644  -0.09421
 Alpha virt. eigenvalues --   -0.09051  -0.07912  -0.06661  -0.06180  -0.05868
 Alpha virt. eigenvalues --   -0.04814  -0.04096  -0.02932  -0.02458  -0.01550

 Mulliken charges:
               1
     1  O   -0.421509
     2  C    0.418109
     3  N   -0.386377
     4  C   -0.075224
     5  C    0.370324
     6  O   -0.303224
     7  O   -0.320197
     8  C   -0.152858
     9  C    0.080864
    10  C   -0.042578
    11  N   -0.385379
    12  C    0.172793
    13  N   -0.346419
    14  C   -0.289705
    15  C   -0.122394
    16  N   -0.344134
    17  H    0.248178
    18  H    0.191799
    19  H    0.281126
    20  H    0.182367
    21  H    0.138352
    22  H    0.131177
    23  H    0.146962
    24  H    0.255301
    25  H    0.158538
    26  H    0.188630
    27  H    0.177581
    28  H    0.183671
    29  H    0.284499
    30  H    0.284133
    31  H    0.295595
 Sum of Mulliken charges =   1.00000

 Dipole moment (field-independent basis, Debye):
    X=              2.3995    Y=              0.1768    Z=             -3.2333  Tot=              4.0303
 Quadrupole moment (field-independent basis, Debye-Ang):
   XX=            -84.6755   YY=            -74.9506   ZZ=            -51.2704
   XY=             -0.7207   XZ=            -11.0933   YZ=            -16.2288

  Exact polarizability: 113.133  -3.534 108.274  -8.293  -8.700 154.436
 Approx polarizability: 197.415 -24.308 161.576  -0.129 -15.880 213.821

                      1                      2                      3
                      A                      A                      A
 Frequencies --     35.6811                53.7640                90.2333
 Red. masses --      4.8468                 8.5417                 4.3831
 Frc consts  --      0.0036                 0.0145                 0.0210
 IR Inten    --      2.9368                 1.1539                 0.0958

                      4                      5                      6
                      A                      A                      A
 Frequencies --    109.4359               112.5081               131.4571
 Red. masses --      4.5967                 4.9124                 3.8764
 Frc consts  --      0.0324                 0.0366                 0.0395
 IR Inten    --     10.2123                 2.7688                 8.8779

                      7                      8                      9
                      A                      A                      A
 Frequencies --    145.2365               156.9738               186.7567
 Red. masses --      4.0290                 5.2282                 3.7994
 Frc consts  --      0.0501                 0.0759                 0.0781
 IR Inten    --     13.2885                 8.3253                10.8998

                     10                     11                     12
                      A                      A                      A
 Frequencies --    208.2713               263.4760               307.0155
 Red. masses --      2.5092                 4.6164                 5.7414
 Frc consts  --      0.0641                 0.1888                 0.3189
 IR Inten    --     32.6919                35.7005                 2.0439

                     13                     14                     15
                      A                      A                      A
 Frequencies --    315.3694               339.5685               356.8394
 Red. masses --      2.4090                 4.2535                 4.1425
 Frc consts  --      0.1412                 0.2890                 0.3108
 IR Inten    --      4.9314                 9.3929                41.7947

                     16                     17                     18
                      A                      A                      A
 Frequencies --    411.9481               439.7194               465.5777
 Red. masses --      3.2682                 2.2121                 1.3132
 Frc consts  --      0.3268                 0.2520                 0.1677
 IR Inten    --      9.2992                14.9925                 1.3441

                     19                     20                     21
                      A                      A                      A
 Frequencies --    525.3902               553.0272               598.7521
 Red. masses --      1.8635                 3.6725                 1.7493
 Frc consts  --      0.3031                 0.6618                 0.3695
 IR Inten    --     83.4184                21.0733               109.4322

                     22                     23                     24
                      A                      A                      A
 Frequencies --    621.9354               625.5494               639.1123
 Red. masses --      1.7965                 1.3432                 3.0670
 Frc consts  --      0.4094                 0.3097                 0.7381
 IR Inten    --     12.3988                48.1741                82.9394

                     25                     26                     27
                      A                      A                      A
 Frequencies --    685.0483               691.0367               691.8148
 Red. masses --      2.8049                 2.9644                 2.5723
 Frc consts  --      0.7755                 0.8340                 0.7254
 IR Inten    --     54.7705                10.0556                 1.5979

                     28                     29                     30
                      A                      A                      A
 Frequencies --    722.2293               773.8562               824.0414
 Red. masses --      3.1016                 4.1534                 1.4487
 Frc consts  --      0.9532                 1.4655                 0.5796
 IR Inten    --      8.9187                23.2680                11.2680

                     31                     32                     33
                      A                      A                      A
 Frequencies --    841.3054               855.1537               865.5577
 Red. masses --      2.1131                 2.0057                 1.8297
 Frc consts  --      0.8812                 0.8642                 0.8076
 IR Inten    --     16.6271                18.0714                15.3156

                     34                     35                     36
                      A                      A                      A
 Frequencies --    879.8502               932.1382               955.3560
 Red. masses --      2.2822                 2.6909                 4.2533
 Frc consts  --      1.0409                 1.3776                 2.2872
 IR Inten    --      3.6682                11.2352                 8.7404

                     37                     38                     39
                      A                      A                      A
 Frequencies --    961.4933               986.3918              1000.7229
 Red. masses --      4.1319                 1.5309                 3.1106
 Frc consts  --      2.2506                 0.8776                 1.8353
 IR Inten    --      5.1719                 2.2507                14.8083

                     40                     41                     42
                      A                      A                      A
 Frequencies --   1034.6394              1044.7324              1104.6834
 Red. masses --      3.3248                 3.1277                 2.2969
 Frc consts  --      2.0970                 2.0113                 1.6515
 IR Inten    --      6.5526                10.9343                15.9996

                     43                     44                     45
                      A                      A                      A
 Frequencies --   1129.4245              1132.7010              1137.2989
 Red. masses --      1.4851                 1.5777                 2.2087
 Frc consts  --      1.1161                 1.1926                 1.6832
 IR Inten    --     94.0054                11.1902                21.6115

                     46                     47                     48
                      A                      A                      A
 Frequencies --   1151.3941              1166.5340              1206.8128
 Red. masses --      1.4047                 1.8560                 1.9128
 Frc consts  --      1.0972                 1.4881                 1.6414
 IR Inten    --     37.5186               151.0454                57.7341

                     49                     50                     51
                      A                      A                      A
 Frequencies --   1247.8429              1254.0271              1279.7617
 Red. masses --      1.6976                 1.8340                 1.4182
 Frc consts  --      1.5574                 1.6993                 1.3685
 IR Inten    --      6.8437                10.8641                11.6202

                     52                     53                     54
                      A                      A                      A
 Frequencies --   1286.7816              1299.0080              1335.2102
 Red. masses --      1.3206                 1.5587                 1.6648
 Frc consts  --      1.2883                 1.5496                 1.7486
 IR Inten    --     11.4931                10.3917                 2.4269

                     55                     56                     57
                      A                      A                      A
 Frequencies --   1342.9968              1355.6698              1389.5058
 Red. masses --      1.2782                 1.2332                 1.5628
 Frc consts  --      1.3583                 1.3354                 1.7778
 IR Inten    --      6.9778                18.6596                46.4660

                     58                     59                     60
                      A                      A                      A
 Frequencies --   1394.9273              1421.8534              1426.2067
 Red. masses --      2.5718                 2.2711                 1.4032
 Frc consts  --      2.9485                 2.7052                 1.6817
 IR Inten    --      3.0960               146.2989                26.7650

                     61                     62                     63
                      A                      A                      A
 Frequencies --   1438.5068              1465.5813              1487.6464
 Red. masses --      2.6065                 1.1003                 1.2587
 Frc consts  --      3.1778                 1.3924                 1.6413
 IR Inten    --     26.1190                20.5142                19.0716

                     64                     65                     66
                      A                      A                      A
 Frequencies --   1496.7297              1505.6930              1514.8131
 Red. masses --      2.2817                 1.0989                 1.2378
 Frc consts  --      3.0116                 1.4679                 1.6735
 IR Inten    --      2.4468                22.9188               222.9643

                     67                     68                     69
                      A                      A                      A
 Frequencies --   1560.8583              1616.8534              1641.9699
 Red. masses --      2.1810                 4.1447                 1.1091
 Frc consts  --      3.1307                 6.3839                 1.7618
 IR Inten    --    188.6377                15.8532                37.7507

                     70                     71                     72
                      A                      A                      A
 Frequencies --   1703.7262              1721.5008              1829.1865
 Red. masses --      1.2444                 2.9406                10.2524
 Frc consts  --      2.1282                 5.1345                20.2111
 IR Inten    --    261.5950                58.1516               260.6268

                     73                     74                     75
                      A                      A                      A
 Frequencies --   2869.0686              3055.9559              3056.4921
 Red. masses --      1.0837                 1.0609                 1.0660
 Frc consts  --      5.2558                 5.8374                 5.8676
 IR Inten    --    894.5408                 3.0812                10.6578

                     76                     77                     78
                      A                      A                      A
 Frequencies --   3090.5481              3098.7845              3112.7720
 Red. masses --      1.0829                 1.0790                 1.0973
 Frc consts  --      6.0941                 6.1044                 6.2643
 IR Inten    --      2.2653                 4.2332                 1.6116

                     79                     80                     81
                      A                      A                      A
 Frequencies --   3132.8409              3148.0235              3224.6740
 Red. masses --      1.0875                 1.1103                 1.0678
 Frc consts  --      6.2889                 6.4828                 6.5418
 IR Inten    --      2.9383                 3.3347               201.3699

                     82                     83                     84
                      A                      A                      A
 Frequencies --   3252.1604              3256.1482              3508.9321
 Red. masses --      1.0962                 1.1019                 1.0786
 Frc consts  --      6.8308                 6.8831                 7.8244
 IR Inten    --      1.6250                 3.7364               105.5371

                     85                     86                     87
                      A                      A                      A
 Frequencies --   3591.5988              3630.3335              3738.8864
 Red. masses --      1.0778                 1.0820                 1.0645
 Frc consts  --      8.1912                 8.4017                 8.7677
 IR Inten    --     70.4145                87.2579               128.1611

 - Thermochemistry -
 -------------------
 Temperature   298.150 Kelvin.  Pressure   1.00000 Atm.
 Atom     1 has atomic number  8 and mass  15.99491

 Molecular mass:   227.11442 amu.
 Principal axes and moments of inertia in atomic units:
                           1         2         3
     Eigenvalues --  2140.152264555.168635601.59937
           X           -0.10069   0.29043   0.95158
           Y           -0.04368   0.95423  -0.29586
           Z            0.99396   0.07136   0.08340
 This molecule is an asymmetric top.
 Rotational symmetry number  1.
 Warning -- assumption of classical behavior for rotation
           may cause significant error
 Rotational temperatures (Kelvin)      0.04047     0.01901     0.01546
 Rotational constants (GHZ):           0.84328     0.39620     0.32218
 Zero-point vibrational energy     683378.1 (Joules/Mol)
                                  163.33128 (Kcal/Mol)
 Warning -- explicit consideration of  21 degrees of freedom as
           vibrations may cause significant error
 Vibrational temperatures:     51.34    77.35   129.83   157.45   161.87
          (Kelvin)            189.14   208.96   225.85   268.70   299.66
                              379.08   441.73   453.75   488.56   513.41
                              592.70   632.66   669.86   755.92   795.68
                              861.47   894.83   900.02   919.54   985.63
                              994.25   995.37  1039.13  1113.41  1185.61
                             1210.45  1230.37  1245.34  1265.91  1341.14
                             1374.54  1383.37  1419.20  1439.82  1488.61
                             1503.14  1589.39  1624.99  1629.70  1636.32
                             1656.60  1678.38  1736.33  1795.37  1804.26
                             1841.29  1851.39  1868.98  1921.07  1932.27
                             1950.50  1999.19  2006.99  2045.73  2051.99
                             2069.69  2108.64  2140.39  2153.46  2166.35
                             2179.48  2245.72  2326.29  2362.43  2451.28
                             2476.85  2631.79  4127.94  4396.83  4397.60
                             4446.60  4458.45  4478.58  4507.45  4529.30
                             4639.58  4679.13  4684.87  5048.56  5167.50
                             5223.23  5379.42

 Zero-point correction=                           0.260285 (Hartree/Particle)
 Thermal correction to Energy=                    0.275346
 Thermal correction to Enthalpy=                  0.276290
 Thermal correction to Gibbs Free Energy=         0.217765
 Sum of electronic and zero-point Energies=           -796.512693
 Sum of electronic and thermal Energies=              -796.497632
 Sum of electronic and thermal Enthalpies=            -796.496688
 Sum of electronic and thermal Free Energies=         -796.555213

                     E (Thermal)             CV                S
                      KCal/Mol        Cal/Mol-Kelvin    Cal/Mol-Kelvin
 Total                  172.782             57.448            123.177
 Electronic               0.000              0.000              0.000
 Translational            0.889              2.981             42.163
 Rotational               0.889              2.981             32.368
 Vibrational            171.005             51.486             48.645
 Vibration     1          0.594              1.982              5.486
 Vibration     2          0.596              1.976              4.674
 Vibration     3          0.602              1.956              3.655
 Vibration     4          0.606              1.942              3.279
 Vibration     5          0.607              1.939              3.225
 Vibration     6          0.612              1.922              2.925
 Vibration     7          0.617              1.908              2.734
 Vibration     8          0.621              1.895              2.586
 Vibration     9          0.632              1.858              2.260
 Vibration    10          0.642              1.828              2.059
 Vibration    11          0.670              1.740              1.639
 Vibration    12          0.697              1.660              1.378
 Vibration    13          0.703              1.644              1.334
 Vibration    14          0.719              1.596              1.214
 Vibration    15          0.732              1.561              1.136
 Vibration    16          0.776              1.444              0.920
 Vibration    17          0.800              1.384              0.827
 Vibration    18          0.823              1.326              0.750
 Vibration    19          0.880              1.194              0.598
 Vibration    20          0.908              1.133              0.538
 Vibration    21          0.957              1.034              0.452

 Normal termination of Gaussian 09 at Sat Jul 24 02:41:53 2021.
