 Gaussian 09, Revision D.01,
 Gaussian 09:  ES64L-G09RevD.01 24-Apr-2013

 ----------------------------------------------------------------------
 # B3LYP/6-311G(d,p) EmpiricalDispersion=GD3BJ opt=calcfc freq=noraman
 nosymm integral(ultrafinegrid)
 ----------------------------------------------------------------------

 ------------------------------------------------------------
 Candidate Structure: Conf:661 OPT and FREQ calc in gas phase
 ------------------------------------------------------------
 Symbolic Z-matrix:
 Charge =  1 Multiplicity = 1

 SCF Done:  E(RB3LYP) =  -796.728377035     A.U. after   14 cycles
 SCF Done:  E(RB3LYP) =  -796.695100748     A.U. after   15 cycles
 SCF Done:  E(RB3LYP) =  -796.735655412     A.U. after   11 cycles
 SCF Done:  E(RB3LYP) =  -796.738896591     A.U. after   12 cycles
 SCF Done:  E(RB3LYP) =  -796.742328440     A.U. after   14 cycles
 SCF Done:  E(RB3LYP) =  -796.745204191     A.U. after   12 cycles
 SCF Done:  E(RB3LYP) =  -796.746682405     A.U. after   12 cycles
 SCF Done:  E(RB3LYP) =  -796.743830454     A.U. after   15 cycles
 SCF Done:  E(RB3LYP) =  -796.747057170     A.U. after   11 cycles
 SCF Done:  E(RB3LYP) =  -796.747296598     A.U. after   11 cycles
 SCF Done:  E(RB3LYP) =  -796.747439372     A.U. after   11 cycles
 SCF Done:  E(RB3LYP) =  -796.747458594     A.U. after   10 cycles
 SCF Done:  E(RB3LYP) =  -796.747464766     A.U. after    9 cycles
 SCF Done:  E(RB3LYP) =  -796.747465467     A.U. after    8 cycles
 SCF Done:  E(RB3LYP) =  -796.747465653     A.U. after    8 cycles
 SCF Done:  E(RB3LYP) =  -796.747465726     A.U. after    7 cycles
 SCF Done:  E(RB3LYP) =  -796.747465771     A.U. after    7 cycles
 SCF Done:  E(RB3LYP) =  -796.747465818     A.U. after    7 cycles
 SCF Done:  E(RB3LYP) =  -796.747465844     A.U. after    6 cycles
 Optimization completed.
    -- Stationary point found.
 Normal termination of Gaussian 09 at Sat Jul 24 02:05:28 2021.

 ----------------------------------------------------------------------
 #N Geom=AllCheck Guess=TCheck SCRF=Check GenChk RB3LYP/6-311G(d,p) Fre
 q
 ----------------------------------------------------------------------

 Structure from the checkpoint file:  "conf-661.chk"
 ------------------------------------------------------------
 Candidate Structure: Conf:661 OPT and FREQ calc in gas phase
 ------------------------------------------------------------
 Charge =  1 Multiplicity = 1

                          Input orientation:
 ---------------------------------------------------------------------
 Center     Atomic      Atomic             Coordinates (Angstroms)
 Number     Number       Type             X           Y           Z
 ---------------------------------------------------------------------
      1          8           0        2.091574    1.169725    0.918714
      2          6           0        1.392004    0.970070   -0.057629
      3          7           0        0.174208    0.368131    0.032508
      4          6           0       -0.260546   -0.150976    1.306126
      5          6           0        0.761261   -1.195842    1.776609
      6          8           0        0.769584   -1.493438    3.067422
      7          8           0        1.488384   -1.803668    1.016759
      8          6           0       -1.651784   -0.839866    1.153538
      9          6           0       -2.605911   -0.020122    0.358892
     10          6           0       -2.973437   -0.110751   -0.965187
     11          7           0       -3.799306    0.929939   -1.317444
     12          6           0       -3.938925    1.650941   -0.231423
     13          7           0       -3.227172    1.128316    0.815466
     14          6           0        1.941894    1.144147   -1.467111
     15          6           0        3.121845    0.180417   -1.593561
     16          7           0        2.680193   -1.252112   -1.354832
     17          1           0       -0.501067    0.395031   -0.722449
     18          1           0       -0.312497    0.653443    2.047906
     19          1           0        0.201906   -0.901983    3.579391
     20          1           0       -2.040004   -1.073613    2.148460
     21          1           0       -1.514445   -1.792363    0.636297
     22          1           0       -2.719017   -0.891907   -1.666888
     23          1           0       -4.535482    2.544911   -0.135231
     24          1           0       -3.217670    1.482625    1.759653
     25          1           0        2.325604    2.158418   -1.588084
     26          1           0        1.192583    0.966717   -2.243222
     27          1           0        3.860080    0.403384   -0.825085
     28          1           0        3.587218    0.220144   -2.577451
     29          1           0        3.484696   -1.882604   -1.353720
     30          1           0        2.178842   -1.387626   -0.428696
     31          1           0        2.044983   -1.569379   -2.089721
 ---------------------------------------------------------------------

 SCF Done:  E(RB3LYP) =  -796.747465844     A.U. after    1 cycles

 Alpha  occ. eigenvalues --  -19.31786 -19.26520 -19.23405 -14.58654 -14.48686
 Alpha  occ. eigenvalues --  -14.48362 -14.39867 -10.46254 -10.42137 -10.39719
 Alpha  occ. eigenvalues --  -10.38043 -10.34446 -10.33645 -10.33447 -10.32877
 Alpha  occ. eigenvalues --  -10.29966  -1.26539  -1.19787  -1.18033  -1.15741
 Alpha  occ. eigenvalues --   -1.13265  -1.08335  -0.98861  -0.95798  -0.93439
 Alpha  occ. eigenvalues --   -0.87601  -0.82965  -0.80305  -0.78160  -0.75506
 Alpha  occ. eigenvalues --   -0.74391  -0.73745  -0.73101  -0.71316  -0.68768
 Alpha  occ. eigenvalues --   -0.66630  -0.66234  -0.65256  -0.64891  -0.61313
 Alpha  occ. eigenvalues --   -0.60165  -0.59141  -0.58133  -0.57486  -0.56550
 Alpha  occ. eigenvalues --   -0.55976  -0.54541  -0.53860  -0.53250  -0.52656
 Alpha  occ. eigenvalues --   -0.52511  -0.52151  -0.50665  -0.47585  -0.44508
 Alpha  occ. eigenvalues --   -0.41675  -0.40941  -0.39945  -0.37846  -0.35007
 Alpha virt. eigenvalues --   -0.15606  -0.14703  -0.13912  -0.11443  -0.10038
 Alpha virt. eigenvalues --   -0.08993  -0.08334  -0.07570  -0.07023  -0.05626
 Alpha virt. eigenvalues --   -0.04442  -0.04002  -0.03002  -0.02409  -0.02156

 Mulliken charges:
               1
     1  O   -0.347140
     2  C    0.305998
     3  N   -0.401321
     4  C   -0.130488
     5  C    0.472302
     6  O   -0.248880
     7  O   -0.397437
     8  C   -0.180417
     9  C    0.057287
    10  C   -0.081789
    11  N   -0.270480
    12  C    0.171801
    13  N   -0.365171
    14  C   -0.231469
    15  C   -0.149087
    16  N   -0.350182
    17  H    0.259702
    18  H    0.173665
    19  H    0.274835
    20  H    0.152963
    21  H    0.159096
    22  H    0.114149
    23  H    0.139542
    24  H    0.241629
    25  H    0.193247
    26  H    0.145842
    27  H    0.201272
    28  H    0.182468
    29  H    0.295904
    30  H    0.335363
    31  H    0.276796
 Sum of Mulliken charges =   1.00000

 Dipole moment (field-independent basis, Debye):
    X=              4.7902    Y=             -1.5920    Z=             -1.3837  Tot=              5.2340
 Quadrupole moment (field-independent basis, Debye-Ang):
   XX=            -64.1882   YY=            -83.1120   ZZ=            -68.1301
   XY=            -12.7651   XZ=            -37.0037   YZ=              9.1558

  Exact polarizability: 142.987 -15.625 111.029  -1.408  -3.555 131.713
 Approx polarizability: 188.727 -19.338 171.651  10.028   6.882 214.864

                      1                      2                      3
                      A                      A                      A
 Frequencies --     26.5362                34.4175                59.0265
 Red. masses --      3.8965                 4.3057                 6.9374
 Frc consts  --      0.0016                 0.0030                 0.0142
 IR Inten    --     11.9549                 1.2770                11.4227

                      4                      5                      6
                      A                      A                      A
 Frequencies --     68.0533                78.0118               112.4777
 Red. masses --      4.2683                 5.4987                 4.6187
 Frc consts  --      0.0116                 0.0197                 0.0344
 IR Inten    --      4.5845                 7.0913                 3.0633

                      7                      8                      9
                      A                      A                      A
 Frequencies --    149.9610               159.2827               177.2396
 Red. masses --      5.5655                 5.9440                 6.8846
 Frc consts  --      0.0737                 0.0889                 0.1274
 IR Inten    --     20.0084                 3.8491                14.3643

                     10                     11                     12
                      A                      A                      A
 Frequencies --    234.5024               250.3302               281.1403
 Red. masses --      3.9640                 2.6305                 5.8282
 Frc consts  --      0.1284                 0.0971                 0.2714
 IR Inten    --     75.7078                11.2404                 7.1598

                     13                     14                     15
                      A                      A                      A
 Frequencies --    320.2303               333.1948               346.6602
 Red. masses --      3.0728                 1.1799                 3.2103
 Frc consts  --      0.1857                 0.0772                 0.2273
 IR Inten    --      9.8670                 0.4219                 5.5767

                     16                     17                     18
                      A                      A                      A
 Frequencies --    382.9601               423.6499               442.4593
 Red. masses --      3.5983                 3.8687                 2.4592
 Frc consts  --      0.3109                 0.4091                 0.2837
 IR Inten    --     15.1085                37.7327                 1.9075

                     19                     20                     21
                      A                      A                      A
 Frequencies --    510.9946               512.4081               536.2445
 Red. masses --      1.1939                 1.1882                 1.9082
 Frc consts  --      0.1837                 0.1838                 0.3233
 IR Inten    --     35.5269                59.4501                47.9258

                     22                     23                     24
                      A                      A                      A
 Frequencies --    550.4621               634.1311               657.1017
 Red. masses --      1.8569                 4.4519                 3.2013
 Frc consts  --      0.3315                 1.0548                 0.8144
 IR Inten    --     69.7098                 5.2293                 7.5536

                     25                     26                     27
                      A                      A                      A
 Frequencies --    678.5444               697.5909               714.2323
 Red. masses --      3.0440                 3.6966                 4.5625
 Frc consts  --      0.8258                 1.0599                 1.3713
 IR Inten    --      5.5472                 8.5954                14.2159

                     28                     29                     30
                      A                      A                      A
 Frequencies --    745.6574               781.8535               842.0834
 Red. masses --      2.5297                 5.6189                 1.9364
 Frc consts  --      0.8287                 2.0237                 0.8090
 IR Inten    --      2.1424                 2.2870                23.2760

                     31                     32                     33
                      A                      A                      A
 Frequencies --    843.5105               847.5752               867.3733
 Red. masses --      1.8402                 1.6640                 2.0146
 Frc consts  --      0.7714                 0.7043                 0.8930
 IR Inten    --     19.7765                 0.2914                 8.3707

                     34                     35                     36
                      A                      A                      A
 Frequencies --    877.5634               937.3189               939.0097
 Red. masses --      2.1470                 2.6057                 5.7414
 Frc consts  --      0.9742                 1.3488                 2.9827
 IR Inten    --     13.9115                 5.7138                10.6461

                     37                     38                     39
                      A                      A                      A
 Frequencies --    951.6326               960.0528              1005.6054
 Red. masses --      1.3554                 3.2090                 2.7989
 Frc consts  --      0.7232                 1.7427                 1.6676
 IR Inten    --      9.3448                 3.9929                10.1374

                     40                     41                     42
                      A                      A                      A
 Frequencies --   1016.3822              1044.3181              1093.3864
 Red. masses --      3.5495                 2.9157                 1.5457
 Frc consts  --      2.1604                 1.8735                 1.0887
 IR Inten    --     14.9555                 4.5633                 4.8052

                     43                     44                     45
                      A                      A                      A
 Frequencies --   1104.4745              1119.3013              1142.1894
 Red. masses --      1.7015                 1.3552                 1.8892
 Frc consts  --      1.2229                 1.0003                 1.4521
 IR Inten    --     22.2483                 3.5965                32.2447

                     46                     47                     48
                      A                      A                      A
 Frequencies --   1152.1796              1195.4039              1209.7611
 Red. masses --      2.1750                 1.6100                 1.6511
 Frc consts  --      1.7012                 1.3555                 1.4238
 IR Inten    --      7.3622                 9.4909                30.7053

                     49                     50                     51
                      A                      A                      A
 Frequencies --   1239.4816              1261.7029              1272.2343
 Red. masses --      1.6849                 2.0306                 1.4716
 Frc consts  --      1.5252                 1.9045                 1.4034
 IR Inten    --     83.6341                 5.3871                 6.2948

                     52                     53                     54
                      A                      A                      A
 Frequencies --   1282.0368              1303.1265              1331.6772
 Red. masses --      1.4953                 1.4028                 1.5303
 Frc consts  --      1.4480                 1.4035                 1.5989
 IR Inten    --     46.5431                68.2229               185.0744

                     55                     56                     57
                      A                      A                      A
 Frequencies --   1342.9819              1353.1063              1383.4378
 Red. masses --      1.4888                 1.5095                 1.3864
 Frc consts  --      1.5821                 1.6283                 1.5634
 IR Inten    --     73.0045                22.6055                 3.7374

                     58                     59                     60
                      A                      A                      A
 Frequencies --   1395.2236              1405.0079              1411.1855
 Red. masses --      3.2686                 1.9470                 1.2983
 Frc consts  --      3.7489                 2.2645                 1.5233
 IR Inten    --      6.9103               142.3289                 2.5096

                     61                     62                     63
                      A                      A                      A
 Frequencies --   1427.1296              1478.6865              1480.0526
 Red. masses --      2.7721                 1.1019                 1.2262
 Frc consts  --      3.3265                 1.4196                 1.5826
 IR Inten    --     26.8581                15.8203                17.8386

                     64                     65                     66
                      A                      A                      A
 Frequencies --   1499.9556              1500.3582              1519.2093
 Red. masses --      1.0914                 2.8203                 2.2017
 Frc consts  --      1.4468                 3.7406                 2.9939
 IR Inten    --     22.6674                35.5289               331.2424

                     67                     68                     69
                      A                      A                      A
 Frequencies --   1583.6554              1602.1336              1671.9794
 Red. masses --      1.1550                 4.2910                 1.0500
 Frc consts  --      1.7067                 6.4895                 1.7294
 IR Inten    --    103.3632                 6.4685                60.8997

                     70                     71                     72
                      A                      A                      A
 Frequencies --   1683.2029              1758.9212              1783.2193
 Red. masses --      1.0452                 8.4694                 8.7145
 Frc consts  --      1.7447                15.4381                16.3269
 IR Inten    --     29.3819               239.1683               416.9649

                     73                     74                     75
                      A                      A                      A
 Frequencies --   2812.0449              3030.7586              3049.0481
 Red. masses --      1.0879                 1.0847                 1.0612
 Frc consts  --      5.0685                 5.8706                 5.8126
 IR Inten    --   1244.9391                10.1371                13.1416

                     76                     77                     78
                      A                      A                      A
 Frequencies --   3057.1768              3094.2093              3096.0315
 Red. masses --      1.0640                 1.1031                 1.0604
 Frc consts  --      5.8592                 6.2225                 5.9887
 IR Inten    --      7.4508                 6.9197                 2.4213

                     79                     80                     81
                      A                      A                      A
 Frequencies --   3116.9116              3157.0512              3220.5498
 Red. masses --      1.1006                 1.1117                 1.0968
 Frc consts  --      6.2999                 6.5283                 6.7024
 IR Inten    --      2.3040                 0.2703                 4.0561

                     82                     83                     84
                      A                      A                      A
 Frequencies --   3248.5429              3450.4450              3507.1326
 Red. masses --      1.0992                 1.0529                 1.0927
 Frc consts  --      6.8346                 7.3858                 7.9187
 IR Inten    --      1.4069                73.0156                64.9745

                     85                     86                     87
                      A                      A                      A
 Frequencies --   3540.1364              3639.6277              3790.6969
 Red. masses --      1.0794                 1.0815                 1.0664
 Frc consts  --      7.9704                 8.4409                 9.0282
 IR Inten    --    191.2789                60.3613                81.4430

 - Thermochemistry -
 -------------------
 Temperature   298.150 Kelvin.  Pressure   1.00000 Atm.
 Atom     1 has atomic number  8 and mass  15.99491

 Molecular mass:   227.11442 amu.
 Principal axes and moments of inertia in atomic units:
                           1         2         3
     Eigenvalues --  2358.400245231.419006404.55906
           X            0.98116  -0.09561   0.16786
           Y           -0.19312  -0.46330   0.86491
           Z            0.00493   0.88103   0.47303
 This molecule is an asymmetric top.
 Rotational symmetry number  1.
 Warning -- assumption of classical behavior for rotation
           may cause significant error
 Rotational temperatures (Kelvin)      0.03673     0.01656     0.01352
 Rotational constants (GHZ):           0.76524     0.34498     0.28179
 Zero-point vibrational energy     680845.9 (Joules/Mol)
                                  162.72607 (Kcal/Mol)
 Warning -- explicit consideration of  22 degrees of freedom as
           vibrations may cause significant error
 Vibrational temperatures:     38.18    49.52    84.93    97.91   112.24
          (Kelvin)            161.83   215.76   229.17   255.01   337.40
                              360.17   404.50   460.74   479.39   498.77
                              550.99   609.54   636.60   735.21   737.24
                              771.54   791.99   912.37   945.42   976.27
                             1003.68  1027.62  1072.83  1124.91  1211.57
                             1213.62  1219.47  1247.96  1262.62  1348.59
                             1351.02  1369.19  1381.30  1446.84  1462.35
                             1502.54  1573.14  1589.09  1610.42  1643.35
                             1657.73  1719.92  1740.57  1783.34  1815.31
                             1830.46  1844.56  1874.91  1915.98  1932.25
                             1946.82  1990.46  2007.41  2021.49  2030.38
                             2053.32  2127.50  2129.46  2158.10  2158.68
                             2185.80  2278.52  2305.11  2405.60  2421.75
                             2530.69  2565.65  4045.90  4360.58  4386.89
                             4398.59  4451.87  4454.49  4484.53  4542.29
                             4633.65  4673.92  4964.41  5045.98  5093.46
                             5236.61  5453.96

 Zero-point correction=                           0.259321 (Hartree/Particle)
 Thermal correction to Energy=                    0.274871
 Thermal correction to Enthalpy=                  0.275815
 Thermal correction to Gibbs Free Energy=         0.214803
 Sum of electronic and zero-point Energies=           -796.488145
 Sum of electronic and thermal Energies=              -796.472595
 Sum of electronic and thermal Enthalpies=            -796.471651
 Sum of electronic and thermal Free Energies=         -796.532663

                     E (Thermal)             CV                S
                      KCal/Mol        Cal/Mol-Kelvin    Cal/Mol-Kelvin
 Total                  172.484             58.092            128.410
 Electronic               0.000              0.000              0.000
 Translational            0.889              2.981             42.163
 Rotational               0.889              2.981             32.735
 Vibrational            170.707             52.130             53.512
 Vibration     1          0.593              1.984              6.073
 Vibration     2          0.594              1.983              5.557
 Vibration     3          0.596              1.974              4.489
 Vibration     4          0.598              1.969              4.209
 Vibration     5          0.599              1.964              3.940
 Vibration     6          0.607              1.939              3.226
 Vibration     7          0.618              1.903              2.673
 Vibration     8          0.621              1.892              2.558
 Vibration     9          0.628              1.870              2.357
 Vibration    10          0.654              1.788              1.844
 Vibration    11          0.663              1.762              1.728
 Vibration    12          0.681              1.709              1.527
 Vibration    13          0.706              1.635              1.309
 Vibration    14          0.715              1.609              1.245
 Vibration    15          0.725              1.582              1.181
 Vibration    16          0.752              1.507              1.027
 Vibration    17          0.786              1.419              0.880
 Vibration    18          0.802              1.378              0.819
 Vibration    19          0.866              1.226              0.631
 Vibration    20          0.867              1.223              0.628
 Vibration    21          0.891              1.170              0.573
 Vibration    22          0.906              1.139              0.543

 Optimization completed.
    -- Stationary point found.
 Normal termination of Gaussian 09 at Sat Jul 24 02:42:37 2021.
