 Gaussian 09, Revision D.01,
 Gaussian 09:  ES64L-G09RevD.01 24-Apr-2013

 ----------------------------------------------------------------------
 # B3LYP/6-311G(d,p) EmpiricalDispersion=GD3BJ opt=calcfc freq=noraman
 nosymm integral(ultrafinegrid)
 ----------------------------------------------------------------------

 ------------------------------------------------------------
 Candidate Structure: Conf:301 OPT and FREQ calc in gas phase
 ------------------------------------------------------------
 Symbolic Z-matrix:
 Charge =  1 Multiplicity = 1

 SCF Done:  E(RB3LYP) =  -796.761972501     A.U. after   14 cycles
 SCF Done:  E(RB3LYP) =  -792.766263811     A.U. after   18 cycles
 SCF Done:  E(RB3LYP) =  -796.734321402     A.U. after   14 cycles
 SCF Done:  E(RB3LYP) =  -796.768926807     A.U. after   11 cycles
 SCF Done:  E(RB3LYP) =  -796.767106823     A.U. after   12 cycles
 SCF Done:  E(RB3LYP) =  -796.770820937     A.U. after   10 cycles
 SCF Done:  E(RB3LYP) =  -796.775163995     A.U. after   12 cycles
 SCF Done:  E(RB3LYP) =  -796.775988353     A.U. after   12 cycles
 SCF Done:  E(RB3LYP) =  -796.776227573     A.U. after   12 cycles
 SCF Done:  E(RB3LYP) =  -796.776745558     A.U. after   11 cycles
 SCF Done:  E(RB3LYP) =  -796.776778295     A.U. after   10 cycles
 SCF Done:  E(RB3LYP) =  -796.776820424     A.U. after   10 cycles
 SCF Done:  E(RB3LYP) =  -796.776827388     A.U. after    9 cycles
 SCF Done:  E(RB3LYP) =  -796.776831031     A.U. after    9 cycles
 SCF Done:  E(RB3LYP) =  -796.776831905     A.U. after    7 cycles
 SCF Done:  E(RB3LYP) =  -796.776831996     A.U. after    7 cycles
 Optimization completed.
    -- Stationary point found.
 Normal termination of Gaussian 09 at Sat Jul 24 02:03:26 2021.

 ----------------------------------------------------------------------
 #N Geom=AllCheck Guess=TCheck SCRF=Check GenChk RB3LYP/6-311G(d,p) Fre
 q
 ----------------------------------------------------------------------

 Structure from the checkpoint file:  "conf-301.chk"
 ------------------------------------------------------------
 Candidate Structure: Conf:301 OPT and FREQ calc in gas phase
 ------------------------------------------------------------
 Charge =  1 Multiplicity = 1

                          Input orientation:
 ---------------------------------------------------------------------
 Center     Atomic      Atomic             Coordinates (Angstroms)
 Number     Number       Type             X           Y           Z
 ---------------------------------------------------------------------
      1          8           0       -0.039118   -0.259789   -1.652114
      2          6           0        0.405959    0.686188   -0.994744
      3          7           0       -0.370171    1.479663   -0.236397
      4          6           0       -1.733478    1.135279    0.113152
      5          6           0       -2.482170    2.428145    0.394901
      6          8           0       -3.802705    2.222408    0.439827
      7          8           0       -1.936018    3.479948    0.601721
      8          6           0       -1.782314    0.227363    1.396454
      9          6           0       -0.862675   -0.934210    1.269114
     10          6           0        0.494390   -1.016412    1.467269
     11          7           0        0.993964   -2.188036    0.936677
     12          6           0       -0.054637   -2.832933    0.452515
     13          7           0       -1.192271   -2.113949    0.632595
     14          6           0        1.904533    0.985759   -0.938057
     15          6           0        2.752508   -0.019987   -1.716496
     16          7           0        2.291128   -1.433558   -1.470553
     17          1           0        0.003317    2.312094    0.202183
     18          1           0       -2.190488    0.610254   -0.724729
     19          1           0       -4.235866    3.060757    0.667348
     20          1           0       -1.478840    0.829992    2.255588
     21          1           0       -2.817185   -0.077860    1.563070
     22          1           0        1.132967   -0.301253    1.960979
     23          1           0       -0.043383   -3.806916   -0.010913
     24          1           0       -2.118000   -2.389701    0.340418
     25          1           0        2.210317    1.008757    0.110406
     26          1           0        2.101195    1.982655   -1.342636
     27          1           0        2.664141    0.141225   -2.790482
     28          1           0        3.801271    0.057282   -1.434881
     29          1           0        2.861184   -2.113184   -1.973034
     30          1           0        1.303617   -1.444057   -1.799873
     31          1           0        2.219019   -1.716339   -0.463629
 ---------------------------------------------------------------------

 SCF Done:  E(RB3LYP) =  -796.776831996     A.U. after    1 cycles

 Alpha  occ. eigenvalues --  -19.29106 -19.24115 -19.23652 -14.55965 -14.50270
 Alpha  occ. eigenvalues --  -14.48098 -14.43595 -10.43118 -10.42844 -10.38766
 Alpha  occ. eigenvalues --  -10.36332 -10.36209 -10.34348 -10.34069 -10.32429
 Alpha  occ. eigenvalues --  -10.31660  -1.23909  -1.19753  -1.15550  -1.15260
 Alpha  occ. eigenvalues --   -1.13612  -1.07844  -1.01228  -0.95098  -0.92964
 Alpha  occ. eigenvalues --   -0.88442  -0.82798  -0.80732  -0.75843  -0.75315
 Alpha  occ. eigenvalues --   -0.73633  -0.73088  -0.72479  -0.71404  -0.68155
 Alpha  occ. eigenvalues --   -0.66279  -0.64237  -0.63228  -0.61839  -0.61293
 Alpha  occ. eigenvalues --   -0.60296  -0.59249  -0.58700  -0.57325  -0.56123
 Alpha  occ. eigenvalues --   -0.55516  -0.55159  -0.54527  -0.54160  -0.53537
 Alpha  occ. eigenvalues --   -0.52846  -0.50917  -0.50298  -0.45033  -0.43380
 Alpha  occ. eigenvalues --   -0.42078  -0.41871  -0.40969  -0.40629  -0.36531
 Alpha virt. eigenvalues --   -0.13917  -0.13260  -0.12285  -0.11176  -0.09480
 Alpha virt. eigenvalues --   -0.08686  -0.07675  -0.06866  -0.06464  -0.05792
 Alpha virt. eigenvalues --   -0.04333  -0.03367  -0.03014  -0.02155  -0.01628

 Mulliken charges:
               1
     1  O   -0.431612
     2  C    0.420843
     3  N   -0.382478
     4  C   -0.082624
     5  C    0.380788
     6  O   -0.310201
     7  O   -0.315675
     8  C   -0.171649
     9  C    0.119380
    10  C   -0.078978
    11  N   -0.375331
    12  C    0.167899
    13  N   -0.327065
    14  C   -0.296558
    15  C   -0.118223
    16  N   -0.341074
    17  H    0.255321
    18  H    0.183933
    19  H    0.283266
    20  H    0.155025
    21  H    0.167012
    22  H    0.123423
    23  H    0.142039
    24  H    0.253134
    25  H    0.164015
    26  H    0.188660
    27  H    0.181249
    28  H    0.181285
    29  H    0.281768
    30  H    0.299300
    31  H    0.283129
 Sum of Mulliken charges =   1.00000

 Dipole moment (field-independent basis, Debye):
    X=              2.7390    Y=             -2.3466    Z=             -3.2163  Tot=              4.8325
 Quadrupole moment (field-independent basis, Debye-Ang):
   XX=            -49.5263   YY=            -73.5016   ZZ=            -83.8019
   XY=             -6.4264   XZ=            -19.7768   YZ=              8.6476

  Exact polarizability: 142.469 -13.447 137.405 -14.911  10.718  98.791
 Approx polarizability: 210.799  -2.097 208.787  -3.065  29.868 155.249

                      1                      2                      3
                      A                      A                      A
 Frequencies --     56.4642                68.2079               100.6826
 Red. masses --     10.6110                 4.8172                 4.9909
 Frc consts  --      0.0199                 0.0132                 0.0298
 IR Inten    --      1.6008                 0.2990                 4.0273

                      4                      5                      6
                      A                      A                      A
 Frequencies --    109.7224               114.7061               130.0330
 Red. masses --      3.7257                 5.2355                 3.4069
 Frc consts  --      0.0264                 0.0406                 0.0339
 IR Inten    --      5.3686                 1.5669                13.6607

                      7                      8                      9
                      A                      A                      A
 Frequencies --    153.2347               157.4134               178.0203
 Red. masses --      4.7452                 4.4461                 3.8336
 Frc consts  --      0.0656                 0.0649                 0.0716
 IR Inten    --      8.9965                10.1768                 6.1940

                     10                     11                     12
                      A                      A                      A
 Frequencies --    207.9527               264.3371               308.4127
 Red. masses --      2.6011                 4.6748                 5.6178
 Frc consts  --      0.0663                 0.1925                 0.3148
 IR Inten    --     34.7420                42.4517                 1.0142

                     13                     14                     15
                      A                      A                      A
 Frequencies --    317.3570               346.7761               359.0307
 Red. masses --      3.5727                 2.9174                 2.5464
 Frc consts  --      0.2120                 0.2067                 0.1934
 IR Inten    --      2.2744                 8.3957                35.9982

                     16                     17                     18
                      A                      A                      A
 Frequencies --    396.5648               423.3606               445.6529
 Red. masses --      2.1583                 2.4092                 2.0389
 Frc consts  --      0.2000                 0.2544                 0.2386
 IR Inten    --     19.4238                 5.8090                 3.5307

                     19                     20                     21
                      A                      A                      A
 Frequencies --    536.0179               553.2219               597.3473
 Red. masses --      1.9874                 3.6586                 1.6089
 Frc consts  --      0.3364                 0.6597                 0.3382
 IR Inten    --     58.8503                17.3172               149.5528

                     22                     23                     24
                      A                      A                      A
 Frequencies --    611.5106               619.1070               638.8807
 Red. masses --      1.3638                 1.4773                 3.7290
 Frc consts  --      0.3005                 0.3336                 0.8968
 IR Inten    --     20.4321                10.8149                80.9681

                     25                     26                     27
                      A                      A                      A
 Frequencies --    683.0487               690.6861               696.1115
 Red. masses --      2.5318                 2.9769                 3.1251
 Frc consts  --      0.6960                 0.8367                 0.8922
 IR Inten    --     69.1059                19.3222                 1.5609

                     28                     29                     30
                      A                      A                      A
 Frequencies --    722.3467               774.1011               827.7538
 Red. masses --      3.4010                 4.1688                 1.4234
 Frc consts  --      1.0456                 1.4718                 0.5746
 IR Inten    --      2.1079                15.4634                10.5878

                     31                     32                     33
                      A                      A                      A
 Frequencies --    842.1051               852.1120               865.3187
 Red. masses --      1.5353                 2.1682                 2.2779
 Frc consts  --      0.6415                 0.9275                 1.0049
 IR Inten    --     32.3526                 9.3885                24.7504

                     34                     35                     36
                      A                      A                      A
 Frequencies --    881.8301               924.8205               953.7120
 Red. masses --      2.2500                 2.6532                 5.2483
 Frc consts  --      1.0309                 1.3370                 2.8126
 IR Inten    --      0.5793                14.3615                12.8228

                     37                     38                     39
                      A                      A                      A
 Frequencies --    970.9535               979.2461              1003.9819
 Red. masses --      1.5901                 2.9179                 3.1138
 Frc consts  --      0.8832                 1.6486                 1.8492
 IR Inten    --     11.4814                 5.4470                10.3098

                     40                     41                     42
                      A                      A                      A
 Frequencies --   1033.9809              1046.8982              1099.6253
 Red. masses --      3.4896                 2.9092                 2.1343
 Frc consts  --      2.1981                 1.8786                 1.5206
 IR Inten    --      3.8359                20.6136                 7.2242

                     43                     44                     45
                      A                      A                      A
 Frequencies --   1128.3470              1132.4793              1136.2139
 Red. masses --      1.4407                 1.5485                 1.8440
 Frc consts  --      1.0807                 1.1701                 1.4026
 IR Inten    --     72.4527                17.0002                51.6047

                     46                     47                     48
                      A                      A                      A
 Frequencies --   1147.9024              1172.1351              1207.8990
 Red. masses --      1.7376                 2.0201                 1.8197
 Frc consts  --      1.3490                 1.6352                 1.5643
 IR Inten    --      6.6584               214.3305                 7.7784

                     49                     50                     51
                      A                      A                      A
 Frequencies --   1250.9300              1258.8008              1279.5399
 Red. masses --      1.5877                 1.6739                 1.7434
 Frc consts  --      1.4638                 1.5628                 1.6817
 IR Inten    --      7.8062                35.8902                 2.7555

                     52                     53                     54
                      A                      A                      A
 Frequencies --   1284.0496              1288.2192              1332.5429
 Red. masses --      1.4634                 1.3793                 1.3752
 Frc consts  --      1.4216                 1.3487                 1.4387
 IR Inten    --      0.9972                 9.6932                15.5163

                     55                     56                     57
                      A                      A                      A
 Frequencies --   1342.6079              1353.2228              1386.7074
 Red. masses --      1.3633                 1.2580                 1.6640
 Frc consts  --      1.4479                 1.3573                 1.8853
 IR Inten    --     34.1329                 7.2082                48.5721

                     58                     59                     60
                      A                      A                      A
 Frequencies --   1394.6875              1419.4755              1427.4047
 Red. masses --      3.1230                 2.4102                 1.3455
 Frc consts  --      3.5791                 2.8613                 1.6152
 IR Inten    --      5.8918               140.5415                12.0819

                     61                     62                     63
                      A                      A                      A
 Frequencies --   1436.6427              1467.3416              1486.9516
 Red. masses --      2.6657                 1.0972                 1.2497
 Frc consts  --      3.2416                 1.3918                 1.6280
 IR Inten    --     31.0092                22.4050                43.9821

                     64                     65                     66
                      A                      A                      A
 Frequencies --   1495.0787              1503.4640              1510.0834
 Red. masses --      1.4476                 1.7484                 1.1260
 Frc consts  --      1.9065                 2.3285                 1.5128
 IR Inten    --     95.7265                81.8230                36.7828

                     67                     68                     69
                      A                      A                      A
 Frequencies --   1563.8645              1611.3869              1640.8196
 Red. masses --      2.2728                 4.2160                 1.1236
 Frc consts  --      3.2750                 6.4499                 1.7823
 IR Inten    --    203.4762                 8.3447               125.1145

                     70                     71                     72
                      A                      A                      A
 Frequencies --   1690.3243              1715.5731              1832.1759
 Red. masses --      1.1118                 3.8697                10.2641
 Frc consts  --      1.8716                 6.7104                20.3004
 IR Inten    --    199.2199                95.5384               267.0707

                     73                     74                     75
                      A                      A                      A
 Frequencies --   3033.3131              3058.1267              3060.4457
 Red. masses --      1.0804                 1.0614                 1.0606
 Frc consts  --      5.8572                 5.8484                 5.8532
 IR Inten    --    541.9855                10.9732                 5.1788

                     76                     77                     78
                      A                      A                      A
 Frequencies --   3090.1841              3098.6926              3104.0277
 Red. masses --      1.0764                 1.0855                 1.0989
 Frc consts  --      6.0563                 6.1408                 6.2384
 IR Inten    --      3.4703                 6.7627                 1.3610

                     79                     80                     81
                      A                      A                      A
 Frequencies --   3119.3238              3145.7274              3164.2989
 Red. masses --      1.0909                 1.1061                 1.0694
 Frc consts  --      6.2537                 6.4487                 6.3085
 IR Inten    --      4.5992                31.7878               245.2345

                     82                     83                     84
                      A                      A                      A
 Frequencies --   3240.7059              3251.0737              3508.9530
 Red. masses --      1.0969                 1.1001                 1.0785
 Frc consts  --      6.7874                 6.8510                 7.8242
 IR Inten    --      1.5214                 2.7350               101.7842

                     85                     86                     87
                      A                      A                      A
 Frequencies --   3579.4066              3637.7621              3740.4278
 Red. masses --      1.0780                 1.0821                 1.0646
 Frc consts  --      8.1373                 8.4369                 8.7753
 IR Inten    --     93.0686                89.5886               133.2707

 - Thermochemistry -
 -------------------
 Temperature   298.150 Kelvin.  Pressure   1.00000 Atm.
 Atom     1 has atomic number  8 and mass  15.99491

 Molecular mass:   227.11442 amu.
 Principal axes and moments of inertia in atomic units:
                           1         2         3
     Eigenvalues --  2163.660854481.866535856.60344
           X            0.73541   0.46854   0.48954
           Y           -0.64664   0.70119   0.30030
           Z           -0.20256  -0.53740   0.81864
 This molecule is an asymmetric top.
 Rotational symmetry number  1.
 Warning -- assumption of classical behavior for rotation
           may cause significant error
 Rotational temperatures (Kelvin)      0.04003     0.01933     0.01479
 Rotational constants (GHZ):           0.83411     0.40268     0.30815
 Zero-point vibrational energy     683498.3 (Joules/Mol)
                                  163.36001 (Kcal/Mol)
 Warning -- explicit consideration of  23 degrees of freedom as
           vibrations may cause significant error
 Vibrational temperatures:     81.24    98.14   144.86   157.87   165.04
          (Kelvin)            187.09   220.47   226.48   256.13   299.20
                              380.32   443.74   456.61   498.93   516.56
                              570.57   609.12   641.19   771.21   795.96
                              859.45   879.83   890.76   919.21   982.75
                              993.74  1001.55  1039.29  1113.76  1190.95
                             1211.60  1226.00  1245.00  1268.76  1330.61
                             1372.18  1396.98  1408.91  1444.50  1487.67
                             1506.25  1582.11  1623.44  1629.38  1634.76
                             1651.57  1686.44  1737.90  1799.81  1811.13
                             1840.97  1847.46  1853.46  1917.23  1931.71
                             1946.98  1995.16  2006.64  2042.31  2053.71
                             2067.01  2111.17  2139.39  2151.08  2163.15
                             2172.67  2250.05  2318.42  2360.77  2432.00
                             2468.32  2636.09  4364.26  4399.96  4403.29
                             4446.08  4458.32  4466.00  4488.01  4525.99
                             4552.71  4662.65  4677.56  5048.59  5149.96
                             5233.92  5381.63

 Zero-point correction=                           0.260331 (Hartree/Particle)
 Thermal correction to Energy=                    0.275329
 Thermal correction to Enthalpy=                  0.276273
 Thermal correction to Gibbs Free Energy=         0.218452
 Sum of electronic and zero-point Energies=           -796.516501
 Sum of electronic and thermal Energies=              -796.501503
 Sum of electronic and thermal Enthalpies=            -796.500559
 Sum of electronic and thermal Free Energies=         -796.558380

                     E (Thermal)             CV                S
                      KCal/Mol        Cal/Mol-Kelvin    Cal/Mol-Kelvin
 Total                  172.772             57.539            121.694
 Electronic               0.000              0.000              0.000
 Translational            0.889              2.981             42.163
 Rotational               0.889              2.981             32.407
 Vibrational            170.994             51.577             47.124
 Vibration     1          0.596              1.975              4.577
 Vibration     2          0.598              1.969              4.204
 Vibration     3          0.604              1.949              3.441
 Vibration     4          0.606              1.941              3.274
 Vibration     5          0.608              1.937              3.188
 Vibration     6          0.612              1.923              2.946
 Vibration     7          0.619              1.899              2.632
 Vibration     8          0.621              1.894              2.581
 Vibration     9          0.628              1.869              2.349
 Vibration    10          0.641              1.829              2.062
 Vibration    11          0.671              1.738              1.633
 Vibration    12          0.698              1.658              1.371
 Vibration    13          0.704              1.640              1.324
 Vibration    14          0.725              1.582              1.181
 Vibration    15          0.734              1.557              1.126
 Vibration    16          0.763              1.478              0.975
 Vibration    17          0.786              1.419              0.881
 Vibration    18          0.805              1.370              0.809
 Vibration    19          0.891              1.170              0.574
 Vibration    20          0.909              1.133              0.538
 Vibration    21          0.955              1.037              0.454
 Vibration    22          0.971              1.007              0.430
 Vibration    23          0.979              0.992              0.418

 Optimization completed.
    -- Stationary point found.
 Normal termination of Gaussian 09 at Sat Jul 24 02:44:08 2021.
