 Gaussian 09, Revision D.01,
 Gaussian 09:  ES64L-G09RevD.01 24-Apr-2013

 ----------------------------------------------------------------------
 # B3LYP/6-311G(d,p) EmpiricalDispersion=GD3BJ opt=calcfc freq=noraman
 nosymm integral(ultrafinegrid)
 ----------------------------------------------------------------------

 ------------------------------------------------------------
 Candidate Structure: Conf:318 OPT and FREQ calc in gas phase
 ------------------------------------------------------------
 Symbolic Z-matrix:
 Charge =  1 Multiplicity = 1

 SCF Done:  E(RB3LYP) =  -796.714925024     A.U. after   17 cycles
 SCF Done:  E(RB3LYP) =  -796.721294279     A.U. after   14 cycles
 SCF Done:  E(RB3LYP) =  -796.722411815     A.U. after   15 cycles
 SCF Done:  E(RB3LYP) =  -796.722770853     A.U. after   15 cycles
 SCF Done:  E(RB3LYP) =  -796.713543152     A.U. after   14 cycles
 SCF Done:  E(RB3LYP) =  -796.723165969     A.U. after   10 cycles
 SCF Done:  E(RB3LYP) =  -796.722682020     A.U. after   15 cycles
 SCF Done:  E(RB3LYP) =  -796.724562900     A.U. after   11 cycles
 SCF Done:  E(RB3LYP) =  -796.719060196     A.U. after   14 cycles
 SCF Done:  E(RB3LYP) =  -796.725502293     A.U. after   11 cycles
 SCF Done:  E(RB3LYP) =  -796.752492052     A.U. after   11 cycles
 SCF Done:  E(RB3LYP) =  -796.752520651     A.U. after   10 cycles
 SCF Done:  E(RB3LYP) =  -796.752534066     A.U. after   10 cycles
 SCF Done:  E(RB3LYP) =  -796.752539850     A.U. after    9 cycles
 SCF Done:  E(RB3LYP) =  -796.752542835     A.U. after    8 cycles
 SCF Done:  E(RB3LYP) =  -796.752544636     A.U. after    9 cycles
 SCF Done:  E(RB3LYP) =  -796.752545902     A.U. after    8 cycles
 SCF Done:  E(RB3LYP) =  -796.752546746     A.U. after    8 cycles
 SCF Done:  E(RB3LYP) =  -796.752546965     A.U. after    7 cycles
 Optimization completed.
    -- Stationary point found.
 Normal termination of Gaussian 09 at Sat Jul 24 02:59:34 2021.

 ----------------------------------------------------------------------
 #N Geom=AllCheck Guess=TCheck SCRF=Check GenChk RB3LYP/6-311G(d,p) Fre
 q
 ----------------------------------------------------------------------

 Structure from the checkpoint file:  "conf-318.chk"
 ------------------------------------------------------------
 Candidate Structure: Conf:318 OPT and FREQ calc in gas phase
 ------------------------------------------------------------
 Charge =  1 Multiplicity = 1

                          Input orientation:
 ---------------------------------------------------------------------
 Center     Atomic      Atomic             Coordinates (Angstroms)
 Number     Number       Type             X           Y           Z
 ---------------------------------------------------------------------
      1          8           0        0.601594    0.702179    1.694079
      2          6           0        0.884227   -0.316565    1.087608
      3          7           0        0.058503   -1.377924    0.923844
      4          6           0       -1.363175   -1.412843    1.220634
      5          6           0       -1.930847   -2.550495    0.349954
      6          8           0       -3.165676   -2.968539    0.647226
      7          8           0       -1.317345   -3.019738   -0.570794
      8          6           0       -2.152385   -0.085818    0.945849
      9          6           0       -1.585016    0.718653   -0.174471
     10          6           0       -0.860566    0.363050   -1.281127
     11          7           0       -0.228909    1.474325   -1.811569
     12          6           0       -0.610619    2.502409   -1.066559
     13          7           0       -1.435204    2.088947   -0.080407
     14          6           0        2.273593   -0.495048    0.456003
     15          6           0        2.799567    0.781631   -0.196670
     16          7           0        2.410752    0.913554   -1.654911
     17          1           0        0.332694   -2.106039    0.275300
     18          1           0       -1.523901   -1.666614    2.274165
     19          1           0       -3.500974   -2.566405    1.458953
     20          1           0       -3.202272   -0.341328    0.775292
     21          1           0       -2.108795    0.521122    1.850082
     22          1           0       -0.723713   -0.621610   -1.696738
     23          1           0       -0.322305    3.531726   -1.207400
     24          1           0       -1.809605    2.670222    0.654870
     25          1           0        2.315125   -1.343328   -0.234012
     26          1           0        2.951453   -0.737902    1.279132
     27          1           0        3.887636    0.812215   -0.163517
     28          1           0        2.400564    1.651464    0.325485
     29          1           0        2.625504    0.059352   -2.172629
     30          1           0        2.944606    1.666308   -2.093142
     31          1           0        1.355441    1.153281   -1.814331
 ---------------------------------------------------------------------

 SCF Done:  E(RB3LYP) =  -796.752546965     A.U. after    1 cycles

 Alpha  occ. eigenvalues --  -19.29604 -19.23933 -19.22110 -14.56829 -14.50842
 Alpha  occ. eigenvalues --  -14.47175 -14.44828 -10.43679 -10.41182 -10.38559
 Alpha  occ. eigenvalues --  -10.37245 -10.37127 -10.34628 -10.33799 -10.33127
 Alpha  occ. eigenvalues --  -10.32135  -1.24111  -1.18081  -1.16400  -1.16101
 Alpha  occ. eigenvalues --   -1.14103  -1.06952  -1.02108  -0.94953  -0.93005
 Alpha  occ. eigenvalues --   -0.88511  -0.82973  -0.80403  -0.76512  -0.75835
 Alpha  occ. eigenvalues --   -0.73769  -0.73195  -0.72021  -0.71542  -0.69006
 Alpha  occ. eigenvalues --   -0.67680  -0.64935  -0.63596  -0.62871  -0.60569
 Alpha  occ. eigenvalues --   -0.59986  -0.58553  -0.58027  -0.57751  -0.56483
 Alpha  occ. eigenvalues --   -0.55803  -0.55350  -0.54435  -0.53503  -0.53269
 Alpha  occ. eigenvalues --   -0.52092  -0.50891  -0.49958  -0.45361  -0.44436
 Alpha  occ. eigenvalues --   -0.43038  -0.41349  -0.40137  -0.39613  -0.36959
 Alpha virt. eigenvalues --   -0.14005  -0.13726  -0.12456  -0.12218  -0.10164
 Alpha virt. eigenvalues --   -0.09589  -0.08751  -0.07858  -0.07314  -0.05526
 Alpha virt. eigenvalues --   -0.04537  -0.04285  -0.03491  -0.02795  -0.01682

 Mulliken charges:
               1
     1  O   -0.373111
     2  C    0.359863
     3  N   -0.392834
     4  C   -0.126327
     5  C    0.419623
     6  O   -0.265243
     7  O   -0.313689
     8  C   -0.195787
     9  C    0.124252
    10  C   -0.061542
    11  N   -0.408880
    12  C    0.194657
    13  N   -0.316783
    14  C   -0.257095
    15  C   -0.136957
    16  N   -0.353980
    17  H    0.245765
    18  H    0.184750
    19  H    0.263830
    20  H    0.158507
    21  H    0.164941
    22  H    0.134085
    23  H    0.147087
    24  H    0.256302
    25  H    0.131154
    26  H    0.191258
    27  H    0.174065
    28  H    0.187402
    29  H    0.274688
    30  H    0.282989
    31  H    0.307011
 Sum of Mulliken charges =   1.00000

 Dipole moment (field-independent basis, Debye):
    X=              4.2676    Y=              3.8817    Z=             -0.5064  Tot=              5.7911
 Quadrupole moment (field-independent basis, Debye-Ang):
   XX=            -49.5932   YY=            -79.0436   ZZ=            -83.0364
   XY=              2.0408   XZ=            -25.8486   YZ=            -12.6078

  Exact polarizability: 133.889  12.006 130.582 -19.565  -3.763 108.361
 Approx polarizability: 187.223   8.633 206.380 -37.008  15.578 180.784

                      1                      2                      3
                      A                      A                      A
 Frequencies --     36.7987                60.8522                72.7151
 Red. masses --      4.8053                 3.4970                 7.2615
 Frc consts  --      0.0038                 0.0076                 0.0226
 IR Inten    --      5.1017                 6.0792                 5.8695

                      4                      5                      6
                      A                      A                      A
 Frequencies --     92.2972               103.2891               130.6738
 Red. masses --      4.6633                 4.6745                 4.1796
 Frc consts  --      0.0234                 0.0294                 0.0421
 IR Inten    --      7.5476                 0.1981                24.2185

                      7                      8                      9
                      A                      A                      A
 Frequencies --    148.8769               179.0903               213.1662
 Red. masses --      5.1472                 6.5592                 4.4160
 Frc consts  --      0.0672                 0.1239                 0.1182
 IR Inten    --      9.5263                12.8639                 3.2294

                     10                     11                     12
                      A                      A                      A
 Frequencies --    260.0846               286.4459               294.9747
 Red. masses --      2.9870                 3.2614                 5.1890
 Frc consts  --      0.1190                 0.1577                 0.2660
 IR Inten    --      6.6175                82.1989                 7.5982

                     13                     14                     15
                      A                      A                      A
 Frequencies --    309.2310               325.0292               340.2524
 Red. masses --      3.0382                 3.2803                 4.1432
 Frc consts  --      0.1712                 0.2042                 0.2826
 IR Inten    --      9.5477                17.6802                20.2081

                     16                     17                     18
                      A                      A                      A
 Frequencies --    384.4917               443.2579               475.9355
 Red. masses --      1.9210                 2.0421                 1.4043
 Frc consts  --      0.1673                 0.2364                 0.1874
 IR Inten    --      2.5653                31.9199                46.8826

                     19                     20                     21
                      A                      A                      A
 Frequencies --    506.1954               529.2501               606.4242
 Red. masses --      1.6743                 2.6106                 1.6427
 Frc consts  --      0.2528                 0.4308                 0.3559
 IR Inten    --     24.3221                50.5337                30.0088

                     22                     23                     24
                      A                      A                      A
 Frequencies --    609.5942               625.9193               652.3220
 Red. masses --      2.1068                 5.0713                 1.9512
 Frc consts  --      0.4613                 1.1706                 0.4892
 IR Inten    --    117.6480                 5.3403                26.7570

                     25                     26                     27
                      A                      A                      A
 Frequencies --    665.5096               693.8018               707.9519
 Red. masses --      2.1704                 3.4913                 3.2865
 Frc consts  --      0.5664                 0.9902                 0.9705
 IR Inten    --     23.5662                19.2121                 6.7224

                     28                     29                     30
                      A                      A                      A
 Frequencies --    721.2367               783.6640               824.2688
 Red. masses --      3.8825                 4.7898                 1.6361
 Frc consts  --      1.1899                 1.7331                 0.6550
 IR Inten    --      0.5504                 3.9436                 4.8469

                     31                     32                     33
                      A                      A                      A
 Frequencies --    836.2967               844.4297               869.9724
 Red. masses --      2.2208                 2.8824                 1.4668
 Frc consts  --      0.9151                 1.2110                 0.6541
 IR Inten    --      5.9276                10.3395                18.7379

                     34                     35                     36
                      A                      A                      A
 Frequencies --    896.8239               925.6086               945.7035
 Red. masses --      2.3544                 2.8518                 1.6777
 Frc consts  --      1.1157                 1.4395                 0.8840
 IR Inten    --     21.6173                 7.8314                15.7736

                     37                     38                     39
                      A                      A                      A
 Frequencies --    962.5677               972.5442              1019.2219
 Red. masses --      2.7336                 4.1734                 2.7287
 Frc consts  --      1.4923                 2.3257                 1.6701
 IR Inten    --      8.9819                 9.8164                 4.3098

                     40                     41                     42
                      A                      A                      A
 Frequencies --   1031.6379              1041.3946              1100.2970
 Red. masses --      3.0954                 2.8007                 2.0010
 Frc consts  --      1.9410                 1.7896                 1.4273
 IR Inten    --     11.2751                 3.4270                 2.4866

                     43                     44                     45
                      A                      A                      A
 Frequencies --   1128.2605              1136.5877              1152.5686
 Red. masses --      1.4333                 2.2602                 1.4909
 Frc consts  --      1.0750                 1.7203                 1.1669
 IR Inten    --      9.9790                35.6529                18.7335

                     46                     47                     48
                      A                      A                      A
 Frequencies --   1158.4064              1183.1593              1221.6346
 Red. masses --      1.9436                 1.6718                 1.5856
 Frc consts  --      1.5367                 1.3789                 1.3942
 IR Inten    --      2.2136                 5.1851                11.8529

                     49                     50                     51
                      A                      A                      A
 Frequencies --   1246.5349              1254.3039              1270.8863
 Red. masses --      1.5553                 1.5798                 1.2990
 Frc consts  --      1.4239                 1.4644                 1.2362
 IR Inten    --     61.6703                 1.4461                19.7171

                     52                     53                     54
                      A                      A                      A
 Frequencies --   1289.8725              1303.1601              1308.3218
 Red. masses --      1.6454                 1.5568                 1.6914
 Frc consts  --      1.6129                 1.5577                 1.7058
 IR Inten    --    169.4006                59.5123               157.9424

                     55                     56                     57
                      A                      A                      A
 Frequencies --   1336.4139              1350.0404              1377.5222
 Red. masses --      1.2183                 2.8122                 1.4829
 Frc consts  --      1.2820                 3.0199                 1.6579
 IR Inten    --      0.7828                87.5715                56.3727

                     58                     59                     60
                      A                      A                      A
 Frequencies --   1405.5658              1413.5508              1419.5929
 Red. masses --      1.5072                 1.4954                 1.8974
 Frc consts  --      1.7544                 1.7605                 2.2529
 IR Inten    --     78.7746                 5.6207                20.2770

                     61                     62                     63
                      A                      A                      A
 Frequencies --   1446.6820              1461.8692              1478.4309
 Red. masses --      2.5566                 1.0842                 1.2335
 Frc consts  --      3.1525                 1.3651                 1.5885
 IR Inten    --     19.0722                19.0061                32.1306

                     64                     65                     66
                      A                      A                      A
 Frequencies --   1502.8411              1510.0296              1556.1607
 Red. masses --      1.2124                 2.1528                 1.8327
 Frc consts  --      1.6134                 2.8921                 2.6148
 IR Inten    --     23.5068                23.4042               230.6365

                     67                     68                     69
                      A                      A                      A
 Frequencies --   1578.9982              1622.0971              1659.5470
 Red. masses --      1.1595                 4.1654                 1.0352
 Frc consts  --      1.7033                 6.4574                 1.6798
 IR Inten    --     88.1668                25.4415                24.3351

                     70                     71                     72
                      A                      A                      A
 Frequencies --   1709.6224              1766.7745              1840.4248
 Red. masses --      1.0466                 9.0518                 9.4197
 Frc consts  --      1.8024                16.6474                18.7985
 IR Inten    --     24.6380               212.9688               155.2730

                     73                     74                     75
                      A                      A                      A
 Frequencies --   2287.2665              3029.4964              3043.7276
 Red. masses --      1.1127                 1.0837                 1.0630
 Frc consts  --      3.4297                 5.8600                 5.8022
 IR Inten    --   2091.8986                14.6127                 7.3801

                     76                     77                     78
                      A                      A                      A
 Frequencies --   3047.5807              3081.8646              3091.9632
 Red. masses --      1.0677                 1.0841                 1.0753
 Frc consts  --      5.8428                 6.0667                 6.0570
 IR Inten    --     17.3817                 4.9712                 4.9158

                     79                     80                     81
                      A                      A                      A
 Frequencies --   3107.9899              3141.4968              3253.1177
 Red. masses --      1.0961                 1.1102                 1.0974
 Frc consts  --      6.2380                 6.4554                 6.8425
 IR Inten    --      1.8953                 0.4778                 1.6027

                     82                     83                     84
                      A                      A                      A
 Frequencies --   3258.8764              3449.4162              3507.6597
 Red. masses --      1.1015                 1.0519                 1.0925
 Frc consts  --      6.8927                 7.3745                 7.9197
 IR Inten    --      3.1359                57.4873                53.6769

                     85                     86                     87
                      A                      A                      A
 Frequencies --   3552.1038              3637.8793              3794.1386
 Red. masses --      1.0769                 1.0823                 1.0664
 Frc consts  --      8.0056                 8.4393                 9.0448
 IR Inten    --    102.3071                99.3234                70.4644

 - Thermochemistry -
 -------------------
 Temperature   298.150 Kelvin.  Pressure   1.00000 Atm.
 Atom     1 has atomic number  8 and mass  15.99491

 Molecular mass:   227.11442 amu.
 Principal axes and moments of inertia in atomic units:
                           1         2         3
     Eigenvalues --  2286.976854248.848235032.60253
           X            0.69798   0.71595  -0.01530
           Y            0.67724  -0.65300   0.33902
           Z           -0.23273   0.24700   0.94065
 This molecule is an asymmetric top.
 Rotational symmetry number  1.
 Warning -- assumption of classical behavior for rotation
           may cause significant error
 Rotational temperatures (Kelvin)      0.03787     0.02039     0.01721
 Rotational constants (GHZ):           0.78914     0.42476     0.35861
 Zero-point vibrational energy     681300.4 (Joules/Mol)
                                  162.83471 (Kcal/Mol)
 Warning -- explicit consideration of  22 degrees of freedom as
           vibrations may cause significant error
 Vibrational temperatures:     52.95    87.55   104.62   132.79   148.61
          (Kelvin)            188.01   214.20   257.67   306.70   374.20
                              412.13   424.40   444.91   467.64   489.55
                              553.20   637.75   684.76   728.30   761.47
                              872.51   877.07   900.56   938.54   957.52
                              998.22  1018.58  1037.70  1127.52  1185.94
                             1203.24  1214.94  1251.69  1290.33  1331.74
                             1360.65  1384.92  1399.27  1466.43  1484.30
                             1498.33  1583.08  1623.31  1635.29  1658.29
                             1666.69  1702.30  1757.66  1793.48  1804.66
                             1828.52  1855.84  1874.95  1882.38  1922.80
                             1942.40  1981.94  2022.29  2033.78  2042.48
                             2081.45  2103.30  2127.13  2162.25  2172.59
                             2238.97  2271.82  2333.83  2387.71  2459.76
                             2541.99  2647.96  3290.86  4358.76  4379.24
                             4384.78  4434.11  4448.64  4471.70  4519.91
                             4680.50  4688.79  4962.93  5046.73  5110.68
                             5234.09  5458.91

 Zero-point correction=                           0.259494 (Hartree/Particle)
 Thermal correction to Energy=                    0.274528
 Thermal correction to Enthalpy=                  0.275473
 Thermal correction to Gibbs Free Energy=         0.217032
 Sum of electronic and zero-point Energies=           -796.493053
 Sum of electronic and thermal Energies=              -796.478019
 Sum of electronic and thermal Enthalpies=            -796.477074
 Sum of electronic and thermal Free Energies=         -796.535515

                     E (Thermal)             CV                S
                      KCal/Mol        Cal/Mol-Kelvin    Cal/Mol-Kelvin
 Total                  172.269             57.456            122.998
 Electronic               0.000              0.000              0.000
 Translational            0.889              2.981             42.163
 Rotational               0.889              2.981             32.259
 Vibrational            170.492             51.495             48.576
 Vibration     1          0.594              1.982              5.424
 Vibration     2          0.597              1.973              4.429
 Vibration     3          0.599              1.967              4.078
 Vibration     4          0.602              1.955              3.611
 Vibration     5          0.605              1.947              3.391
 Vibration     6          0.612              1.923              2.936
 Vibration     7          0.618              1.904              2.687
 Vibration     8          0.629              1.868              2.338
 Vibration     9          0.644              1.821              2.016
 Vibration    10          0.668              1.746              1.661
 Vibration    11          0.684              1.699              1.495
 Vibration    12          0.689              1.683              1.445
 Vibration    13          0.699              1.656              1.366
 Vibration    14          0.709              1.625              1.285
 Vibration    15          0.720              1.595              1.211
 Vibration    16          0.753              1.503              1.021
 Vibration    17          0.803              1.376              0.816
 Vibration    18          0.833              1.303              0.721
 Vibration    19          0.861              1.236              0.643
 Vibration    20          0.884              1.185              0.589
 Vibration    21          0.965              1.018              0.439
 Vibration    22          0.969              1.012              0.433

 Optimization completed.
    -- Stationary point found.
 Normal termination of Gaussian 09 at Sat Jul 24 03:39:49 2021.
