 Gaussian 09, Revision D.01,
 Gaussian 09:  ES64L-G09RevD.01 24-Apr-2013

 ----------------------------------------------------------------------
 # B3LYP/6-311G(d,p) EmpiricalDispersion=GD3BJ opt=calcfc freq=noraman
 nosymm integral(ultrafinegrid)
 ----------------------------------------------------------------------

 ------------------------------------------------------------
 Candidate Structure: Conf:885 OPT and FREQ calc in gas phase
 ------------------------------------------------------------
 Symbolic Z-matrix:
 Charge =  1 Multiplicity = 1

 SCF Done:  E(RB3LYP) =  -796.737552203     A.U. after   14 cycles
 SCF Done:  E(RB3LYP) =  -796.743001595     A.U. after   14 cycles
 SCF Done:  E(RB3LYP) =  -796.743276478     A.U. after   14 cycles
 SCF Done:  E(RB3LYP) =  -796.745516246     A.U. after   15 cycles
 SCF Done:  E(RB3LYP) =  -795.991747997     A.U. after   16 cycles
 SCF Done:  E(RB3LYP) =  -796.711531611     A.U. after   12 cycles
 SCF Done:  E(RB3LYP) =  -796.745829145     A.U. after   10 cycles
 SCF Done:  E(RB3LYP) =  -796.746527724     A.U. after   13 cycles
 SCF Done:  E(RB3LYP) =  -796.744868349     A.U. after   13 cycles
 SCF Done:  E(RB3LYP) =  -796.746799097     A.U. after   10 cycles
 SCF Done:  E(RB3LYP) =  -796.751722544     A.U. after   10 cycles
 SCF Done:  E(RB3LYP) =  -796.751762170     A.U. after   11 cycles
 SCF Done:  E(RB3LYP) =  -796.751780991     A.U. after   11 cycles
 SCF Done:  E(RB3LYP) =  -796.751788607     A.U. after   10 cycles
 SCF Done:  E(RB3LYP) =  -796.751791041     A.U. after    9 cycles
 SCF Done:  E(RB3LYP) =  -796.751792213     A.U. after    8 cycles
 SCF Done:  E(RB3LYP) =  -796.751793145     A.U. after    8 cycles
 SCF Done:  E(RB3LYP) =  -796.751793330     A.U. after    7 cycles
 SCF Done:  E(RB3LYP) =  -796.751793342     A.U. after    6 cycles
 Optimization completed.
    -- Stationary point found.
 Normal termination of Gaussian 09 at Sat Jul 24 03:06:54 2021.

 ----------------------------------------------------------------------
 #N Geom=AllCheck Guess=TCheck SCRF=Check GenChk RB3LYP/6-311G(d,p) Fre
 q
 ----------------------------------------------------------------------

 Structure from the checkpoint file:  "conf-885.chk"
 ------------------------------------------------------------
 Candidate Structure: Conf:885 OPT and FREQ calc in gas phase
 ------------------------------------------------------------
 Charge =  1 Multiplicity = 1

                          Input orientation:
 ---------------------------------------------------------------------
 Center     Atomic      Atomic             Coordinates (Angstroms)
 Number     Number       Type             X           Y           Z
 ---------------------------------------------------------------------
      1          8           0       -1.419759   -0.109002   -1.399092
      2          6           0       -1.521201   -1.045119   -0.616039
      3          7           0       -0.518437   -1.486155    0.184255
      4          6           0        0.670191   -0.692686    0.481640
      5          6           0        0.270259    0.535012    1.305018
      6          8           0        1.299851    1.031337    1.964734
      7          8           0       -0.853899    1.003618    1.380160
      8          6           0        1.493437   -0.329272   -0.798876
      9          6           0        2.707415    0.486526   -0.542477
     10          6           0        2.945826    1.824427   -0.740483
     11          7           0        4.193653    2.175133   -0.284426
     12          6           0        4.719401    1.069246    0.185887
     13          7           0        3.859313    0.011885    0.062367
     14          6           0       -2.902649   -1.640065   -0.379304
     15          6           0       -3.681499   -0.683854    0.545092
     16          7           0       -3.349152    0.761126    0.234837
     17          1           0       -0.724160   -2.248620    0.811355
     18          1           0        1.306254   -1.298131    1.129438
     19          1           0        1.034885    1.846488    2.421548
     20          1           0        1.733711   -1.284128   -1.276800
     21          1           0        0.841718    0.211926   -1.480057
     22          1           0        2.285783    2.549069   -1.193297
     23          1           0        5.704905    0.966218    0.613048
     24          1           0        4.064674   -0.946769    0.296159
     25          1           0       -3.396947   -1.715069   -1.348176
     26          1           0       -2.891729   -2.630381    0.079059
     27          1           0       -4.755456   -0.817184    0.428651
     28          1           0       -3.417502   -0.832181    1.591357
     29          1           0       -4.054198    1.401256    0.600742
     30          1           0       -2.415179    0.987296    0.651987
     31          1           0       -3.229420    0.898131   -0.776306
 ---------------------------------------------------------------------

 SCF Done:  E(RB3LYP) =  -796.751793342     A.U. after    1 cycles

 Alpha  occ. eigenvalues --  -19.31603 -19.27234 -19.24274 -14.58272 -14.49692
 Alpha  occ. eigenvalues --  -14.45781 -14.37276 -10.46344 -10.43258 -10.40478
 Alpha  occ. eigenvalues --  -10.37803 -10.34983 -10.30907 -10.30809 -10.29846
 Alpha  occ. eigenvalues --  -10.26990  -1.26945  -1.20512  -1.17787  -1.15526
 Alpha  occ. eigenvalues --   -1.10587  -1.08881  -0.96446  -0.95716  -0.92590
 Alpha  occ. eigenvalues --   -0.86245  -0.83145  -0.79994  -0.77697  -0.75317
 Alpha  occ. eigenvalues --   -0.74107  -0.73086  -0.70651  -0.68854  -0.68149
 Alpha  occ. eigenvalues --   -0.66510  -0.65865  -0.63979  -0.62873  -0.61356
 Alpha  occ. eigenvalues --   -0.61083  -0.60506  -0.58266  -0.56742  -0.55955
 Alpha  occ. eigenvalues --   -0.55164  -0.53854  -0.53478  -0.53050  -0.51375
 Alpha  occ. eigenvalues --   -0.50559  -0.49987  -0.49488  -0.47859  -0.45065
 Alpha  occ. eigenvalues --   -0.42394  -0.41102  -0.37282  -0.35341  -0.32079
 Alpha virt. eigenvalues --   -0.16100  -0.14588  -0.13415  -0.11070  -0.08709
 Alpha virt. eigenvalues --   -0.08043  -0.07468  -0.07183  -0.06764  -0.05702
 Alpha virt. eigenvalues --   -0.04286  -0.03338  -0.02973  -0.02171  -0.01035

 Mulliken charges:
               1
     1  O   -0.389073
     2  C    0.344950
     3  N   -0.364648
     4  C   -0.098723
     5  C    0.455081
     6  O   -0.260650
     7  O   -0.421423
     8  C   -0.181378
     9  C    0.075193
    10  C   -0.055996
    11  N   -0.283044
    12  C    0.163586
    13  N   -0.374027
    14  C   -0.276096
    15  C   -0.107246
    16  N   -0.369847
    17  H    0.247225
    18  H    0.174063
    19  H    0.282644
    20  H    0.152635
    21  H    0.178604
    22  H    0.104316
    23  H    0.128963
    24  H    0.231064
    25  H    0.186263
    26  H    0.166956
    27  H    0.190924
    28  H    0.178408
    29  H    0.289972
    30  H    0.330388
    31  H    0.300914
 Sum of Mulliken charges =   1.00000

 Dipole moment (field-independent basis, Debye):
    X=            -10.2560    Y=             -3.8908    Z=              4.7741  Tot=             11.9632
 Quadrupole moment (field-independent basis, Debye-Ang):
   XX=            -36.2168   YY=            -80.8847   ZZ=            -87.4393
   XY=            -14.5798   XZ=              1.8775   YZ=              1.9921

  Exact polarizability: 167.345  13.194 120.098   9.349  -1.420  97.748
 Approx polarizability: 214.749   4.870 198.582  21.375 -14.275 156.097

                      1                      2                      3
                      A                      A                      A
 Frequencies --      9.8242                39.9463                62.3846
 Red. masses --      5.3823                 4.2111                 5.0233
 Frc consts  --      0.0003                 0.0040                 0.0115
 IR Inten    --      2.7804                 3.5826                 1.8828

                      4                      5                      6
                      A                      A                      A
 Frequencies --     84.7025                90.4586               117.7942
 Red. masses --      4.3570                 6.2951                 3.6939
 Frc consts  --      0.0184                 0.0303                 0.0302
 IR Inten    --      4.0305                 7.6222                 2.1483

                      7                      8                      9
                      A                      A                      A
 Frequencies --    140.4315               171.7416               202.6179
 Red. masses --      5.1658                 4.8136                 3.5462
 Frc consts  --      0.0600                 0.0837                 0.0858
 IR Inten    --      9.7905                 6.4066                 6.5458

                     10                     11                     12
                      A                      A                      A
 Frequencies --    215.4954               252.4704               294.8015
 Red. masses --      3.9863                 3.1123                 4.7281
 Frc consts  --      0.1091                 0.1169                 0.2421
 IR Inten    --     14.2514                84.5859                 3.4800

                     13                     14                     15
                      A                      A                      A
 Frequencies --    310.4429               323.1568               333.7046
 Red. masses --      1.3125                 2.2254                 4.7241
 Frc consts  --      0.0745                 0.1369                 0.3100
 IR Inten    --      1.3703                 5.0562                 6.8707

                     16                     17                     18
                      A                      A                      A
 Frequencies --    373.2792               390.6109               444.5463
 Red. masses --      4.3037                 4.2287                 3.5795
 Frc consts  --      0.3533                 0.3801                 0.4168
 IR Inten    --      2.7293                10.5110                 4.1190

                     19                     20                     21
                      A                      A                      A
 Frequencies --    511.9752               518.1314               536.0155
 Red. masses --      2.0819                 1.3903                 1.6075
 Frc consts  --      0.3215                 0.2199                 0.2721
 IR Inten    --     44.2170               104.7053                40.5303

                     22                     23                     24
                      A                      A                      A
 Frequencies --    609.8349               617.4519               667.4057
 Red. masses --      2.6579                 1.5030                 2.6587
 Frc consts  --      0.5824                 0.3376                 0.6977
 IR Inten    --     50.1793                74.4736                35.1937

                     25                     26                     27
                      A                      A                      A
 Frequencies --    678.7199               706.6537               748.4768
 Red. masses --      3.1433                 3.9218                 3.2336
 Frc consts  --      0.8531                 1.1539                 1.0673
 IR Inten    --     12.8241                 1.6817                33.5142

                     28                     29                     30
                      A                      A                      A
 Frequencies --    760.2737               785.3596               791.8417
 Red. masses --      3.0180                 3.1381                 3.2065
 Frc consts  --      1.0278                 1.1404                 1.1845
 IR Inten    --      2.6038                28.2106                16.3630

                     31                     32                     33
                      A                      A                      A
 Frequencies --    831.3542               845.0382               857.9183
 Red. masses --      1.4043                 2.3005                 1.4626
 Frc consts  --      0.5719                 0.9679                 0.6343
 IR Inten    --     21.3564                12.8650                11.4822

                     34                     35                     36
                      A                      A                      A
 Frequencies --    869.6797               925.2472               939.6979
 Red. masses --      2.7579                 2.1441                 5.7511
 Frc consts  --      1.2290                 1.0814                 2.9921
 IR Inten    --     17.6681                 9.4584                11.8934

                     37                     38                     39
                      A                      A                      A
 Frequencies --    977.0400               984.2669              1008.0292
 Red. masses --      1.5285                 2.6171                 3.3107
 Frc consts  --      0.8597                 1.4938                 1.9821
 IR Inten    --     18.9760                 1.2378                 5.5801

                     40                     41                     42
                      A                      A                      A
 Frequencies --   1018.8735              1036.2301              1073.6484
 Red. masses --      3.7105                 3.5029                 1.8333
 Frc consts  --      2.2694                 2.2161                 1.2451
 IR Inten    --      5.3921                 4.0776                14.3298

                     43                     44                     45
                      A                      A                      A
 Frequencies --   1105.0492              1123.2714              1142.0138
 Red. masses --      1.6523                 1.4289                 1.7387
 Frc consts  --      1.1888                 1.0623                 1.3361
 IR Inten    --     22.7442                34.1803                 3.6577

                     46                     47                     48
                      A                      A                      A
 Frequencies --   1150.6346              1181.9828              1203.1839
 Red. masses --      2.0688                 1.3931                 2.1527
 Frc consts  --      1.6137                 1.1467                 1.8361
 IR Inten    --     23.6706                23.2159               153.2944

                     49                     50                     51
                      A                      A                      A
 Frequencies --   1241.3238              1266.4195              1276.1007
 Red. masses --      1.5587                 2.2969                 1.3508
 Frc consts  --      1.4151                 2.1704                 1.2960
 IR Inten    --     14.7564                14.3157                 2.1146

                     52                     53                     54
                      A                      A                      A
 Frequencies --   1310.4747              1316.1574              1324.5638
 Red. masses --      1.5783                 1.3863                 1.3666
 Frc consts  --      1.5969                 1.4149                 1.4126
 IR Inten    --     64.3398                 1.7550                21.5935

                     55                     56                     57
                      A                      A                      A
 Frequencies --   1329.0359              1357.4207              1368.3340
 Red. masses --      1.3637                 1.5062                 1.2813
 Frc consts  --      1.4192                 1.6352                 1.4134
 IR Inten    --     42.0375                14.1839                11.0393

                     58                     59                     60
                      A                      A                      A
 Frequencies --   1392.5929              1416.0285              1429.4434
 Red. masses --      3.2385                 1.3013                 2.8320
 Frc consts  --      3.7003                 1.5373                 3.4093
 IR Inten    --     23.8949                 2.7469                23.6689

                     61                     62                     63
                      A                      A                      A
 Frequencies --   1440.1568              1490.5883              1490.8322
 Red. masses --      2.4635                 1.1444                 1.8055
 Frc consts  --      3.0103                 1.4981                 2.3643
 IR Inten    --     33.2585                20.5059                21.4254

                     64                     65                     66
                      A                      A                      A
 Frequencies --   1504.4970              1509.9539              1552.1370
 Red. masses --      1.5261                 1.0820                 1.8449
 Frc consts  --      2.0352                 1.4534                 2.6187
 IR Inten    --      9.7535                13.0739               231.6463

                     67                     68                     69
                      A                      A                      A
 Frequencies --   1564.1068              1610.5868              1615.8459
 Red. masses --      1.1806                 4.5441                 1.0963
 Frc consts  --      1.7017                 6.9449                 1.6864
 IR Inten    --    117.3367                 4.1392                22.2373

                     70                     71                     72
                      A                      A                      A
 Frequencies --   1684.9271              1737.4158              1767.7716
 Red. masses --      1.1318                 5.4014                 5.8172
 Frc consts  --      1.8932                 9.6065                10.7107
 IR Inten    --     95.1938               294.7854               397.6449

                     73                     74                     75
                      A                      A                      A
 Frequencies --   3042.1546              3043.6251              3074.4982
 Red. masses --      1.0747                 1.0734                 1.0601
 Frc consts  --      5.8601                 5.8587                 5.9042
 IR Inten    --    452.6344               472.8489                 1.7425

                     76                     77                     78
                      A                      A                      A
 Frequencies --   3087.6575              3095.0653              3124.6987
 Red. masses --      1.0852                 1.0609                 1.1062
 Frc consts  --      6.0956                 5.9879                 6.3638
 IR Inten    --      4.2811                 7.2726                 1.7559

                     79                     80                     81
                      A                      A                      A
 Frequencies --   3148.9279              3152.1790              3227.4576
 Red. masses --      1.0920                 1.1108                 1.0970
 Frc consts  --      6.3795                 6.5031                 6.7323
 IR Inten    --      2.5580                 0.8533                 4.5598

                     82                     83                     84
                      A                      A                      A
 Frequencies --   3245.7036              3391.3703              3510.5541
 Red. masses --      1.0988                 1.0612                 1.0859
 Frc consts  --      6.8201                 7.1914                 7.8847
 IR Inten    --      0.7364                64.2238               105.2179

                     85                     86                     87
                      A                      A                      A
 Frequencies --   3622.7951              3644.4162              3732.6884
 Red. masses --      1.0783                 1.0812                 1.0647
 Frc consts  --      8.3382                 8.4608                 8.7400
 IR Inten    --     42.1448                49.7054               114.2097

 - Thermochemistry -
 -------------------
 Temperature   298.150 Kelvin.  Pressure   1.00000 Atm.
 Atom     1 has atomic number  8 and mass  15.99491

 Molecular mass:   227.11442 amu.
 Principal axes and moments of inertia in atomic units:
                           1         2         3
     Eigenvalues --  1386.155116489.241476836.97215
           X            0.96956  -0.16883   0.17736
           Y            0.24468   0.69649  -0.67457
           Z           -0.00965   0.69743   0.71659
 This molecule is an asymmetric top.
 Rotational symmetry number  1.
 Warning -- assumption of classical behavior for rotation
           may cause significant error
 Rotational temperatures (Kelvin)      0.06248     0.01335     0.01267
 Rotational constants (GHZ):           1.30198     0.27811     0.26397
 Zero-point vibrational energy     683092.9 (Joules/Mol)
                                  163.26312 (Kcal/Mol)
 Warning -- explicit consideration of  23 degrees of freedom as
           vibrations may cause significant error
 Vibrational temperatures:     14.13    57.47    89.76   121.87   130.15
          (Kelvin)            169.48   202.05   247.10   291.52   310.05
                              363.25   424.15   446.66   464.95   480.13
                              537.06   562.00   639.60   736.62   745.47
                              771.21   877.42   888.37   960.25   976.53
                             1016.72  1076.89  1093.86  1129.96  1139.28
                             1196.13  1215.82  1234.35  1251.27  1331.22
                             1352.01  1405.74  1416.14  1450.33  1465.93
                             1490.90  1544.74  1589.92  1616.14  1643.10
                             1655.50  1700.61  1731.11  1785.99  1822.09
                             1836.02  1885.48  1893.65  1905.75  1912.18
                             1953.02  1968.72  2003.63  2037.35  2056.65
                             2072.06  2144.62  2144.97  2164.63  2172.48
                             2233.18  2250.40  2317.27  2324.84  2424.23
                             2499.75  2543.43  4376.98  4379.09  4423.51
                             4442.44  4453.10  4495.74  4530.60  4535.28
                             4643.59  4669.84  4879.42  5050.90  5212.39
                             5243.50  5370.50

 Zero-point correction=                           0.260176 (Hartree/Particle)
 Thermal correction to Energy=                    0.275676
 Thermal correction to Enthalpy=                  0.276621
 Thermal correction to Gibbs Free Energy=         0.215379
 Sum of electronic and zero-point Energies=           -796.491617
 Sum of electronic and thermal Energies=              -796.476117
 Sum of electronic and thermal Enthalpies=            -796.475173
 Sum of electronic and thermal Free Energies=         -796.536414

                     E (Thermal)             CV                S
                      KCal/Mol        Cal/Mol-Kelvin    Cal/Mol-Kelvin
 Total                  172.990             58.030            128.893
 Electronic               0.000              0.000              0.000
 Translational            0.889              2.981             42.163
 Rotational               0.889              2.981             32.486
 Vibrational            171.212             52.068             54.244
 Vibration     1          0.593              1.987              8.046
 Vibration     2          0.594              1.981              5.262
 Vibration     3          0.597              1.972              4.380
 Vibration     4          0.601              1.960              3.779
 Vibration     5          0.602              1.956              3.650
 Vibration     6          0.608              1.935              3.136
 Vibration     7          0.615              1.913              2.798
 Vibration     8          0.626              1.877              2.416
 Vibration     9          0.639              1.836              2.109
 Vibration    10          0.645              1.817              1.997
 Vibration    11          0.664              1.759              1.713
 Vibration    12          0.689              1.683              1.446
 Vibration    13          0.699              1.654              1.360
 Vibration    14          0.708              1.629              1.294
 Vibration    15          0.715              1.608              1.242
 Vibration    16          0.745              1.527              1.066
 Vibration    17          0.758              1.490              0.998
 Vibration    18          0.804              1.373              0.812
 Vibration    19          0.867              1.223              0.629
 Vibration    20          0.873              1.210              0.614
 Vibration    21          0.891              1.170              0.574
 Vibration    22          0.969              1.011              0.433
 Vibration    23          0.977              0.995              0.421

 Optimization completed.
    -- Stationary point found.
 Normal termination of Gaussian 09 at Sat Jul 24 03:42:28 2021.
