 Gaussian 09, Revision D.01,
 Gaussian 09:  ES64L-G09RevD.01 24-Apr-2013

 ----------------------------------------------------------------------
 # B3LYP/6-311G(d,p) EmpiricalDispersion=GD3BJ opt=calcfc freq=noraman
 nosymm integral(ultrafinegrid)
 ----------------------------------------------------------------------

 ------------------------------------------------------------
 Candidate Structure: Conf:715 OPT and FREQ calc in gas phase
 ------------------------------------------------------------
 Symbolic Z-matrix:
 Charge =  1 Multiplicity = 1

 SCF Done:  E(RB3LYP) =  -796.737032191     A.U. after   14 cycles
 SCF Done:  E(RB3LYP) =  -796.744968717     A.U. after   14 cycles
 SCF Done:  E(RB3LYP) =  -796.741342900     A.U. after   14 cycles
 SCF Done:  E(RB3LYP) =  -796.746567885     A.U. after   11 cycles
 SCF Done:  E(RB3LYP) =  -796.748769298     A.U. after   12 cycles
 SCF Done:  E(RB3LYP) =  -796.749306595     A.U. after   13 cycles
 SCF Done:  E(RB3LYP) =  -796.749846335     A.U. after   11 cycles
 SCF Done:  E(RB3LYP) =  -796.750049017     A.U. after   11 cycles
 SCF Done:  E(RB3LYP) =  -796.750340482     A.U. after   12 cycles
 SCF Done:  E(RB3LYP) =  -796.664616150     A.U. after   15 cycles
 SCF Done:  E(RB3LYP) =  -796.754087759     A.U. after    8 cycles
 SCF Done:  E(RB3LYP) =  -796.754090203     A.U. after    8 cycles
 SCF Done:  E(RB3LYP) =  -796.754091179     A.U. after    7 cycles
 SCF Done:  E(RB3LYP) =  -796.754094101     A.U. after    8 cycles
 SCF Done:  E(RB3LYP) =  -796.754101580     A.U. after    9 cycles
 SCF Done:  E(RB3LYP) =  -796.754103739     A.U. after    8 cycles
 SCF Done:  E(RB3LYP) =  -796.754103837     A.U. after    7 cycles
 SCF Done:  E(RB3LYP) =  -796.754103875     A.U. after    7 cycles
 SCF Done:  E(RB3LYP) =  -796.754103884     A.U. after    6 cycles
 Optimization completed.
    -- Stationary point found.
 Normal termination of Gaussian 09 at Sat Jul 24 03:02:25 2021.

 ----------------------------------------------------------------------
 #N Geom=AllCheck Guess=TCheck SCRF=Check GenChk RB3LYP/6-311G(d,p) Fre
 q
 ----------------------------------------------------------------------

 Structure from the checkpoint file:  "conf-715.chk"
 ------------------------------------------------------------
 Candidate Structure: Conf:715 OPT and FREQ calc in gas phase
 ------------------------------------------------------------
 Charge =  1 Multiplicity = 1

                          Input orientation:
 ---------------------------------------------------------------------
 Center     Atomic      Atomic             Coordinates (Angstroms)
 Number     Number       Type             X           Y           Z
 ---------------------------------------------------------------------
      1          8           0       -2.324325    1.553166    0.164427
      2          6           0       -1.669367    0.779651    0.854332
      3          7           0       -0.322020    0.846136    0.956780
      4          6           0        0.436755    1.633736    0.012892
      5          6           0        0.172002    1.133425   -1.417681
      6          8           0        0.676292    1.871732   -2.405677
      7          8           0       -0.408280    0.103301   -1.680341
      8          6           0        1.951902    1.532804    0.359748
      9          6           0        2.419646    0.120136    0.438738
     10          6           0        2.492166   -0.748532    1.505389
     11          7           0        2.848281   -2.009376    1.086841
     12          6           0        2.997852   -1.919896   -0.212843
     13          7           0        2.739471   -0.653308   -0.663247
     14          6           0       -2.348627   -0.423271    1.487857
     15          6           0       -2.511161   -1.514625    0.414818
     16          7           0       -2.859956   -0.899855   -0.927310
     17          1           0        0.181223    0.080839    1.392611
     18          1           0        0.114823    2.677430    0.068121
     19          1           0        1.062650    2.697130   -2.081947
     20          1           0        2.534345    2.110264   -0.363073
     21          1           0        2.095797    2.012212    1.329243
     22          1           0        2.347698   -0.521394    2.551914
     23          1           0        3.296889   -2.718323   -0.874199
     24          1           0        2.829172   -0.333814   -1.616094
     25          1           0       -1.792537   -0.845401    2.326383
     26          1           0       -3.324784   -0.098327    1.849270
     27          1           0       -3.302485   -2.211982    0.683288
     28          1           0       -1.585786   -2.067682    0.259996
     29          1           0       -3.445312   -0.063729   -0.804547
     30          1           0       -1.981935   -0.555989   -1.374598
     31          1           0       -3.320226   -1.566445   -1.547480
 ---------------------------------------------------------------------

 SCF Done:  E(RB3LYP) =  -796.754103884     A.U. after    1 cycles

 Alpha  occ. eigenvalues --  -19.32407 -19.27042 -19.24014 -14.58278 -14.48881
 Alpha  occ. eigenvalues --  -14.48559 -14.40107 -10.46662 -10.42705 -10.40087
 Alpha  occ. eigenvalues --  -10.38231 -10.34527 -10.33742 -10.33653 -10.32996
 Alpha  occ. eigenvalues --  -10.30078  -1.27006  -1.20288  -1.18508  -1.15502
 Alpha  occ. eigenvalues --   -1.13460  -1.08778  -0.99079  -0.95951  -0.93433
 Alpha  occ. eigenvalues --   -0.87554  -0.83093  -0.80801  -0.78278  -0.75713
 Alpha  occ. eigenvalues --   -0.74873  -0.73369  -0.73260  -0.71267  -0.70007
 Alpha  occ. eigenvalues --   -0.67591  -0.66733  -0.63648  -0.62691  -0.62516
 Alpha  occ. eigenvalues --   -0.61137  -0.59897  -0.58141  -0.57563  -0.57192
 Alpha  occ. eigenvalues --   -0.56260  -0.55197  -0.53926  -0.53627  -0.52906
 Alpha  occ. eigenvalues --   -0.52480  -0.52320  -0.51433  -0.48404  -0.44878
 Alpha  occ. eigenvalues --   -0.42348  -0.41187  -0.40168  -0.38073  -0.35198
 Alpha virt. eigenvalues --   -0.16223  -0.14708  -0.13241  -0.11972  -0.09616
 Alpha virt. eigenvalues --   -0.09475  -0.07665  -0.06894  -0.06488  -0.05992
 Alpha virt. eigenvalues --   -0.05413  -0.03924  -0.02916  -0.02698  -0.01890

 Mulliken charges:
               1
     1  O   -0.389254
     2  C    0.339911
     3  N   -0.348286
     4  C   -0.152076
     5  C    0.461309
     6  O   -0.257747
     7  O   -0.396018
     8  C   -0.216251
     9  C    0.073941
    10  C   -0.096115
    11  N   -0.272735
    12  C    0.166107
    13  N   -0.363973
    14  C   -0.290286
    15  C   -0.110471
    16  N   -0.367435
    17  H    0.251506
    18  H    0.197539
    19  H    0.276033
    20  H    0.149732
    21  H    0.181961
    22  H    0.126657
    23  H    0.137806
    24  H    0.242443
    25  H    0.174471
    26  H    0.184631
    27  H    0.190259
    28  H    0.188256
    29  H    0.299029
    30  H    0.327288
    31  H    0.291771
 Sum of Mulliken charges =   1.00000

 Dipole moment (field-independent basis, Debye):
    X=             -5.2307    Y=             -0.1004    Z=             -2.4239  Tot=              5.7659
 Quadrupole moment (field-independent basis, Debye-Ang):
   XX=            -56.6748   YY=            -78.1359   ZZ=            -82.8461
   XY=             25.4006   XZ=             -5.5947   YZ=              3.5010

  Exact polarizability: 128.781  -1.065 130.055  -2.452  -6.276 117.052
 Approx polarizability: 172.896  -4.262 207.271   0.228 -12.893 190.467

                      1                      2                      3
                      A                      A                      A
 Frequencies --     19.4943                34.9856                64.1578
 Red. masses --      5.1198                 4.5456                 5.3985
 Frc consts  --      0.0011                 0.0033                 0.0131
 IR Inten    --      3.4597                 4.3759                 3.8831

                      4                      5                      6
                      A                      A                      A
 Frequencies --     74.3687                80.2338               116.9840
 Red. masses --      4.3231                 5.9463                 3.2650
 Frc consts  --      0.0141                 0.0226                 0.0263
 IR Inten    --      8.4931                11.5348                 4.5903

                      7                      8                      9
                      A                      A                      A
 Frequencies --    139.4892               164.6853               195.2740
 Red. masses --      6.0572                 4.1980                 3.4971
 Frc consts  --      0.0694                 0.0671                 0.0786
 IR Inten    --      5.4407                 9.9318                19.9300

                     10                     11                     12
                      A                      A                      A
 Frequencies --    223.4100               250.5158               276.9722
 Red. masses --      3.3313                 4.6118                 5.6857
 Frc consts  --      0.0980                 0.1705                 0.2570
 IR Inten    --     18.4115                60.0561                17.8202

                     13                     14                     15
                      A                      A                      A
 Frequencies --    300.2910               334.0971               358.3673
 Red. masses --      1.3112                 4.1989                 2.2608
 Frc consts  --      0.0697                 0.2761                 0.1711
 IR Inten    --      2.7292                14.8364                 7.6267

                     16                     17                     18
                      A                      A                      A
 Frequencies --    384.3783               434.8361               464.4800
 Red. masses --      3.0750                 3.5884                 3.6406
 Frc consts  --      0.2677                 0.3998                 0.4628
 IR Inten    --      3.8471                 5.7071                71.0390

                     19                     20                     21
                      A                      A                      A
 Frequencies --    526.5540               539.9227               565.6964
 Red. masses --      3.0824                 1.2478                 1.4692
 Frc consts  --      0.5035                 0.2143                 0.2770
 IR Inten    --      2.8196                37.1016                92.5060

                     22                     23                     24
                      A                      A                      A
 Frequencies --    593.7622               639.3190               656.1540
 Red. masses --      1.8567                 3.7588                 2.2444
 Frc consts  --      0.3857                 0.9052                 0.5693
 IR Inten    --     16.2592                25.7885                60.4088

                     25                     26                     27
                      A                      A                      A
 Frequencies --    679.5620               682.6179               696.0523
 Red. masses --      2.6191                 2.9005                 3.8757
 Frc consts  --      0.7126                 0.7963                 1.1063
 IR Inten    --      2.1215                 6.3587                 9.4740

                     28                     29                     30
                      A                      A                      A
 Frequencies --    758.4916               783.4151               838.6878
 Red. masses --      3.1153                 4.7063                 2.2575
 Frc consts  --      1.0560                 1.7018                 0.9356
 IR Inten    --      4.0329                 2.3151                23.0254

                     31                     32                     33
                      A                      A                      A
 Frequencies --    843.1131               852.4940               862.7718
 Red. masses --      1.3809                 2.6107                 1.6357
 Frc consts  --      0.5784                 1.1179                 0.7174
 IR Inten    --     32.0647                 1.7421                 7.8892

                     34                     35                     36
                      A                      A                      A
 Frequencies --    880.2200               934.5263               943.4762
 Red. masses --      1.9941                 3.3639                 4.1351
 Frc consts  --      0.9103                 1.7309                 2.1687
 IR Inten    --     25.1454                14.2039                 2.9362

                     37                     38                     39
                      A                      A                      A
 Frequencies --    958.7306               978.6946              1005.8275
 Red. masses --      3.0936                 1.4989                 3.1624
 Frc consts  --      1.6753                 0.8459                 1.8850
 IR Inten    --      1.5316                11.0639                 7.3954

                     40                     41                     42
                      A                      A                      A
 Frequencies --   1016.3920              1042.3049              1092.5131
 Red. masses --      3.1798                 2.7748                 1.4504
 Frc consts  --      1.9354                 1.7761                 1.0200
 IR Inten    --      8.5780                 4.9508                 7.1621

                     43                     44                     45
                      A                      A                      A
 Frequencies --   1108.4668              1123.6121              1141.4470
 Red. masses --      1.6891                 1.3864                 1.7509
 Frc consts  --      1.2228                 1.0313                 1.3441
 IR Inten    --     16.6498                20.4486                 4.6870

                     46                     47                     48
                      A                      A                      A
 Frequencies --   1149.8953              1194.8613              1214.4064
 Red. masses --      2.1273                 1.6268                 1.8305
 Frc consts  --      1.6573                 1.3684                 1.5905
 IR Inten    --     16.3174                17.2040                31.3018

                     49                     50                     51
                      A                      A                      A
 Frequencies --   1231.4810              1252.3797              1265.1590
 Red. masses --      1.5361                 1.5083                 2.2176
 Frc consts  --      1.3725                 1.3938                 2.0914
 IR Inten    --     10.0808                31.7434                 0.5831

                     52                     53                     54
                      A                      A                      A
 Frequencies --   1285.5275              1301.4029              1322.6339
 Red. masses --      1.3566                 1.7053                 1.3475
 Frc consts  --      1.3209                 1.7017                 1.3888
 IR Inten    --     19.2943               333.4222                34.1039

                     55                     56                     57
                      A                      A                      A
 Frequencies --   1333.3205              1363.8090              1372.7892
 Red. masses --      1.7958                 1.4140                 1.4817
 Frc consts  --      1.8809                 1.5496                 1.6451
 IR Inten    --     44.1308                 2.3929                12.8006

                     58                     59                     60
                      A                      A                      A
 Frequencies --   1393.7667              1404.4820              1420.1833
 Red. masses --      2.5915                 1.8964                 1.3378
 Frc consts  --      2.9661                 2.2040                 1.5897
 IR Inten    --     36.2172                61.1907                 6.9605

                     61                     62                     63
                      A                      A                      A
 Frequencies --   1429.1407              1480.5955              1490.1184
 Red. masses --      2.6625                 1.2024                 1.1044
 Frc consts  --      3.2040                 1.5530                 1.4449
 IR Inten    --     24.0755                20.7815                21.0434

                     64                     65                     66
                      A                      A                      A
 Frequencies --   1498.5959              1510.7008              1548.3325
 Red. masses --      3.0163                 1.0836                 1.6743
 Frc consts  --      3.9911                 1.4571                 2.3649
 IR Inten    --     23.9501                15.9951               441.0528

                     67                     68                     69
                      A                      A                      A
 Frequencies --   1556.9513              1601.5984              1615.4098
 Red. masses --      1.2846                 4.2100                 1.0892
 Frc consts  --      1.8348                 6.3627                 1.6746
 IR Inten    --     95.6791                 6.4816                43.7687

                     70                     71                     72
                      A                      A                      A
 Frequencies --   1687.1843              1742.3574              1800.0085
 Red. masses --      1.1334                 4.5194                 7.9732
 Frc consts  --      1.9009                 8.0837                15.2207
 IR Inten    --     95.2527               188.0694               292.0135

                     73                     74                     75
                      A                      A                      A
 Frequencies --   3052.8812              3064.1482              3075.6643
 Red. masses --      1.0675                 1.0822                 1.0598
 Frc consts  --      5.8621                 5.9865                 5.9067
 IR Inten    --     10.0126                 9.5349                 0.5245

                     76                     77                     78
                      A                      A                      A
 Frequencies --   3094.2660              3106.1479              3107.3912
 Red. masses --      1.0612                 1.0937                 1.0801
 Frc consts  --      5.9863                 6.2173                 6.1449
 IR Inten    --     99.9835               124.4804               479.8560

                     79                     80                     81
                      A                      A                      A
 Frequencies --   3125.9603              3154.0844              3219.7477
 Red. masses --      1.1061                 1.1110                 1.0970
 Frc consts  --      6.3679                 6.5121                 6.7005
 IR Inten    --      7.8661                 0.2595                 3.1182

                     82                     83                     84
                      A                      A                      A
 Frequencies --   3247.7095              3382.7438              3509.9130
 Red. masses --      1.0991                 1.0630                 1.0852
 Frc consts  --      6.8304                 7.1667                 7.8765
 IR Inten    --      1.1575                62.9737               108.7031

                     85                     86                     87
                      A                      A                      A
 Frequencies --   3524.5597              3633.9587              3780.8711
 Red. masses --      1.0784                 1.0817                 1.0664
 Frc consts  --      7.8932                 8.4161                 8.9816
 IR Inten    --    179.1180                61.0782                87.7526

 - Thermochemistry -
 -------------------
 Temperature   298.150 Kelvin.  Pressure   1.00000 Atm.
 Atom     1 has atomic number  8 and mass  15.99491

 Molecular mass:   227.11442 amu.
 Principal axes and moments of inertia in atomic units:
                           1         2         3
     Eigenvalues --  2424.216484438.444535170.33691
           X            0.98694   0.14909   0.06106
           Y           -0.15602   0.79000   0.59292
           Z            0.04016  -0.59470   0.80294
 This molecule is an asymmetric top.
 Rotational symmetry number  1.
 Warning -- assumption of classical behavior for rotation
           may cause significant error
 Rotational temperatures (Kelvin)      0.03573     0.01951     0.01675
 Rotational constants (GHZ):           0.74446     0.40662     0.34906
 Zero-point vibrational energy     683121.4 (Joules/Mol)
                                  163.26994 (Kcal/Mol)
 Warning -- explicit consideration of  22 degrees of freedom as
           vibrations may cause significant error
 Vibrational temperatures:     28.05    50.34    92.31   107.00   115.44
          (Kelvin)            168.31   200.69   236.95   280.96   321.44
                              360.44   398.50   432.05   480.69   515.61
                              553.03   625.63   668.28   757.59   776.83
                              813.91   854.29   919.84   944.06   977.74
                              982.13  1001.46  1091.30  1127.16  1206.68
                             1213.05  1226.55  1241.33  1266.44  1344.57
                             1357.45  1379.40  1408.12  1447.16  1462.36
                             1499.64  1571.88  1594.83  1616.63  1642.29
                             1654.44  1719.14  1747.26  1771.82  1801.89
                             1820.28  1849.59  1872.43  1902.97  1918.35
                             1962.21  1975.14  2005.32  2020.73  2043.32
                             2056.21  2130.24  2143.95  2156.14  2173.56
                             2227.70  2240.10  2304.34  2324.21  2427.48
                             2506.86  2589.81  4392.41  4408.62  4425.19
                             4451.95  4469.05  4470.84  4497.55  4538.02
                             4632.49  4672.72  4867.01  5049.98  5071.05
                             5228.45  5439.82

 Zero-point correction=                           0.260187 (Hartree/Particle)
 Thermal correction to Energy=                    0.275626
 Thermal correction to Enthalpy=                  0.276570
 Thermal correction to Gibbs Free Energy=         0.215807
 Sum of electronic and zero-point Energies=           -796.493917
 Sum of electronic and thermal Energies=              -796.478478
 Sum of electronic and thermal Enthalpies=            -796.477534
 Sum of electronic and thermal Free Energies=         -796.538297

                     E (Thermal)             CV                S
                      KCal/Mol        Cal/Mol-Kelvin    Cal/Mol-Kelvin
 Total                  172.958             57.782            127.887
 Electronic               0.000              0.000              0.000
 Translational            0.889              2.981             42.163
 Rotational               0.889              2.981             32.387
 Vibrational            171.181             51.820             53.337
 Vibration     1          0.593              1.986              6.685
 Vibration     2          0.594              1.982              5.525
 Vibration     3          0.597              1.971              4.325
 Vibration     4          0.599              1.966              4.034
 Vibration     5          0.600              1.963              3.885
 Vibration     6          0.608              1.935              3.150
 Vibration     7          0.615              1.914              2.811
 Vibration     8          0.623              1.886              2.495
 Vibration     9          0.636              1.846              2.177
 Vibration    10          0.649              1.805              1.931
 Vibration    11          0.663              1.762              1.727
 Vibration    12          0.678              1.716              1.552
 Vibration    13          0.693              1.673              1.415
 Vibration    14          0.716              1.607              1.240
 Vibration    15          0.733              1.558              1.129
 Vibration    16          0.753              1.504              1.022
 Vibration    17          0.795              1.394              0.843
 Vibration    18          0.822              1.329              0.753
 Vibration    19          0.882              1.191              0.595
 Vibration    20          0.895              1.162              0.565
 Vibration    21          0.922              1.105              0.513
 Vibration    22          0.951              1.045              0.461

 Optimization completed.
    -- Stationary point found.
 Normal termination of Gaussian 09 at Sat Jul 24 03:40:53 2021.
