 Gaussian 09, Revision D.01,
 Gaussian 09:  ES64L-G09RevD.01 24-Apr-2013

 ----------------------------------------------------------------------
 # B3LYP/6-311G(d,p) EmpiricalDispersion=GD3BJ opt=calcfc freq=noraman
 nosymm integral(ultrafinegrid)
 ----------------------------------------------------------------------

 ------------------------------------------------------------
 Candidate Structure: Conf:342 OPT and FREQ calc in gas phase
 ------------------------------------------------------------
 Symbolic Z-matrix:
 Charge =  1 Multiplicity = 1

 SCF Done:  E(RB3LYP) =  -796.718705038     A.U. after   17 cycles
 SCF Done:  E(RB3LYP) =  -796.724032807     A.U. after   12 cycles
 SCF Done:  E(RB3LYP) =  -796.724881727     A.U. after   12 cycles
 SCF Done:  E(RB3LYP) =  -796.725272808     A.U. after   12 cycles
 SCF Done:  E(RB3LYP) =  -796.725654570     A.U. after   12 cycles
 SCF Done:  E(RB3LYP) =  -796.726458027     A.U. after   12 cycles
 SCF Done:  E(RB3LYP) =  -796.726623730     A.U. after   14 cycles
 SCF Done:  E(RB3LYP) =  -796.725226351     A.U. after   12 cycles
 SCF Done:  E(RB3LYP) =  -796.726846466     A.U. after    9 cycles
 SCF Done:  E(RB3LYP) =  -796.726902297     A.U. after   12 cycles
 SCF Done:  E(RB3LYP) =  -796.727004662     A.U. after   11 cycles
 SCF Done:  E(RB3LYP) =  -796.727008289     A.U. after    9 cycles
 SCF Done:  E(RB3LYP) =  -796.727008554     A.U. after    8 cycles
 SCF Done:  E(RB3LYP) =  -796.727008646     A.U. after    7 cycles
 Optimization completed.
    -- Stationary point found.
 Normal termination of Gaussian 09 at Sat Jul 24 01:43:10 2021.

 ----------------------------------------------------------------------
 #N Geom=AllCheck Guess=TCheck SCRF=Check GenChk RB3LYP/6-311G(d,p) Fre
 q
 ----------------------------------------------------------------------

 Structure from the checkpoint file:  "conf-342.chk"
 ------------------------------------------------------------
 Candidate Structure: Conf:342 OPT and FREQ calc in gas phase
 ------------------------------------------------------------
 Charge =  1 Multiplicity = 1

                          Input orientation:
 ---------------------------------------------------------------------
 Center     Atomic      Atomic             Coordinates (Angstroms)
 Number     Number       Type             X           Y           Z
 ---------------------------------------------------------------------
      1          8           0        1.048077   -1.205721    0.138970
      2          6           0        1.405333   -0.086233   -0.203119
      3          7           0        0.576877    0.919072   -0.517717
      4          6           0       -0.859237    0.725627   -0.633897
      5          6           0       -1.379781    1.916923   -1.454377
      6          8           0       -2.690535    1.969106   -1.664714
      7          8           0       -0.627802    2.756097   -1.881098
      8          6           0       -1.551865    0.594064    0.751351
      9          6           0       -2.911424   -0.009980    0.654624
     10          6           0       -4.183169    0.517884    0.721143
     11          7           0       -5.130174   -0.463314    0.533474
     12          6           0       -4.457902   -1.573972    0.355483
     13          7           0       -3.107162   -1.359101    0.410211
     14          6           0        2.907023    0.247658   -0.308840
     15          6           0        3.660981   -0.686079    0.622371
     16          7           0        5.151522   -0.698390    0.303030
     17          1           0        0.907275    1.792616   -0.918277
     18          1           0       -1.047239   -0.192792   -1.199708
     19          1           0       -3.168591    1.274977   -1.171372
     20          1           0       -1.615223    1.575375    1.225606
     21          1           0       -0.910269   -0.031626    1.374965
     22          1           0       -4.463153    1.541754    0.920054
     23          1           0       -4.882267   -2.550997    0.183062
     24          1           0       -2.381947   -2.057197    0.341280
     25          1           0        3.094915    1.298500   -0.076224
     26          1           0        3.201409    0.074612   -1.351113
     27          1           0        3.295644   -1.705489    0.509502
     28          1           0        3.573167   -0.393326    1.667965
     29          1           0        5.317804   -1.009455   -0.659022
     30          1           0        5.566908    0.232921    0.400203
     31          1           0        5.660533   -1.332572    0.926176
 ---------------------------------------------------------------------

 SCF Done:  E(RB3LYP) =  -796.727008646     A.U. after    1 cycles

 Alpha  occ. eigenvalues --  -19.26177 -19.22848 -19.21161 -14.64408 -14.47098
 Alpha  occ. eigenvalues --  -14.46128 -14.37709 -10.42009 -10.41979 -10.41035
 Alpha  occ. eigenvalues --  -10.36052 -10.34796 -10.31363 -10.30636 -10.30147
 Alpha  occ. eigenvalues --  -10.27734  -1.21152  -1.20983  -1.18572  -1.13226
 Alpha  occ. eigenvalues --   -1.11069  -1.06660  -0.97221  -0.96642  -0.91545
 Alpha  occ. eigenvalues --   -0.86302  -0.83462  -0.79493  -0.79171  -0.77844
 Alpha  occ. eigenvalues --   -0.73374  -0.71432  -0.70801  -0.69791  -0.68819
 Alpha  occ. eigenvalues --   -0.67655  -0.65276  -0.63895  -0.61093  -0.60452
 Alpha  occ. eigenvalues --   -0.58714  -0.57702  -0.57105  -0.55332  -0.55031
 Alpha  occ. eigenvalues --   -0.54278  -0.53355  -0.52116  -0.51015  -0.50854
 Alpha  occ. eigenvalues --   -0.50235  -0.49103  -0.47722  -0.42456  -0.40770
 Alpha  occ. eigenvalues --   -0.40054  -0.38903  -0.37653  -0.35641  -0.32850
 Alpha virt. eigenvalues --   -0.19190  -0.13619  -0.12554  -0.12001  -0.10656
 Alpha virt. eigenvalues --   -0.09897  -0.08062  -0.07388  -0.06017  -0.04915
 Alpha virt. eigenvalues --   -0.04415  -0.04197  -0.02921  -0.02167  -0.01432

 Mulliken charges:
               1
     1  O   -0.388058
     2  C    0.395512
     3  N   -0.403045
     4  C   -0.147716
     5  C    0.423799
     6  O   -0.266678
     7  O   -0.329149
     8  C   -0.168002
     9  C   -0.002957
    10  C   -0.085477
    11  N   -0.268653
    12  C    0.171759
    13  N   -0.356105
    14  C   -0.282694
    15  C   -0.134492
    16  N   -0.331341
    17  H    0.253194
    18  H    0.176884
    19  H    0.272232
    20  H    0.153785
    21  H    0.160049
    22  H    0.131374
    23  H    0.133103
    24  H    0.242513
    25  H    0.162345
    26  H    0.163267
    27  H    0.211726
    28  H    0.192518
    29  H    0.304706
    30  H    0.303887
    31  H    0.311711
 Sum of Mulliken charges =   1.00000

 Dipole moment (field-independent basis, Debye):
    X=             21.7252    Y=             -4.5120    Z=              2.2220  Tot=             22.2998
 Quadrupole moment (field-independent basis, Debye-Ang):
   XX=             12.8586   YY=            -89.6558   ZZ=            -93.4405
   XY=             -5.0454   XZ=              5.5698   YZ=              7.1692

  Exact polarizability: 175.168   3.801 125.827  -2.335 -10.074  91.380
 Approx polarizability: 223.994   6.653 209.386  -3.645 -12.049 139.531

                      1                      2                      3
                      A                      A                      A
 Frequencies --     24.8937                28.8796                43.7561
 Red. masses --      4.2408                 3.3537                 2.1514
 Frc consts  --      0.0015                 0.0016                 0.0024
 IR Inten    --      1.6735                 2.6558                 9.7609

                      4                      5                      6
                      A                      A                      A
 Frequencies --     61.2428                70.8533                85.1945
 Red. masses --      5.0285                 4.2520                 6.1089
 Frc consts  --      0.0111                 0.0126                 0.0261
 IR Inten    --      1.3995                 5.1587                11.8975

                      7                      8                      9
                      A                      A                      A
 Frequencies --    100.8699               110.0773               147.0752
 Red. masses --      8.0082                 5.8028                 4.1909
 Frc consts  --      0.0480                 0.0414                 0.0534
 IR Inten    --      3.6783                10.2337                 9.7608

                     10                     11                     12
                      A                      A                      A
 Frequencies --    192.4405               214.9274               238.2109
 Red. masses --      4.8841                 2.5234                 1.3854
 Frc consts  --      0.1066                 0.0687                 0.0463
 IR Inten    --      1.2194                24.5400                 5.1372

                     13                     14                     15
                      A                      A                      A
 Frequencies --    275.0280               335.1849               337.3576
 Red. masses --      5.6785                 2.2562                 6.0433
 Frc consts  --      0.2531                 0.1493                 0.4052
 IR Inten    --     12.4103                 2.1458                 5.0860

                     16                     17                     18
                      A                      A                      A
 Frequencies --    349.9016               380.6643               385.9863
 Red. masses --      5.2451                 3.6207                 4.4865
 Frc consts  --      0.3784                 0.3091                 0.3938
 IR Inten    --      5.2810                20.5713                11.9530

                     19                     20                     21
                      A                      A                      A
 Frequencies --    546.3616               556.5977               589.8257
 Red. masses --      2.9159                 1.6771                 2.2506
 Frc consts  --      0.5128                 0.3061                 0.4613
 IR Inten    --     43.4443                32.5322                 8.3305

                     22                     23                     24
                      A                      A                      A
 Frequencies --    619.9045               657.5632               663.0819
 Red. masses --      3.0641                 1.5935                 1.7416
 Frc consts  --      0.6937                 0.4059                 0.4512
 IR Inten    --     61.8140                43.1943                48.8623

                     25                     26                     27
                      A                      A                      A
 Frequencies --    675.1294               685.8826               720.2391
 Red. masses --      2.6777                 2.5198                 2.3937
 Frc consts  --      0.7191                 0.6984                 0.7316
 IR Inten    --     21.1241                 4.2349                35.3183

                     28                     29                     30
                      A                      A                      A
 Frequencies --    743.3706               772.7393               798.9410
 Red. masses --      2.8716                 4.0433                 1.3953
 Frc consts  --      0.9349                 1.4225                 0.5247
 IR Inten    --      2.4635                 0.3303                 8.7841

                     31                     32                     33
                      A                      A                      A
 Frequencies --    827.0332               843.4596               865.6252
 Red. masses --      3.0101                 1.4268                 1.3223
 Frc consts  --      1.2130                 0.5980                 0.5838
 IR Inten    --      6.4971                17.0164                10.5957

                     34                     35                     36
                      A                      A                      A
 Frequencies --    887.0209               920.1876               934.9802
 Red. masses --      2.6501                 1.3068                 3.5473
 Frc consts  --      1.2285                 0.6519                 1.8271
 IR Inten    --     36.4679                 5.2835                12.2296

                     37                     38                     39
                      A                      A                      A
 Frequencies --    941.4169               986.4316              1004.1698
 Red. masses --      5.4324                 2.1037                 3.4990
 Frc consts  --      2.8367                 1.2061                 2.0788
 IR Inten    --     27.7921                13.2589                37.7574

                     40                     41                     42
                      A                      A                      A
 Frequencies --   1029.1486              1032.5196              1096.5545
 Red. masses --      3.7761                 3.2211                 1.6415
 Frc consts  --      2.3564                 2.0233                 1.1629
 IR Inten    --      9.4092                 3.1049                13.5171

                     43                     44                     45
                      A                      A                      A
 Frequencies --   1102.2663              1119.8699              1148.2409
 Red. masses --      1.6586                 2.3026                 2.0613
 Frc consts  --      1.1873                 1.7014                 1.6012
 IR Inten    --     18.3053                35.5769                14.7088

                     46                     47                     48
                      A                      A                      A
 Frequencies --   1155.3794              1175.7341              1231.1736
 Red. masses --      2.5285                 1.4557                 1.8594
 Frc consts  --      1.9886                 1.1856                 1.6605
 IR Inten    --      3.7792                 3.9339                17.2890

                     49                     50                     51
                      A                      A                      A
 Frequencies --   1237.7809              1257.4036              1278.9537
 Red. masses --      1.5981                 2.3074                 1.3580
 Frc consts  --      1.4426                 2.1495                 1.3088
 IR Inten    --     10.9917                20.0156                 0.8250

                     52                     53                     54
                      A                      A                      A
 Frequencies --   1290.5082              1308.6441              1326.6525
 Red. masses --      1.2941                 1.3160                 1.3548
 Frc consts  --      1.2698                 1.3279                 1.4049
 IR Inten    --      1.4012                28.4119                18.4254

                     55                     56                     57
                      A                      A                      A
 Frequencies --   1328.7296              1349.9478              1361.6916
 Red. masses --      1.3232                 1.4128                 1.6298
 Frc consts  --      1.3764                 1.5169                 1.7805
 IR Inten    --      5.1887               106.0618                75.4534

                     58                     59                     60
                      A                      A                      A
 Frequencies --   1386.3875              1406.8699              1413.3715
 Red. masses --      2.3031                 1.3422                 2.2889
 Frc consts  --      2.6082                 1.5652                 2.6940
 IR Inten    --      1.5387                27.2738               197.0517

                     61                     62                     63
                      A                      A                      A
 Frequencies --   1426.9517              1479.8879              1487.1944
 Red. masses --      2.7343                 1.1176                 1.1057
 Frc consts  --      3.2803                 1.4421                 1.4409
 IR Inten    --     20.9698                 0.9945                12.2169

                     64                     65                     66
                      A                      A                      A
 Frequencies --   1499.6537              1508.1096              1518.4932
 Red. masses --      3.8764                 1.0738                 1.1879
 Frc consts  --      5.1364                 1.4389                 1.6138
 IR Inten    --     35.8642                15.2575               222.1292

                     67                     68                     69
                      A                      A                      A
 Frequencies --   1538.2465              1601.9168              1664.9569
 Red. masses --      2.4906                 4.3331                 1.0421
 Frc consts  --      3.4722                 6.5513                 1.7021
 IR Inten    --    293.1934                 7.2394                48.8963

                     70                     71                     72
                      A                      A                      A
 Frequencies --   1668.9675              1748.4753              1830.1114
 Red. masses --      1.0438                 9.8920                 9.4639
 Frc consts  --      1.7130                17.8178                18.6757
 IR Inten    --     38.9984               266.6398               317.9918

                     73                     74                     75
                      A                      A                      A
 Frequencies --   3025.2973              3039.6482              3060.2984
 Red. masses --      1.0645                 1.0822                 1.0605
 Frc consts  --      5.7402                 5.8913                 5.8521
 IR Inten    --      3.7141                 6.5272                12.7768

                     76                     77                     78
                      A                      A                      A
 Frequencies --   3087.2765              3099.2897              3105.4895
 Red. masses --      1.0991                 1.0595                 1.1052
 Frc consts  --      6.1723                 5.9965                 6.2798
 IR Inten    --      4.4897                 3.9916                 3.4727

                     79                     80                     81
                      A                      A                      A
 Frequencies --   3159.2076              3229.5294              3246.5919
 Red. masses --      1.1116                 1.0970                 1.0991
 Frc consts  --      6.5366                 6.7414                 6.8256
 IR Inten    --      2.8374                 2.3054                 1.0245

                     82                     83                     84
                      A                      A                      A
 Frequencies --   3398.3125              3475.9347              3478.0666
 Red. masses --      1.0300                 1.0932                 1.0934
 Frc consts  --      7.0084                 7.7818                 7.7933
 IR Inten    --     55.6677                88.5885                89.7623

                     85                     86                     87
                      A                      A                      A
 Frequencies --   3515.1893              3568.1954              3634.0320
 Red. masses --      1.0780                 1.0679                 1.0816
 Frc consts  --      7.8480                 8.0108                 8.4155
 IR Inten    --    130.0014               530.4936                57.5044

 - Thermochemistry -
 -------------------
 Temperature   298.150 Kelvin.  Pressure   1.00000 Atm.
 Atom     1 has atomic number  8 and mass  15.99491

 Molecular mass:   227.11442 amu.
 Principal axes and moments of inertia in atomic units:
                           1         2         3
     Eigenvalues --  1924.967517420.239778965.97313
           X            0.99906   0.03460   0.02630
           Y           -0.04331   0.84342   0.53550
           Z           -0.00366  -0.53614   0.84412
 This molecule is an asymmetric top.
 Rotational symmetry number  1.
 Warning -- assumption of classical behavior for rotation
           may cause significant error
 Rotational temperatures (Kelvin)      0.04499     0.01167     0.00966
 Rotational constants (GHZ):           0.93754     0.24322     0.20129
 Zero-point vibrational energy     680409.9 (Joules/Mol)
                                  162.62187 (Kcal/Mol)
 Warning -- explicit consideration of  22 degrees of freedom as
           vibrations may cause significant error
 Vibrational temperatures:     35.82    41.55    62.96    88.11   101.94
          (Kelvin)            122.58   145.13   158.38   211.61   276.88
                              309.23   342.73   395.70   482.26   485.38
                              503.43   547.69   555.35   786.09   800.82
                              848.63   891.90   946.09   954.03   971.36
                              986.83  1036.26  1069.54  1111.80  1149.50
                             1189.91  1213.55  1245.44  1276.22  1323.94
                             1345.23  1354.49  1419.25  1444.77  1480.71
                             1485.56  1577.70  1585.91  1611.24  1652.06
                             1662.33  1691.62  1771.38  1780.89  1809.12
                             1840.13  1856.75  1882.84  1908.75  1911.74
                             1942.27  1959.17  1994.70  2024.17  2033.52
                             2053.06  2129.23  2139.74  2157.66  2169.83
                             2184.77  2213.19  2304.80  2395.50  2401.27
                             2515.66  2633.12  4352.72  4373.37  4403.08
                             4441.90  4459.18  4468.10  4545.39  4646.57
                             4671.12  4889.41  5001.09  5004.16  5057.57
                             5133.83  5228.56

 Zero-point correction=                           0.259154 (Hartree/Particle)
 Thermal correction to Energy=                    0.275315
 Thermal correction to Enthalpy=                  0.276260
 Thermal correction to Gibbs Free Energy=         0.212570
 Sum of electronic and zero-point Energies=           -796.467854
 Sum of electronic and thermal Energies=              -796.451693
 Sum of electronic and thermal Enthalpies=            -796.450749
 Sum of electronic and thermal Free Energies=         -796.514438

                     E (Thermal)             CV                S
                      KCal/Mol        Cal/Mol-Kelvin    Cal/Mol-Kelvin
 Total                  172.763             58.480            134.046
 Electronic               0.000              0.000              0.000
 Translational            0.889              2.981             42.163
 Rotational               0.889              2.981             33.215
 Vibrational            170.986             52.518             58.667
 Vibration     1          0.593              1.985              6.200
 Vibration     2          0.593              1.984              5.905
 Vibration     3          0.595              1.980              5.081
 Vibration     4          0.597              1.973              4.417
 Vibration     5          0.598              1.968              4.130
 Vibration     6          0.601              1.959              3.768
 Vibration     7          0.604              1.948              3.437
 Vibration     8          0.606              1.941              3.268
 Vibration     9          0.617              1.906              2.710
 Vibration    10          0.634              1.850              2.204
 Vibration    11          0.645              1.818              2.001
 Vibration    12          0.656              1.782              1.816
 Vibration    13          0.677              1.720              1.564
 Vibration    14          0.716              1.605              1.235
 Vibration    15          0.718              1.601              1.225
 Vibration    16          0.727              1.575              1.167
 Vibration    17          0.750              1.511              1.037
 Vibration    18          0.755              1.500              1.016
 Vibration    19          0.902              1.148              0.552
 Vibration    20          0.912              1.125              0.531
 Vibration    21          0.947              1.053              0.467
 Vibration    22          0.980              0.990              0.417

 Optimization completed.
    -- Stationary point found.
 Normal termination of Gaussian 09 at Sat Jul 24 02:15:32 2021.
