 Gaussian 09, Revision D.01,
 Gaussian 09:  ES64L-G09RevD.01 24-Apr-2013

 ----------------------------------------------------------------------
 # B3LYP/6-311G(d,p) EmpiricalDispersion=GD3BJ opt=calcfc freq=noraman
 nosymm integral(ultrafinegrid)
 ----------------------------------------------------------------------

 ------------------------------------------------------------
 Candidate Structure: Conf:628 OPT and FREQ calc in gas phase
 ------------------------------------------------------------
 Symbolic Z-matrix:
 Charge =  1 Multiplicity = 1

 SCF Done:  E(RB3LYP) =  -796.745308894     A.U. after   14 cycles
 SCF Done:  E(RB3LYP) =  -796.750886560     A.U. after   12 cycles
 SCF Done:  E(RB3LYP) =  -796.752721476     A.U. after   12 cycles
 SCF Done:  E(RB3LYP) =  -796.753282735     A.U. after   12 cycles
 SCF Done:  E(RB3LYP) =  -796.753600950     A.U. after   12 cycles
 SCF Done:  E(RB3LYP) =  -796.753632546     A.U. after    9 cycles
 SCF Done:  E(RB3LYP) =  -796.753637046     A.U. after    9 cycles
 SCF Done:  E(RB3LYP) =  -796.753638106     A.U. after    8 cycles
 SCF Done:  E(RB3LYP) =  -796.753638330     A.U. after    7 cycles
 SCF Done:  E(RB3LYP) =  -796.753638360     A.U. after    7 cycles
 Optimization completed.
    -- Stationary point found.
 Normal termination of Gaussian 09 at Sat Jul 24 01:31:31 2021.

 ----------------------------------------------------------------------
 #N Geom=AllCheck Guess=TCheck SCRF=Check GenChk RB3LYP/6-311G(d,p) Fre
 q
 ----------------------------------------------------------------------

 Structure from the checkpoint file:  "conf-628.chk"
 ------------------------------------------------------------
 Candidate Structure: Conf:628 OPT and FREQ calc in gas phase
 ------------------------------------------------------------
 Charge =  1 Multiplicity = 1

                          Input orientation:
 ---------------------------------------------------------------------
 Center     Atomic      Atomic             Coordinates (Angstroms)
 Number     Number       Type             X           Y           Z
 ---------------------------------------------------------------------
      1          8           0       -1.394250   -0.054096   -0.848941
      2          6           0       -1.521029   -0.204903    0.383149
      3          7           0       -0.480957   -0.371357    1.190213
      4          6           0        0.898241   -0.415672    0.706796
      5          6           0        1.706528   -0.994332    1.858488
      6          8           0        3.004465   -1.134185    1.554630
      7          8           0        1.234919   -1.273320    2.931328
      8          6           0        1.422340    0.982455    0.245638
      9          6           0        2.339803    0.928837   -0.925343
     10          6           0        2.135626    1.294141   -2.234310
     11          7           0        3.259213    1.062247   -2.989415
     12          6           0        4.141591    0.557639   -2.158301
     13          7           0        3.639421    0.457222   -0.891263
     14          6           0       -2.910059   -0.167388    1.016596
     15          6           0       -3.971456   -0.737006    0.071721
     16          7           0       -3.895963   -0.019123   -1.256239
     17          1           0       -0.602198   -0.570432    2.178153
     18          1           0        0.951683   -1.095239   -0.147063
     19          1           0        3.453545   -1.499328    2.334353
     20          1           0        0.552765    1.563976   -0.058676
     21          1           0        1.870351    1.503121    1.097862
     22          1           0        1.241643    1.718414   -2.665334
     23          1           0        5.145807    0.252355   -2.408453
     24          1           0        4.095079    0.059206   -0.085684
     25          1           0       -2.937777   -0.729356    1.951469
     26          1           0       -3.140821    0.873911    1.268219
     27          1           0       -3.778629   -1.788826   -0.139185
     28          1           0       -4.975804   -0.638489    0.479821
     29          1           0       -4.292494    0.920662   -1.209962
     30          1           0       -2.825258    0.048528   -1.424850
     31          1           0       -4.366306   -0.529382   -2.004022
 ---------------------------------------------------------------------

 SCF Done:  E(RB3LYP) =  -796.753638360     A.U. after    1 cycles

 Alpha  occ. eigenvalues --  -19.30487 -19.26365 -19.24927 -14.58329 -14.49927
 Alpha  occ. eigenvalues --  -14.44654 -14.36426 -10.44561 -10.44314 -10.40874
 Alpha  occ. eigenvalues --  -10.36523 -10.36367 -10.30658 -10.29999 -10.29064
 Alpha  occ. eigenvalues --  -10.26223  -1.25244  -1.21840  -1.16520  -1.15672
 Alpha  occ. eigenvalues --   -1.09737  -1.09216  -0.96655  -0.95336  -0.92393
 Alpha  occ. eigenvalues --   -0.86009  -0.83400  -0.78829  -0.77600  -0.75540
 Alpha  occ. eigenvalues --   -0.74486  -0.73039  -0.69829  -0.68512  -0.67552
 Alpha  occ. eigenvalues --   -0.66387  -0.64780  -0.63217  -0.62391  -0.61665
 Alpha  occ. eigenvalues --   -0.60894  -0.59445  -0.58546  -0.56877  -0.56533
 Alpha  occ. eigenvalues --   -0.55527  -0.54821  -0.52995  -0.52087  -0.50711
 Alpha  occ. eigenvalues --   -0.49910  -0.49812  -0.48865  -0.46333  -0.44056
 Alpha  occ. eigenvalues --   -0.42718  -0.42224  -0.36373  -0.34543  -0.31309
 Alpha virt. eigenvalues --   -0.15960  -0.14514  -0.12992  -0.10211  -0.10017
 Alpha virt. eigenvalues --   -0.08348  -0.07518  -0.06654  -0.05370  -0.05020
 Alpha virt. eigenvalues --   -0.03653  -0.02731  -0.02222  -0.02051  -0.01709

 Mulliken charges:
               1
     1  O   -0.437740
     2  C    0.441262
     3  N   -0.393856
     4  C   -0.063176
     5  C    0.395449
     6  O   -0.326715
     7  O   -0.322155
     8  C   -0.192435
     9  C    0.083126
    10  C   -0.049065
    11  N   -0.285671
    12  C    0.162221
    13  N   -0.368295
    14  C   -0.294636
    15  C   -0.145730
    16  N   -0.348851
    17  H    0.262229
    18  H    0.199273
    19  H    0.288862
    20  H    0.150736
    21  H    0.150822
    22  H    0.094164
    23  H    0.124998
    24  H    0.234632
    25  H    0.180786
    26  H    0.181446
    27  H    0.189809
    28  H    0.191616
    29  H    0.284395
    30  H    0.317133
    31  H    0.295367
 Sum of Mulliken charges =   1.00000

 Dipole moment (field-independent basis, Debye):
    X=            -11.9688    Y=             -2.1810    Z=              2.7454  Tot=             12.4718
 Quadrupole moment (field-independent basis, Debye-Ang):
   XX=             -5.8185   YY=            -88.6428   ZZ=            -94.8701
   XY=             -6.1944   XZ=             25.2055   YZ=              2.6261

  Exact polarizability: 162.857  -4.806  89.292  -6.205 -15.510 137.344
 Approx polarizability: 207.631 -14.348 136.899  -5.413 -20.767 221.604

                      1                      2                      3
                      A                      A                      A
 Frequencies --     22.7518                30.4788                47.9337
 Red. masses --      4.6635                 4.0338                 5.0799
 Frc consts  --      0.0014                 0.0022                 0.0069
 IR Inten    --      4.4138                 8.9133                 2.1274

                      4                      5                      6
                      A                      A                      A
 Frequencies --     58.9212                73.6633                97.3044
 Red. masses --      4.9456                 5.6214                 5.3553
 Frc consts  --      0.0101                 0.0180                 0.0299
 IR Inten    --      6.3159                 2.9375                 6.5164

                      7                      8                      9
                      A                      A                      A
 Frequencies --    118.8171               129.9235               190.1140
 Red. masses --      5.0417                 5.4702                 5.0699
 Frc consts  --      0.0419                 0.0544                 0.1080
 IR Inten    --      2.2840                 0.4287                 8.8157

                     10                     11                     12
                      A                      A                      A
 Frequencies --    208.4459               261.4483               288.8792
 Red. masses --      2.1936                 5.0258                 4.1689
 Frc consts  --      0.0562                 0.2024                 0.2050
 IR Inten    --     27.7457                54.8215                 2.3489

                     13                     14                     15
                      A                      A                      A
 Frequencies --    323.3488               347.5197               387.3727
 Red. masses --      2.0569                 6.1922                 3.5981
 Frc consts  --      0.1267                 0.4406                 0.3181
 IR Inten    --     10.2658                 1.1708                 4.1552

                     16                     17                     18
                      A                      A                      A
 Frequencies --    391.6148               405.7383               449.6757
 Red. masses --      2.8382                 1.6283                 2.2137
 Frc consts  --      0.2565                 0.1579                 0.2637
 IR Inten    --    147.8733                18.4486                 7.5282

                     19                     20                     21
                      A                      A                      A
 Frequencies --    543.5370               552.2739               588.2762
 Red. masses --      2.6606                 1.6104                 2.1346
 Frc consts  --      0.4631                 0.2894                 0.4352
 IR Inten    --     62.4302                61.8406                14.0531

                     22                     23                     24
                      A                      A                      A
 Frequencies --    604.7336               644.3407               667.6376
 Red. masses --      2.2985                 2.9505                 1.3123
 Frc consts  --      0.4953                 0.7217                 0.3447
 IR Inten    --     28.5277                84.0384                 1.8755

                     25                     26                     27
                      A                      A                      A
 Frequencies --    668.6707               681.5406               732.5526
 Red. masses --      2.0593                 2.5429                 3.0357
 Frc consts  --      0.5425                 0.6959                 0.9598
 IR Inten    --    120.1716                 0.8379                14.3177

                     28                     29                     30
                      A                      A                      A
 Frequencies --    737.7553               773.5742               823.6502
 Red. masses --      3.1172                 3.9572                 2.6082
 Frc consts  --      0.9996                 1.3952                 1.0425
 IR Inten    --     33.6963                 8.6845                 6.0085

                     31                     32                     33
                      A                      A                      A
 Frequencies --    830.2216               849.9934               853.0987
 Red. masses --      1.4022                 1.7477                 1.9741
 Frc consts  --      0.5694                 0.7439                 0.8465
 IR Inten    --     24.5020                26.6090                26.3864

                     34                     35                     36
                      A                      A                      A
 Frequencies --    887.1576               941.6564               948.5394
 Red. masses --      2.0410                 5.2554                 2.3439
 Frc consts  --      0.9465                 2.7456                 1.2425
 IR Inten    --     90.0960                15.9321                 2.2686

                     37                     38                     39
                      A                      A                      A
 Frequencies --    951.8608              1002.2331              1005.0463
 Red. masses --      1.4500                 3.7223                 3.6118
 Frc consts  --      0.7741                 2.2029                 2.1495
 IR Inten    --      3.9455                 1.3017                 3.8459

                     40                     41                     42
                      A                      A                      A
 Frequencies --   1026.5994              1034.3864              1101.2293
 Red. masses --      3.5941                 3.2684                 2.7540
 Frc consts  --      2.2318                 2.0604                 1.9678
 IR Inten    --     31.0180                10.8575                 6.2362

                     43                     44                     45
                      A                      A                      A
 Frequencies --   1111.9415              1128.4299              1138.5378
 Red. masses --      1.6266                 1.4830                 1.5326
 Frc consts  --      1.1849                 1.1126                 1.1705
 IR Inten    --     36.5068               160.0867                28.3324

                     46                     47                     48
                      A                      A                      A
 Frequencies --   1151.2969              1190.9605              1196.3637
 Red. masses --      2.0562                 1.3068                 2.5618
 Frc consts  --      1.6058                 1.0921                 2.1604
 IR Inten    --     22.3227                 6.0550               188.7487

                     49                     50                     51
                      A                      A                      A
 Frequencies --   1250.8028              1267.8825              1273.7657
 Red. masses --      1.4955                 2.1395                 1.4335
 Frc consts  --      1.3785                 2.0264                 1.3703
 IR Inten    --     12.1318                 9.9007                 2.5219

                     52                     53                     54
                      A                      A                      A
 Frequencies --   1291.2387              1309.2037              1324.4361
 Red. masses --      1.3023                 1.3097                 1.2481
 Frc consts  --      1.2793                 1.3226                 1.2899
 IR Inten    --     14.4617                 0.5565                91.3673

                     55                     56                     57
                      A                      A                      A
 Frequencies --   1327.7039              1360.0227              1380.2290
 Red. masses --      1.3321                 1.4831                 1.6319
 Frc consts  --      1.3835                 1.6163                 1.8316
 IR Inten    --      4.5746                40.7045                 5.4533

                     58                     59                     60
                      A                      A                      A
 Frequencies --   1395.3113              1399.5380              1429.4651
 Red. masses --      3.2187                 1.2587                 2.3551
 Frc consts  --      3.6921                 1.4525                 2.8353
 IR Inten    --     40.7416               124.7542                75.7582

                     61                     62                     63
                      A                      A                      A
 Frequencies --   1433.2522              1459.2395              1466.7281
 Red. masses --      2.6602                 1.3077                 1.0822
 Frc consts  --      3.2197                 1.6407                 1.3717
 IR Inten    --     23.7001               488.0169                16.7038

                     64                     65                     66
                      A                      A                      A
 Frequencies --   1476.9651              1498.1345              1511.2127
 Red. masses --      1.1551                 3.2963                 1.0763
 Frc consts  --      1.4846                 4.3589                 1.4482
 IR Inten    --     12.1655                23.2095                31.6171

                     67                     68                     69
                      A                      A                      A
 Frequencies --   1571.3346              1607.8218              1631.8014
 Red. masses --      2.7669                 4.4292                 1.1478
 Frc consts  --      4.0251                 6.7461                 1.8007
 IR Inten    --    240.1907                 3.0695                30.0650

                     70                     71                     72
                      A                      A                      A
 Frequencies --   1679.6284              1705.4156              1822.4784
 Red. masses --      1.1019                 3.1300                 9.7692
 Frc consts  --      1.8315                 5.3636                19.1177
 IR Inten    --     80.5020               140.5776               306.7851

                     73                     74                     75
                      A                      A                      A
 Frequencies --   2504.0352              3037.8609              3041.1463
 Red. masses --      1.0935                 1.0698                 1.0685
 Frc consts  --      4.0399                 5.8170                 5.8223
 IR Inten    --   1216.3668                19.7854                 1.0006

                     76                     77                     78
                      A                      A                      A
 Frequencies --   3073.5081              3091.4576              3108.0462
 Red. masses --      1.0836                 1.0624                 1.0939
 Frc consts  --      6.0311                 5.9822                 6.2257
 IR Inten    --      3.9307                 2.1300                 0.6359

                     79                     80                     81
                      A                      A                      A
 Frequencies --   3115.5917              3147.7085              3230.9587
 Red. masses --      1.0939                 1.1111                 1.0966
 Frc consts  --      6.2561                 6.4863                 6.7445
 IR Inten    --      5.3034                 0.7566                 6.5948

                     82                     83                     84
                      A                      A                      A
 Frequencies --   3245.4503              3460.1556              3525.5164
 Red. masses --      1.0988                 1.0519                 1.0948
 Frc consts  --      6.8189                 7.4205                 8.0173
 IR Inten    --      0.5406                79.5908                73.9216

                     85                     86                     87
                      A                      A                      A
 Frequencies --   3537.2305              3656.1560              3735.3350
 Red. masses --      1.0786                 1.0811                 1.0645
 Frc consts  --      7.9515                 8.5145                 8.7511
 IR Inten    --    137.1612                85.3522               133.0605

 - Thermochemistry -
 -------------------
 Temperature   298.150 Kelvin.  Pressure   1.00000 Atm.
 Atom     1 has atomic number  8 and mass  15.99491

 Molecular mass:   227.11442 amu.
 Principal axes and moments of inertia in atomic units:
                           1         2         3
     Eigenvalues --  2499.675345900.099708080.42425
           X            0.97760   0.20616  -0.04238
           Y            0.11855  -0.37301   0.92022
           Z           -0.17390   0.90463   0.38910
 This molecule is an asymmetric top.
 Rotational symmetry number  1.
 Warning -- assumption of classical behavior for rotation
           may cause significant error
 Rotational temperatures (Kelvin)      0.03465     0.01468     0.01072
 Rotational constants (GHZ):           0.72199     0.30588     0.22335
 Zero-point vibrational energy     679394.0 (Joules/Mol)
                                  162.37907 (Kcal/Mol)
 Warning -- explicit consideration of  22 degrees of freedom as
           vibrations may cause significant error
 Vibrational temperatures:     32.73    43.85    68.97    84.77   105.98
          (Kelvin)            140.00   170.95   186.93   273.53   299.91
                              376.17   415.63   465.23   500.00   557.34
                              563.45   583.77   646.98   782.03   794.60
                              846.40   870.08   927.06   960.58   962.07
                              980.58  1053.98  1061.46  1113.00  1185.05
                             1194.50  1222.95  1227.42  1276.42  1354.83
                             1364.73  1369.51  1441.99  1446.04  1477.05
                             1488.25  1584.42  1599.83  1623.56  1638.10
                             1656.46  1713.52  1721.30  1799.62  1824.20
                             1832.66  1857.80  1883.65  1905.57  1910.27
                             1956.77  1985.84  2007.54  2013.62  2056.68
                             2062.13  2099.52  2110.29  2125.02  2155.48
                             2174.30  2260.80  2313.29  2347.80  2416.61
                             2453.71  2622.14  3602.74  4370.80  4375.53
                             4422.09  4447.91  4471.78  4482.64  4528.84
                             4648.62  4669.47  4978.39  5072.43  5089.28
                             5260.39  5374.31

 Zero-point correction=                           0.258768 (Hartree/Particle)
 Thermal correction to Energy=                    0.274339
 Thermal correction to Enthalpy=                  0.275283
 Thermal correction to Gibbs Free Energy=         0.213214
 Sum of electronic and zero-point Energies=           -796.494871
 Sum of electronic and thermal Energies=              -796.479299
 Sum of electronic and thermal Enthalpies=            -796.478355
 Sum of electronic and thermal Free Energies=         -796.540424

                     E (Thermal)             CV                S
                      KCal/Mol        Cal/Mol-Kelvin    Cal/Mol-Kelvin
 Total                  172.150             57.663            130.636
 Electronic               0.000              0.000              0.000
 Translational            0.889              2.981             42.163
 Rotational               0.889              2.981             33.144
 Vibrational            170.373             51.702             55.329
 Vibration     1          0.593              1.985              6.378
 Vibration     2          0.594              1.984              5.798
 Vibration     3          0.595              1.978              4.901
 Vibration     4          0.596              1.974              4.493
 Vibration     5          0.599              1.966              4.053
 Vibration     6          0.603              1.951              3.508
 Vibration     7          0.609              1.934              3.120
 Vibration     8          0.612              1.923              2.947
 Vibration     9          0.633              1.854              2.227
 Vibration    10          0.642              1.828              2.057
 Vibration    11          0.669              1.743              1.652
 Vibration    12          0.685              1.694              1.481
 Vibration    13          0.708              1.629              1.293
 Vibration    14          0.725              1.580              1.177
 Vibration    15          0.756              1.497              1.010
 Vibration    16          0.759              1.488              0.994
 Vibration    17          0.771              1.458              0.942
 Vibration    18          0.809              1.362              0.797
 Vibration    19          0.899              1.154              0.558
 Vibration    20          0.908              1.135              0.539
 Vibration    21          0.945              1.057              0.470
 Vibration    22          0.963              1.022              0.442

 Optimization completed.
    -- Stationary point found.
 Normal termination of Gaussian 09 at Sat Jul 24 02:05:05 2021.
