 Gaussian 09, Revision D.01,
 Gaussian 09:  ES64L-G09RevD.01 24-Apr-2013

 ----------------------------------------------------------------------
 # B3LYP/6-311G(d,p) EmpiricalDispersion=GD3BJ opt=calcfc freq=noraman
 nosymm integral(ultrafinegrid)
 ----------------------------------------------------------------------

 -----------------------------------------------------------
 Candidate Structure: Conf:55 OPT and FREQ calc in gas phase
 -----------------------------------------------------------
 Symbolic Z-matrix:
 Charge =  1 Multiplicity = 1

 SCF Done:  E(RB3LYP) =  -796.717840948     A.U. after   17 cycles
 SCF Done:  E(RB3LYP) =  -796.724011614     A.U. after   14 cycles
 SCF Done:  E(RB3LYP) =  -796.724093153     A.U. after   15 cycles
 SCF Done:  E(RB3LYP) =  -796.724927405     A.U. after   13 cycles
 SCF Done:  E(RB3LYP) =  -796.724226586     A.U. after   14 cycles
 SCF Done:  E(RB3LYP) =  -796.725446094     A.U. after   10 cycles
 SCF Done:  E(RB3LYP) =  -796.725931248     A.U. after   11 cycles
 SCF Done:  E(RB3LYP) =  -796.726132139     A.U. after   12 cycles
 SCF Done:  E(RB3LYP) =  -796.726204400     A.U. after   11 cycles
 SCF Done:  E(RB3LYP) =  -796.726239745     A.U. after   11 cycles
 SCF Done:  E(RB3LYP) =  -796.726249620     A.U. after   11 cycles
 SCF Done:  E(RB3LYP) =  -796.726254960     A.U. after    9 cycles
 SCF Done:  E(RB3LYP) =  -796.726259123     A.U. after    9 cycles
 SCF Done:  E(RB3LYP) =  -796.726262190     A.U. after    9 cycles
 SCF Done:  E(RB3LYP) =  -796.726264513     A.U. after    9 cycles
 SCF Done:  E(RB3LYP) =  -796.726265221     A.U. after    9 cycles
 SCF Done:  E(RB3LYP) =  -796.726265243     A.U. after    6 cycles
 Optimization completed.
    -- Stationary point found.
 Normal termination of Gaussian 09 at Sat Jul 24 01:48:38 2021.

 ----------------------------------------------------------------------
 #N Geom=AllCheck Guess=TCheck SCRF=Check GenChk RB3LYP/6-311G(d,p) Fre
 q
 ----------------------------------------------------------------------

 Structure from the checkpoint file:  "conf-55.chk"
 -----------------------------------------------------------
 Candidate Structure: Conf:55 OPT and FREQ calc in gas phase
 -----------------------------------------------------------
 Charge =  1 Multiplicity = 1

                          Input orientation:
 ---------------------------------------------------------------------
 Center     Atomic      Atomic             Coordinates (Angstroms)
 Number     Number       Type             X           Y           Z
 ---------------------------------------------------------------------
      1          8           0        1.485923    0.229434    1.242022
      2          6           0        1.559534   -0.134433    0.078349
      3          7           0        0.515776   -0.508714   -0.677020
      4          6           0       -0.822867   -0.669811   -0.131704
      5          6           0       -1.566500   -1.595851   -1.108519
      6          8           0       -2.774990   -2.009124   -0.737029
      7          8           0       -1.074906   -1.919755   -2.159893
      8          6           0       -1.536646    0.694994    0.055367
      9          6           0       -2.885317    0.547032    0.683733
     10          6           0       -3.291066   -0.041995    1.863261
     11          7           0       -4.660927    0.012920    1.991137
     12          6           0       -5.091901    0.623870    0.913844
     13          7           0       -4.058270    0.964324    0.084468
     14          6           0        2.932548   -0.209267   -0.623217
     15          6           0        3.874156    0.742417    0.094929
     16          7           0        5.331370    0.419031   -0.214127
     17          1           0        0.628406   -0.896417   -1.609020
     18          1           0       -0.752325   -1.154482    0.846371
     19          1           0       -3.036499   -1.608984    0.112974
     20          1           0       -1.614942    1.185804   -0.918611
     21          1           0       -0.886521    1.309395    0.681598
     22          1           0       -2.672614   -0.474288    2.635639
     23          1           0       -6.121117    0.843891    0.677009
     24          1           0       -4.136421    1.427007   -0.808179
     25          1           0        3.282349   -1.244562   -0.529054
     26          1           0        2.847965    0.020410   -1.687939
     27          1           0        3.721375    1.781204   -0.195098
     28          1           0        3.742918    0.653935    1.172421
     29          1           0        5.564006   -0.535007    0.078417
     30          1           0        5.531815    0.490404   -1.216009
     31          1           0        5.965524    1.056619    0.276652
 ---------------------------------------------------------------------

 SCF Done:  E(RB3LYP) =  -796.726265243     A.U. after    1 cycles

 Alpha  occ. eigenvalues --  -19.26300 -19.22376 -19.21225 -14.64114 -14.46791
 Alpha  occ. eigenvalues --  -14.46097 -14.37676 -10.41615 -10.41599 -10.41040
 Alpha  occ. eigenvalues --  -10.35737 -10.34685 -10.31089 -10.30593 -10.30158
 Alpha  occ. eigenvalues --  -10.27555  -1.21223  -1.20690  -1.18206  -1.13294
 Alpha  occ. eigenvalues --   -1.11005  -1.06370  -0.96868  -0.96495  -0.91554
 Alpha  occ. eigenvalues --   -0.85979  -0.83132  -0.79205  -0.78923  -0.77678
 Alpha  occ. eigenvalues --   -0.73191  -0.71456  -0.70830  -0.69446  -0.68323
 Alpha  occ. eigenvalues --   -0.67561  -0.64985  -0.63733  -0.60797  -0.60166
 Alpha  occ. eigenvalues --   -0.58474  -0.57610  -0.56891  -0.55326  -0.54704
 Alpha  occ. eigenvalues --   -0.53767  -0.53045  -0.52356  -0.51132  -0.50885
 Alpha  occ. eigenvalues --   -0.50079  -0.48745  -0.48006  -0.42552  -0.40326
 Alpha  occ. eigenvalues --   -0.39668  -0.38803  -0.37696  -0.35582  -0.32537
 Alpha virt. eigenvalues --   -0.18924  -0.13278  -0.12276  -0.11682  -0.10529
 Alpha virt. eigenvalues --   -0.09819  -0.07471  -0.07082  -0.05719  -0.05316
 Alpha virt. eigenvalues --   -0.04641  -0.04062  -0.03152  -0.01987  -0.01143

 Mulliken charges:
               1
     1  O   -0.373820
     2  C    0.395515
     3  N   -0.408374
     4  C   -0.166655
     5  C    0.415729
     6  O   -0.263040
     7  O   -0.331480
     8  C   -0.105356
     9  C   -0.026635
    10  C   -0.089344
    11  N   -0.267186
    12  C    0.164703
    13  N   -0.344529
    14  C   -0.287388
    15  C   -0.134530
    16  N   -0.331190
    17  H    0.251122
    18  H    0.183150
    19  H    0.275497
    20  H    0.128201
    21  H    0.172297
    22  H    0.119968
    23  H    0.134580
    24  H    0.240118
    25  H    0.162066
    26  H    0.162167
    27  H    0.191336
    28  H    0.214117
    29  H    0.304617
    30  H    0.302943
    31  H    0.311400
 Sum of Mulliken charges =   1.00000

 Dipole moment (field-independent basis, Debye):
    X=             20.1352    Y=              4.1536    Z=             -3.2633  Tot=             20.8165
 Quadrupole moment (field-independent basis, Debye-Ang):
   XX=             38.6528   YY=            -90.5647   ZZ=           -100.9263
   XY=             -2.9277   XZ=              0.3280   YZ=             -9.4771

  Exact polarizability: 177.302   0.331  96.293 -11.169   2.888 117.456
 Approx polarizability: 215.115   0.967 148.870 -11.906  -2.381 206.362

                      1                      2                      3
                      A                      A                      A
 Frequencies --     22.6723                27.8344                39.7344
 Red. masses --      3.5767                 4.4226                 2.0450
 Frc consts  --      0.0011                 0.0020                 0.0019
 IR Inten    --      7.8181                 4.8424                10.3898

                      4                      5                      6
                      A                      A                      A
 Frequencies --     46.7865                72.4125                74.5606
 Red. masses --      5.0255                 6.5034                 3.4546
 Frc consts  --      0.0065                 0.0201                 0.0113
 IR Inten    --      0.1579                14.8987                 7.2101

                      7                      8                      9
                      A                      A                      A
 Frequencies --     89.1197               104.5230               143.0909
 Red. masses --      6.5436                 7.5292                 4.1826
 Frc consts  --      0.0306                 0.0485                 0.0505
 IR Inten    --      3.5249                 5.7616                10.2200

                     10                     11                     12
                      A                      A                      A
 Frequencies --    185.4789               218.0081               242.3999
 Red. masses --      4.7744                 2.1082                 1.5567
 Frc consts  --      0.0968                 0.0590                 0.0539
 IR Inten    --      3.0294                23.7971                10.0969

                     13                     14                     15
                      A                      A                      A
 Frequencies --    277.7624               325.7179               336.7597
 Red. masses --      5.7965                 2.3159                 6.2841
 Frc consts  --      0.2635                 0.1448                 0.4199
 IR Inten    --      8.6769                 6.1616                 0.3098

                     16                     17                     18
                      A                      A                      A
 Frequencies --    345.1885               379.2114               397.3901
 Red. masses --      5.9893                 3.4905                 4.5114
 Frc consts  --      0.4205                 0.2957                 0.4198
 IR Inten    --      8.8951                19.7362                 8.9118

                     19                     20                     21
                      A                      A                      A
 Frequencies --    543.9923               553.7696               586.3909
 Red. masses --      2.9628                 1.4934                 2.3828
 Frc consts  --      0.5166                 0.2698                 0.4827
 IR Inten    --     49.2140                62.0111                18.3516

                     22                     23                     24
                      A                      A                      A
 Frequencies --    620.9866               651.5373               664.4037
 Red. masses --      2.8617                 1.6419                 1.6375
 Frc consts  --      0.6502                 0.4106                 0.4259
 IR Inten    --     40.6822                24.9539                46.1835

                     25                     26                     27
                      A                      A                      A
 Frequencies --    672.4302               681.2722               719.6457
 Red. masses --      2.3239                 3.0078                 2.9000
 Frc consts  --      0.6191                 0.8225                 0.8849
 IR Inten    --     12.2566                17.9886                14.6777

                     28                     29                     30
                      A                      A                      A
 Frequencies --    743.2587               763.6885               798.2334
 Red. masses --      2.9361                 3.8578                 1.4385
 Frc consts  --      0.9557                 1.3256                 0.5400
 IR Inten    --      1.5924                 0.4843                10.3791

                     31                     32                     33
                      A                      A                      A
 Frequencies --    822.9444               838.9958               860.1735
 Red. masses --      2.6379                 1.4009                 1.4188
 Frc consts  --      1.0526                 0.5810                 0.6185
 IR Inten    --      0.8539                27.5208                28.3017

                     34                     35                     36
                      A                      A                      A
 Frequencies --    887.0135               920.1391               936.6262
 Red. masses --      2.6213                 1.3247                 3.5495
 Frc consts  --      1.2152                 0.6608                 1.8346
 IR Inten    --     36.2744                 5.8905                40.1582

                     37                     38                     39
                      A                      A                      A
 Frequencies --    943.2170               987.9083              1012.4098
 Red. masses --      5.6673                 2.0785                 2.9824
 Frc consts  --      2.9706                 1.1952                 1.8010
 IR Inten    --     11.4080                24.9676                 7.0289

                     40                     41                     42
                      A                      A                      A
 Frequencies --   1028.2656              1036.3720              1093.8373
 Red. masses --      3.1764                 4.0768                 1.6981
 Frc consts  --      1.9788                 2.5799                 1.1971
 IR Inten    --     15.2241                 4.4768                15.5566

                     43                     44                     45
                      A                      A                      A
 Frequencies --   1107.0688              1115.9235              1149.0868
 Red. masses --      1.6530                 2.3228                 2.2084
 Frc consts  --      1.1937                 1.7042                 1.7180
 IR Inten    --     14.9352                40.0180                14.1066

                     46                     47                     48
                      A                      A                      A
 Frequencies --   1153.6762              1169.1870              1225.9785
 Red. masses --      2.6736                 1.3674                 1.8672
 Frc consts  --      2.0966                 1.1013                 1.6535
 IR Inten    --      4.5659                 0.8128                16.3582

                     49                     50                     51
                      A                      A                      A
 Frequencies --   1234.9458              1255.6767              1277.2321
 Red. masses --      1.6553                 1.9989                 1.4365
 Frc consts  --      1.4874                 1.8569                 1.3807
 IR Inten    --      7.4586                14.4933                 0.4236

                     52                     53                     54
                      A                      A                      A
 Frequencies --   1288.8677              1308.9726              1324.9990
 Red. masses --      1.2895                 1.3624                 1.4055
 Frc consts  --      1.2620                 1.3754                 1.4539
 IR Inten    --      1.2194                15.2588                18.7578

                     55                     56                     57
                      A                      A                      A
 Frequencies --   1329.7833              1350.3385              1364.9496
 Red. masses --      1.3564                 1.3136                 1.4083
 Frc consts  --      1.4132                 1.4112                 1.5459
 IR Inten    --     33.9888                43.6726               113.6145

                     58                     59                     60
                      A                      A                      A
 Frequencies --   1401.2460              1406.2580              1414.6405
 Red. masses --      2.6409                 1.3388                 2.1531
 Frc consts  --      3.0551                 1.5599                 2.5387
 IR Inten    --     87.4126                19.0732               165.0957

                     61                     62                     63
                      A                      A                      A
 Frequencies --   1430.7626              1479.8462              1484.7254
 Red. masses --      3.2147                 1.1180                 2.1880
 Frc consts  --      3.8772                 1.4425                 2.8418
 IR Inten    --     20.1197                 1.1147                17.6763

                     64                     65                     66
                      A                      A                      A
 Frequencies --   1493.2570              1508.7300              1517.9622
 Red. masses --      1.4632                 1.0731                 1.1841
 Frc consts  --      1.9223                 1.4391                 1.6076
 IR Inten    --     15.8753                17.0210               213.5226

                     67                     68                     69
                      A                      A                      A
 Frequencies --   1539.3256              1595.7057              1665.0988
 Red. masses --      2.4184                 4.0762                 1.0423
 Frc consts  --      3.3762                 6.1152                 1.7026
 IR Inten    --    316.1308                 9.8949                48.9514

                     70                     71                     72
                      A                      A                      A
 Frequencies --   1668.9302              1757.0713              1831.1337
 Red. masses --      1.0436                10.0816                 9.2762
 Frc consts  --      1.7126                18.3384                18.3257
 IR Inten    --     38.5967               292.5222               291.1482

                     73                     74                     75
                      A                      A                      A
 Frequencies --   3024.8273              3045.8248              3058.7193
 Red. masses --      1.0648                 1.0643                 1.0793
 Frc consts  --      5.7401                 5.8172                 5.9496
 IR Inten    --      3.9724                 5.9744                13.7799

                     76                     77                     78
                      A                      A                      A
 Frequencies --   3087.4666              3093.8607              3098.0167
 Red. masses --      1.0988                 1.1045                 1.0593
 Frc consts  --      6.1710                 6.2287                 5.9903
 IR Inten    --      4.8759                 3.5054                 5.3092

                     79                     80                     81
                      A                      A                      A
 Frequencies --   3157.3878              3227.7253              3250.0579
 Red. masses --      1.1118                 1.0967                 1.0991
 Frc consts  --      6.5302                 6.7317                 6.8403
 IR Inten    --      3.5546                 3.8012                 1.1902

                     82                     83                     84
                      A                      A                      A
 Frequencies --   3398.8027              3476.4208              3479.0430
 Red. masses --      1.0300                 1.0931                 1.0935
 Frc consts  --      7.0103                 7.7838                 7.7978
 IR Inten    --     54.6244                88.9293                88.6577

                     85                     86                     87
                      A                      A                      A
 Frequencies --   3522.3299              3600.9224              3641.5059
 Red. masses --      1.0780                 1.0672                 1.0816
 Frc consts  --      7.8803                 8.1533                 8.4505
 IR Inten    --    135.1997               375.5204                65.1130

 - Thermochemistry -
 -------------------
 Temperature   298.150 Kelvin.  Pressure   1.00000 Atm.
 Atom     1 has atomic number  8 and mass  15.99491

 Molecular mass:   227.11442 amu.
 Principal axes and moments of inertia in atomic units:
                           1         2         3
     Eigenvalues --  1610.246678086.464619113.51892
           X            0.99372   0.06395  -0.09183
           Y            0.02632   0.66401   0.74726
           Z           -0.10876   0.74498  -0.65816
 This molecule is an asymmetric top.
 Rotational symmetry number  1.
 Warning -- assumption of classical behavior for rotation
           may cause significant error
 Rotational temperatures (Kelvin)      0.05379     0.01071     0.00950
 Rotational constants (GHZ):           1.12079     0.22318     0.19803
 Zero-point vibrational energy     680139.5 (Joules/Mol)
                                  162.55725 (Kcal/Mol)
 Warning -- explicit consideration of  21 degrees of freedom as
           vibrations may cause significant error
 Vibrational temperatures:     32.62    40.05    57.17    67.32   104.19
          (Kelvin)            107.28   128.22   150.39   205.88   266.86
                              313.66   348.76   399.64   468.63   484.52
                              496.65   545.60   571.75   782.68   796.75
                              843.68   893.46   937.42   955.93   967.48
                              980.20  1035.41  1069.38  1098.78  1148.48
                             1184.03  1207.13  1237.60  1276.21  1323.87
                             1347.59  1357.08  1421.38  1456.63  1479.44
                             1491.11  1573.79  1592.82  1605.56  1653.28
                             1659.88  1682.20  1763.91  1776.81  1806.64
                             1837.65  1854.39  1883.32  1906.38  1913.26
                             1942.83  1963.86  2016.08  2023.29  2035.35
                             2058.55  2129.17  2136.19  2148.46  2170.72
                             2184.01  2214.74  2295.86  2395.70  2401.22
                             2528.03  2634.59  4352.05  4382.26  4400.81
                             4442.17  4451.37  4457.35  4542.77  4643.97
                             4676.10  4890.11  5001.79  5005.56  5067.84
                             5180.92  5239.31

 Zero-point correction=                           0.259051 (Hartree/Particle)
 Thermal correction to Energy=                    0.275336
 Thermal correction to Enthalpy=                  0.276280
 Thermal correction to Gibbs Free Energy=         0.211833
 Sum of electronic and zero-point Energies=           -796.467214
 Sum of electronic and thermal Energies=              -796.450929
 Sum of electronic and thermal Enthalpies=            -796.449985
 Sum of electronic and thermal Free Energies=         -796.514432

                     E (Thermal)             CV                S
                      KCal/Mol        Cal/Mol-Kelvin    Cal/Mol-Kelvin
 Total                  172.776             58.582            135.640
 Electronic               0.000              0.000              0.000
 Translational            0.889              2.981             42.163
 Rotational               0.889              2.981             33.139
 Vibrational            170.998             52.621             60.337
 Vibration     1          0.593              1.985              6.385
 Vibration     2          0.593              1.984              5.978
 Vibration     3          0.594              1.981              5.272
 Vibration     4          0.595              1.979              4.949
 Vibration     5          0.599              1.967              4.087
 Vibration     6          0.599              1.966              4.029
 Vibration     7          0.602              1.957              3.679
 Vibration     8          0.605              1.946              3.368
 Vibration     9          0.616              1.910              2.762
 Vibration    10          0.632              1.860              2.273
 Vibration    11          0.646              1.814              1.976
 Vibration    12          0.659              1.775              1.785
 Vibration    13          0.679              1.715              1.547
 Vibration    14          0.710              1.624              1.281
 Vibration    15          0.717              1.602              1.227
 Vibration    16          0.724              1.585              1.188
 Vibration    17          0.749              1.514              1.042
 Vibration    18          0.764              1.476              0.972
 Vibration    19          0.899              1.153              0.557
 Vibration    20          0.909              1.131              0.536
 Vibration    21          0.943              1.061              0.474

 Optimization completed.
    -- Stationary point found.
 Normal termination of Gaussian 09 at Sat Jul 24 02:21:09 2021.
