 Gaussian 09, Revision D.01,
 Gaussian 09:  ES64L-G09RevD.01 24-Apr-2013

 ----------------------------------------------------------------------
 # B3LYP/6-31G(d,p) opt=calcfc freq=noraman nosymm integral(ultrafinegr
 id)
 ----------------------------------------------------------------------

 ------------------------------------------------------------
 Candidate Structure: Conf:338 OPT and FREQ calc in gas phase
 ------------------------------------------------------------
 Symbolic Z-matrix:
 Charge =  0 Multiplicity = 1

 SCF Done:  E(RB3LYP) =  -796.114801762     A.U. after   14 cycles
 SCF Done:  E(RB3LYP) =  -796.117048393     A.U. after   13 cycles
 SCF Done:  E(RB3LYP) =  -796.117309256     A.U. after   15 cycles
 SCF Done:  E(RB3LYP) =  -796.117514138     A.U. after   12 cycles
 SCF Done:  E(RB3LYP) =  -796.117731778     A.U. after   12 cycles
 SCF Done:  E(RB3LYP) =  -796.117918499     A.U. after   13 cycles
 SCF Done:  E(RB3LYP) =  -796.119146342     A.U. after   14 cycles
 SCF Done:  E(RB3LYP) =  -796.117449379     A.U. after   14 cycles
 SCF Done:  E(RB3LYP) =  -796.119795154     A.U. after   11 cycles
 SCF Done:  E(RB3LYP) =  -796.119592116     A.U. after   13 cycles
 SCF Done:  E(RB3LYP) =  -796.122553519     A.U. after   11 cycles
 SCF Done:  E(RB3LYP) =  -796.123193627     A.U. after   12 cycles
 SCF Done:  E(RB3LYP) =  -796.123365050     A.U. after   12 cycles
 SCF Done:  E(RB3LYP) =  -796.123414257     A.U. after   11 cycles
 SCF Done:  E(RB3LYP) =  -796.123429485     A.U. after   11 cycles
 SCF Done:  E(RB3LYP) =  -796.123435907     A.U. after   10 cycles
 SCF Done:  E(RB3LYP) =  -796.123436939     A.U. after   10 cycles
 SCF Done:  E(RB3LYP) =  -796.123437581     A.U. after    8 cycles
 SCF Done:  E(RB3LYP) =  -796.123437616     A.U. after    7 cycles
 Optimization completed.
    -- Stationary point found.
 Normal termination of Gaussian 09 at Wed Jul 28 22:54:59 2021.

 ----------------------------------------------------------------------
 #N Geom=AllCheck Guess=TCheck SCRF=Check GenChk RB3LYP/6-31G(d,p) Freq
 ----------------------------------------------------------------------

 Structure from the checkpoint file:  "conf-338.chk"
 ------------------------------------------------------------
 Candidate Structure: Conf:338 OPT and FREQ calc in gas phase
 ------------------------------------------------------------
 Charge =  0 Multiplicity = 1

                          Input orientation:
 ---------------------------------------------------------------------
 Center     Atomic      Atomic             Coordinates (Angstroms)
 Number     Number       Type             X           Y           Z
 ---------------------------------------------------------------------
      1          8           0        0.567729    0.487798    1.789254
      2          6           0        1.276940    0.052785    0.872838
      3          7           0        0.787639   -0.564090   -0.225725
      4          6           0       -0.628846   -0.816768   -0.406664
      5          6           0       -0.774101   -1.966930   -1.389660
      6          8           0       -2.046474   -2.411553   -1.436391
      7          8           0        0.116181   -2.427775   -2.070868
      8          6           0       -1.443542    0.441318   -0.904901
      9          6           0       -2.456344    0.946167    0.069854
     10          6           0       -3.799340    1.228025   -0.046240
     11          7           0       -4.307948    1.706886    1.139706
     12          6           0       -3.281691    1.710225    1.968332
     13          7           0       -2.138336    1.266434    1.374663
     14          6           0        2.799711    0.164300    0.963716
     15          6           0        3.554499    0.395994   -0.352832
     16          7           0        3.416965   -0.757343   -1.254186
     17          1           0        1.459448   -0.918641   -0.916588
     18          1           0       -1.057010   -1.138463    0.548062
     19          1           0       -2.069108   -3.120250   -2.101503
     20          1           0       -1.965146    0.208221   -1.837290
     21          1           0       -0.701701    1.212689   -1.144681
     22          1           0       -4.423257    1.111612   -0.922712
     23          1           0       -3.310761    2.020151    3.004149
     24          1           0       -1.212083    1.118544    1.778689
     25          1           0        3.002143    0.982388    1.659205
     26          1           0        3.172901   -0.750863    1.444918
     27          1           0        3.132332    1.268305   -0.864400
     28          1           0        4.600551    0.644800   -0.115249
     29          1           0        3.947799   -1.551401   -0.903590
     30          1           0        3.780788   -0.542524   -2.178127
 ---------------------------------------------------------------------

 SCF Done:  E(RB3LYP) =  -796.123437616     A.U. after    1 cycles

 Alpha  occ. eigenvalues --  -19.21184 -19.15684 -19.12369 -14.35922 -14.35691
 Alpha  occ. eigenvalues --  -14.34664 -14.28727 -10.33639 -10.29611 -10.25026
 Alpha  occ. eigenvalues --  -10.23748 -10.21414 -10.20710 -10.20625 -10.19804
 Alpha  occ. eigenvalues --  -10.17459  -1.12249  -1.03975  -1.03176  -0.98563
 Alpha  occ. eigenvalues --   -0.93196  -0.90787  -0.84359  -0.79894  -0.76660
 Alpha  occ. eigenvalues --   -0.72984  -0.66875  -0.65345  -0.61952  -0.58588
 Alpha  occ. eigenvalues --   -0.58087  -0.56312  -0.53454  -0.52406  -0.51669
 Alpha  occ. eigenvalues --   -0.49854  -0.48475  -0.47079  -0.46764  -0.46464
 Alpha  occ. eigenvalues --   -0.45071  -0.43174  -0.41823  -0.41617  -0.40818
 Alpha  occ. eigenvalues --   -0.40181  -0.38883  -0.38364  -0.38136  -0.37786
 Alpha  occ. eigenvalues --   -0.37455  -0.35385  -0.33406  -0.29425  -0.27225
 Alpha  occ. eigenvalues --   -0.26617  -0.26023  -0.25331  -0.24155  -0.20179
 Alpha virt. eigenvalues --   -0.00747   0.01623   0.04795   0.05890   0.06508
 Alpha virt. eigenvalues --    0.08784   0.10759   0.11107   0.11637   0.12593
 Alpha virt. eigenvalues --    0.13093   0.14666   0.15191   0.16083   0.16573

 Mulliken charges:
               1
     1  O   -0.552517
     2  C    0.576689
     3  N   -0.533830
     4  C    0.025835
     5  C    0.552310
     6  O   -0.473891
     7  O   -0.465414
     8  C   -0.243108
     9  C    0.270660
    10  C   -0.016704
    11  N   -0.452029
    12  C    0.253451
    13  N   -0.533933
    14  C   -0.257000
    15  C   -0.074024
    16  N   -0.617107
    17  H    0.322499
    18  H    0.161039
    19  H    0.328781
    20  H    0.127841
    21  H    0.127576
    22  H    0.074980
    23  H    0.102871
    24  H    0.300806
    25  H    0.135429
    26  H    0.127922
    27  H    0.121051
    28  H    0.099126
    29  H    0.253227
    30  H    0.257465
 Sum of Mulliken charges =   0.00000

 Dipole moment (field-independent basis, Debye):
    X=              6.9010    Y=             -2.3828    Z=             -2.7042  Tot=              7.7855
 Quadrupole moment (field-independent basis, Debye-Ang):
   XX=            -97.4018   YY=            -92.5757   ZZ=            -90.2075
   XY=             11.2735   XZ=              5.7768   YZ=             -0.7831

  Exact polarizability: 155.181 -11.750  98.349  -5.997  25.350 122.167
 Approx polarizability: 211.973 -17.159 141.512  -9.127  34.914 194.695

                      1                      2                      3
                      A                      A                      A
 Frequencies --     20.3458                47.9167                54.7339
 Red. masses --      5.2009                 6.5274                 6.9240
 Frc consts  --      0.0013                 0.0088                 0.0122
 IR Inten    --      0.4772                 2.3000                 2.4269

                      4                      5                      6
                      A                      A                      A
 Frequencies --     73.6595                80.1004               100.2421
 Red. masses --      3.4134                 4.7880                 4.4498
 Frc consts  --      0.0109                 0.0181                 0.0263
 IR Inten    --      0.4023                 0.6211                 6.2977

                      7                      8                      9
                      A                      A                      A
 Frequencies --    115.4834               129.8216               184.4743
 Red. masses --      6.1097                 6.1964                 2.6750
 Frc consts  --      0.0480                 0.0615                 0.0536
 IR Inten    --      4.8278                 4.9957                 5.3317

                     10                     11                     12
                      A                      A                      A
 Frequencies --    196.7196               239.0020               282.0911
 Red. masses --      5.0212                 3.7807                 3.2391
 Frc consts  --      0.1145                 0.1272                 0.1519
 IR Inten    --      3.1943                 5.7172                 3.4172

                     13                     14                     15
                      A                      A                      A
 Frequencies --    302.3006               313.2516               329.7968
 Red. masses --      4.5502                 1.3180                 4.4239
 Frc consts  --      0.2450                 0.0762                 0.2835
 IR Inten    --      0.8807                16.3492                 1.0600

                     16                     17                     18
                      A                      A                      A
 Frequencies --    357.2289               419.7943               466.5407
 Red. masses --      3.7527                 3.4403                 2.5845
 Frc consts  --      0.2822                 0.3572                 0.3314
 IR Inten    --      5.8492                 8.2110                26.2426

                     19                     20                     21
                      A                      A                      A
 Frequencies --    516.4617               593.8332               609.1224
 Red. masses --      3.1780                 1.7271                 3.2887
 Frc consts  --      0.4994                 0.3588                 0.7189
 IR Inten    --     38.9969                73.5161                 4.3706

                     22                     23                     24
                      A                      A                      A
 Frequencies --    636.4449               646.5220               676.3450
 Red. masses --      3.3172                 3.5683                 3.9070
 Frc consts  --      0.7917                 0.8788                 1.0530
 IR Inten    --     35.1409                 7.2646                40.3487

                     25                     26                     27
                      A                      A                      A
 Frequencies --    695.6505               715.3589               769.7744
 Red. masses --      3.5101                 3.1290                 3.9891
 Frc consts  --      1.0008                 0.9434                 1.3927
 IR Inten    --     21.3411                22.8805                 5.5758

                     28                     29                     30
                      A                      A                      A
 Frequencies --    791.3158               810.5298               818.8364
 Red. masses --      1.0931                 1.4146                 1.2749
 Frc consts  --      0.4033                 0.5475                 0.5037
 IR Inten    --     31.3759                23.4394                44.7509

                     31                     32                     33
                      A                      A                      A
 Frequencies --    840.8139               858.3512               864.9051
 Red. masses --      1.3834                 2.3000                 1.3260
 Frc consts  --      0.5762                 0.9984                 0.5844
 IR Inten    --     26.7156                 5.6748                97.0534

                     34                     35                     36
                      A                      A                      A
 Frequencies --    902.7168               918.2956               938.4407
 Red. masses --      2.4757                 1.8646                 6.0417
 Frc consts  --      1.1886                 0.9264                 3.1349
 IR Inten    --     13.3868                23.6726                22.4865

                     37                     38                     39
                      A                      A                      A
 Frequencies --    965.6298               989.1376              1013.4074
 Red. masses --      2.8589                 3.0166                 1.9279
 Frc consts  --      1.5706                 1.7390                 1.1665
 IR Inten    --     14.8687                 4.2869                 2.3691

                     40                     41                     42
                      A                      A                      A
 Frequencies --   1023.4175              1030.8381              1091.6342
 Red. masses --      3.6101                 2.3969                 2.5637
 Frc consts  --      2.2278                 1.5007                 1.8000
 IR Inten    --      0.9058                41.9187                 4.7751

                     43                     44                     45
                      A                      A                      A
 Frequencies --   1133.9527              1144.7376              1158.5063
 Red. masses --      2.8390                 1.9587                 1.4256
 Frc consts  --      2.1508                 1.5122                 1.1273
 IR Inten    --     32.4279                51.8817                23.6418

                     46                     47                     48
                      A                      A                      A
 Frequencies --   1161.2572              1181.4336              1217.2703
 Red. masses --      1.7195                 2.4242                 1.2546
 Frc consts  --      1.3662                 1.9936                 1.0953
 IR Inten    --      5.3040               170.6127                11.9012

                     49                     50                     51
                      A                      A                      A
 Frequencies --   1267.9412              1274.0853              1283.2324
 Red. masses --      1.3852                 1.8626                 1.4533
 Frc consts  --      1.3121                 1.7814                 1.4100
 IR Inten    --     19.4591                 3.7620                 7.6929

                     52                     53                     54
                      A                      A                      A
 Frequencies --   1288.9325              1311.8057              1319.0646
 Red. masses --      1.4627                 1.4931                 1.3566
 Frc consts  --      1.4317                 1.5138                 1.3907
 IR Inten    --     24.3198                 2.3728                 2.1823

                     55                     56                     57
                      A                      A                      A
 Frequencies --   1333.1978              1363.7539              1377.6482
 Red. masses --      1.4686                 1.4600                 1.4479
 Frc consts  --      1.5380                 1.5998                 1.6191
 IR Inten    --      6.6814                26.0298                 5.1537

                     58                     59                     60
                      A                      A                      A
 Frequencies --   1397.0344              1417.2056              1431.4370
 Red. masses --      3.9087                 2.3000                 1.5015
 Frc consts  --      4.4947                 2.7218                 1.8127
 IR Inten    --     19.3189                71.2717                29.9485

                     61                     62                     63
                      A                      A                      A
 Frequencies --   1462.8675              1476.9890              1486.8965
 Red. masses --      2.2642                 1.0825                 1.1785
 Frc consts  --      2.8548                 1.3913                 1.5352
 IR Inten    --     74.7471                 9.9691                18.9071

                     64                     65                     66
                      A                      A                      A
 Frequencies --   1519.0308              1523.6126              1584.2364
 Red. masses --      3.5409                 1.0927                 2.0615
 Frc consts  --      4.8139                 1.4945                 3.0484
 IR Inten    --     24.3811                 7.8302               355.4188

                     67                     68                     69
                      A                      A                      A
 Frequencies --   1623.4259              1665.2462              1737.5734
 Red. masses --      4.0579                 1.0909                 8.5621
 Frc consts  --      6.3012                 1.7823                15.2306
 IR Inten    --     24.3746                33.0498               299.1200

                     70                     71                     72
                      A                      A                      A
 Frequencies --   1839.3976              2991.6825              3035.1065
 Red. masses --      9.9610                 1.0719                 1.0708
 Frc consts  --     19.8567                 5.6523                 5.8120
 IR Inten    --    247.3691                86.1028                 8.3752

                     73                     74                     75
                      A                      A                      A
 Frequencies --   3043.9775              3078.6996              3082.6350
 Red. masses --      1.0667                 1.0920                 1.0842
 Frc consts  --      5.8237                 6.0981                 6.0703
 IR Inten    --     22.9961                27.5012                10.7716

                     76                     77                     78
                      A                      A                      A
 Frequencies --   3107.0067              3123.3315              3243.4615
 Red. masses --      1.0972                 1.0932                 1.0957
 Frc consts  --      6.2408                 6.2832                 6.7913
 IR Inten    --     10.7458                 8.4357                12.2004

                     79                     80                     81
                      A                      A                      A
 Frequencies --   3256.1003              3356.2219              3455.1343
 Red. masses --      1.0967                 1.0826                 1.0867
 Frc consts  --      6.8505                 7.1848                 7.6432
 IR Inten    --      3.6039               430.6906               490.1463

                     82                     83                     84
                      A                      A                      A
 Frequencies --   3502.7274              3590.7622              3755.2538
 Red. masses --      1.0502                 1.0931                 1.0643
 Frc consts  --      7.5918                 8.3038                 8.8425
 IR Inten    --      0.3978                 2.3291                68.6273

 - Thermochemistry -
 -------------------
 Temperature   298.150 Kelvin.  Pressure   1.00000 Atm.
 Atom     1 has atomic number  8 and mass  15.99491

 Molecular mass:   226.10659 amu.
 Principal axes and moments of inertia in atomic units:
                           1         2         3
     Eigenvalues --  2407.333655362.779127206.51600
           X            0.93948   0.33908  -0.04901
           Y           -0.27776   0.67010  -0.68834
           Z           -0.20056   0.66030   0.72373
 This molecule is an asymmetric top.
 Rotational symmetry number  1.
 Warning -- assumption of classical behavior for rotation
           may cause significant error
 Rotational temperatures (Kelvin)      0.03598     0.01615     0.01202
 Rotational constants (GHZ):           0.74968     0.33653     0.25043
 Zero-point vibrational energy     646193.7 (Joules/Mol)
                                  154.44401 (Kcal/Mol)
 Warning -- explicit consideration of  21 degrees of freedom as
           vibrations may cause significant error
 Vibrational temperatures:     29.27    68.94    78.75   105.98   115.25
          (Kelvin)            144.23   166.15   186.78   265.42   283.04
                              343.87   405.87   434.94   450.70   474.50
                              513.97   603.99   671.25   743.07   854.39
                              876.39   915.70   930.20   973.11  1000.88
                             1029.24  1107.53  1138.53  1166.17  1178.12
                             1209.74  1234.97  1244.40  1298.81  1321.22
                             1350.21  1389.32  1423.15  1458.07  1472.47
                             1483.14  1570.62  1631.50  1647.02  1666.83
                             1670.79  1699.82  1751.38  1824.28  1833.12
                             1846.28  1854.48  1887.39  1897.84  1918.17
                             1962.14  1982.13  2010.02  2039.04  2059.52
                             2104.74  2125.06  2139.31  2185.54  2192.14
                             2279.36  2335.74  2395.91  2499.98  2646.48
                             4304.36  4366.84  4379.60  4429.56  4435.22
                             4470.28  4493.77  4666.61  4684.80  4828.85
                             4971.16  5039.64  5166.30  5402.97

 Zero-point correction=                           0.246122 (Hartree/Particle)
 Thermal correction to Energy=                    0.261681
 Thermal correction to Enthalpy=                  0.262625
 Thermal correction to Gibbs Free Energy=         0.201145
 Sum of electronic and zero-point Energies=           -795.877315
 Sum of electronic and thermal Energies=              -795.861757
 Sum of electronic and thermal Enthalpies=            -795.860813
 Sum of electronic and thermal Free Energies=         -795.922293

                     E (Thermal)             CV                S
                      KCal/Mol        Cal/Mol-Kelvin    Cal/Mol-Kelvin
 Total                  164.207             57.184            129.395
 Electronic               0.000              0.000              0.000
 Translational            0.889              2.981             42.150
 Rotational               0.889              2.981             32.898
 Vibrational            162.430             51.223             54.348
 Vibration     1          0.593              1.986              6.600
 Vibration     2          0.595              1.978              4.902
 Vibration     3          0.596              1.976              4.639
 Vibration     4          0.599              1.966              4.053
 Vibration     5          0.600              1.963              3.888
 Vibration     6          0.604              1.949              3.450
 Vibration     7          0.608              1.937              3.175
 Vibration     8          0.612              1.923              2.949
 Vibration     9          0.631              1.861              2.283
 Vibration    10          0.636              1.844              2.164
 Vibration    11          0.657              1.781              1.810
 Vibration    12          0.681              1.707              1.521
 Vibration    13          0.694              1.669              1.404
 Vibration    14          0.701              1.648              1.345
 Vibration    15          0.713              1.616              1.261
 Vibration    16          0.732              1.560              1.134
 Vibration    17          0.782              1.427              0.893
 Vibration    18          0.824              1.324              0.747
 Vibration    19          0.871              1.214              0.618
 Vibration    20          0.951              1.045              0.460
 Vibration    21          0.968              1.013              0.434

 Optimization completed.
    -- Stationary point found.
 Normal termination of Gaussian 09 at Wed Jul 28 23:14:57 2021.
