 Gaussian 09, Revision D.01,
 Gaussian 09:  ES64L-G09RevD.01 24-Apr-2013

 ----------------------------------------------------------------------
 # B3LYP/6-31G(d,p) opt=calcfc freq=noraman nosymm integral(ultrafinegr
 id)
 ----------------------------------------------------------------------

 ------------------------------------------------------------
 Candidate Structure: Conf:900 OPT and FREQ calc in gas phase
 ------------------------------------------------------------
 Symbolic Z-matrix:
 Charge =  0 Multiplicity = 1

 SCF Done:  E(RB3LYP) =  -796.117613161     A.U. after   14 cycles
 SCF Done:  E(RB3LYP) =  -796.119652931     A.U. after   12 cycles
 SCF Done:  E(RB3LYP) =  -796.119844119     A.U. after   12 cycles
 SCF Done:  E(RB3LYP) =  -796.119869310     A.U. after   11 cycles
 SCF Done:  E(RB3LYP) =  -796.119873653     A.U. after   10 cycles
 SCF Done:  E(RB3LYP) =  -796.119874390     A.U. after    8 cycles
 SCF Done:  E(RB3LYP) =  -796.119874430     A.U. after    7 cycles
 Optimization completed.
    -- Stationary point found.
 Normal termination of Gaussian 09 at Wed Jul 28 22:28:39 2021.

 ----------------------------------------------------------------------
 #N Geom=AllCheck Guess=TCheck SCRF=Check GenChk RB3LYP/6-31G(d,p) Freq
 ----------------------------------------------------------------------

 Structure from the checkpoint file:  "conf-900.chk"
 ------------------------------------------------------------
 Candidate Structure: Conf:900 OPT and FREQ calc in gas phase
 ------------------------------------------------------------
 Charge =  0 Multiplicity = 1

                          Input orientation:
 ---------------------------------------------------------------------
 Center     Atomic      Atomic             Coordinates (Angstroms)
 Number     Number       Type             X           Y           Z
 ---------------------------------------------------------------------
      1          8           0       -0.832289    0.558133   -1.054012
      2          6           0       -1.231858   -0.533387   -0.629619
      3          7           0       -0.431143   -1.385240    0.055969
      4          6           0        0.984134   -1.150274    0.281319
      5          6           0        1.601213   -2.496807    0.626879
      6          8           0        2.941809   -2.428659    0.687014
      7          8           0        0.970620   -3.511630    0.841326
      8          6           0        1.282780   -0.085425    1.406966
      9          6           0        2.002277    1.129240    0.921569
     10          6           0        3.180549    1.731336    1.301931
     11          7           0        3.419737    2.863285    0.556339
     12          6           0        2.397305    2.943962   -0.272227
     13          7           0        1.508965    1.925769   -0.093190
     14          6           0       -2.660354   -1.019660   -0.853034
     15          6           0       -3.562246    0.050063   -1.469877
     16          7           0       -3.747474    1.162581   -0.534682
     17          1           0       -0.772421   -2.296169    0.339781
     18          1           0        1.445365   -0.800720   -0.648357
     19          1           0        3.260131   -3.313762    0.933872
     20          1           0        0.315409    0.175555    1.851564
     21          1           0        1.882547   -0.536482    2.201979
     22          1           0        3.865768    1.408262    2.074507
     23          1           0        2.251189    3.713159   -1.018379
     24          1           0        0.655853    1.712295   -0.607173
     25          1           0       -3.079855   -1.341398    0.107275
     26          1           0       -2.620958   -1.903464   -1.503802
     27          1           0       -4.540456   -0.403798   -1.663259
     28          1           0       -3.142586    0.344691   -2.445104
     29          1           0       -2.881712    1.696376   -0.504963
     30          1           0       -4.462163    1.792461   -0.890480
 ---------------------------------------------------------------------

 SCF Done:  E(RB3LYP) =  -796.119874430     A.U. after    1 cycles

 Alpha  occ. eigenvalues --  -19.22485 -19.17088 -19.14063 -14.37947 -14.36618
 Alpha  occ. eigenvalues --  -14.30981 -14.29470 -10.35005 -10.30964 -10.26330
 Alpha  occ. eigenvalues --  -10.22215 -10.21551 -10.21466 -10.20595 -10.20535
 Alpha  occ. eigenvalues --  -10.18224  -1.13629  -1.05568  -1.04591  -0.99397
 Alpha  occ. eigenvalues --   -0.94659  -0.88038  -0.85198  -0.80908  -0.76441
 Alpha  occ. eigenvalues --   -0.73721  -0.67856  -0.65598  -0.61119  -0.60217
 Alpha  occ. eigenvalues --   -0.59302  -0.57184  -0.53591  -0.52811  -0.51284
 Alpha  occ. eigenvalues --   -0.50361  -0.49011  -0.48153  -0.47697  -0.47028
 Alpha  occ. eigenvalues --   -0.44717  -0.43461  -0.42769  -0.42204  -0.41257
 Alpha  occ. eigenvalues --   -0.39534  -0.39114  -0.38837  -0.38665  -0.37882
 Alpha  occ. eigenvalues --   -0.36583  -0.36328  -0.34686  -0.30871  -0.28072
 Alpha  occ. eigenvalues --   -0.27752  -0.26159  -0.24938  -0.23656  -0.20990
 Alpha virt. eigenvalues --   -0.02015   0.00493   0.03942   0.05381   0.07833
 Alpha virt. eigenvalues --    0.08004   0.09324   0.11272   0.11507   0.12425
 Alpha virt. eigenvalues --    0.13387   0.14469   0.15123   0.15779   0.16715

 Mulliken charges:
               1
     1  O   -0.553659
     2  C    0.612501
     3  N   -0.535791
     4  C    0.022875
     5  C    0.561087
     6  O   -0.469683
     7  O   -0.471271
     8  C   -0.247233
     9  C    0.268999
    10  C   -0.013737
    11  N   -0.449478
    12  C    0.255512
    13  N   -0.532162
    14  C   -0.270233
    15  C   -0.045974
    16  N   -0.610386
    17  H    0.285767
    18  H    0.164888
    19  H    0.333906
    20  H    0.137856
    21  H    0.131283
    22  H    0.078717
    23  H    0.105232
    24  H    0.295344
    25  H    0.136805
    26  H    0.124623
    27  H    0.098104
    28  H    0.095114
    29  H    0.253391
    30  H    0.237606
 Sum of Mulliken charges =   0.00000

 Dipole moment (field-independent basis, Debye):
    X=             -2.5118    Y=             -3.9570    Z=             -1.0601  Tot=              4.8053
 Quadrupole moment (field-independent basis, Debye-Ang):
   XX=            -98.7512   YY=            -96.3459   ZZ=            -90.1518
   XY=            -18.0701   XZ=              5.5503   YZ=             -5.4142

  Exact polarizability: 141.367  11.900 138.102  20.603 -15.249  94.347
 Approx polarizability: 193.464  25.195 202.745  21.874 -30.063 148.557

                      1                      2                      3
                      A                      A                      A
 Frequencies --     14.6692                32.6739                57.0031
 Red. masses --      3.4692                 6.2889                 4.8043
 Frc consts  --      0.0004                 0.0040                 0.0092
 IR Inten    --      0.9215                 1.4846                 1.0678

                      4                      5                      6
                      A                      A                      A
 Frequencies --     60.0089                77.5960                85.8449
 Red. masses --      7.3596                 5.7668                 5.5792
 Frc consts  --      0.0156                 0.0205                 0.0242
 IR Inten    --      1.0923                 0.4456                 4.8864

                      7                      8                      9
                      A                      A                      A
 Frequencies --    110.6610               135.9637               150.2298
 Red. masses --      4.3637                 5.5421                 3.8820
 Frc consts  --      0.0315                 0.0604                 0.0516
 IR Inten    --      2.7078                 3.3138                 4.2749

                     10                     11                     12
                      A                      A                      A
 Frequencies --    194.1998               251.6599               284.6288
 Red. masses --      4.5482                 2.5407                 6.0031
 Frc consts  --      0.1011                 0.0948                 0.2865
 IR Inten    --      2.1557                33.8166                 1.6583

                     13                     14                     15
                      A                      A                      A
 Frequencies --    289.6883               317.8928               326.7582
 Red. masses --      2.5324                 1.8100                 2.1898
 Frc consts  --      0.1252                 0.1078                 0.1378
 IR Inten    --      9.5162                32.8562                17.6219

                     16                     17                     18
                      A                      A                      A
 Frequencies --    350.3705               407.3436               431.7748
 Red. masses --      4.2821                 3.6484                 2.4958
 Frc consts  --      0.3097                 0.3567                 0.2741
 IR Inten    --      6.7325                10.9610                29.9325

                     19                     20                     21
                      A                      A                      A
 Frequencies --    537.7078               565.6001               598.2855
 Red. masses --      1.7053                 3.1767                 1.6971
 Frc consts  --      0.2905                 0.5987                 0.3579
 IR Inten    --     67.1798                24.7177                65.3317

                     22                     23                     24
                      A                      A                      A
 Frequencies --    626.9182               633.7100               644.9610
 Red. masses --      2.1810                 2.7733                 2.6161
 Frc consts  --      0.5050                 0.6562                 0.6412
 IR Inten    --     24.2231                23.9781                 0.7587

                     25                     26                     27
                      A                      A                      A
 Frequencies --    675.0947               679.5647               715.3128
 Red. masses --      3.5970                 3.4517                 3.0899
 Frc consts  --      0.9659                 0.9392                 0.9315
 IR Inten    --     33.7795                17.4921                34.3357

                     28                     29                     30
                      A                      A                      A
 Frequencies --    768.8083               773.9132               810.8392
 Red. masses --      3.9821                 1.1079                 1.4013
 Frc consts  --      1.3868                 0.3909                 0.5428
 IR Inten    --     12.0886                36.5440                17.3590

                     31                     32                     33
                      A                      A                      A
 Frequencies --    841.4462               858.5596               874.9814
 Red. masses --      1.3969                 2.4430                 1.9055
 Frc consts  --      0.5827                 1.0610                 0.8595
 IR Inten    --     20.6778                 8.3027                79.0434

                     34                     35                     36
                      A                      A                      A
 Frequencies --    894.6341               910.3831               937.6491
 Red. masses --      1.9381                 1.7494                 6.0590
 Frc consts  --      0.9139                 0.8542                 3.1386
 IR Inten    --     11.0690                50.9306                18.5071

                     37                     38                     39
                      A                      A                      A
 Frequencies --    956.2641               984.6132              1018.6931
 Red. masses --      2.6682                 3.8511                 2.7924
 Frc consts  --      1.4375                 2.1997                 1.7073
 IR Inten    --     11.1398                 6.8938                22.8356

                     40                     41                     42
                      A                      A                      A
 Frequencies --   1025.0747              1066.4384              1108.7450
 Red. masses --      3.8640                 2.4631                 3.1521
 Frc consts  --      2.3922                 1.6505                 2.2831
 IR Inten    --      2.3622                18.2983                30.9156

                     43                     44                     45
                      A                      A                      A
 Frequencies --   1131.3800              1140.6865              1157.5505
 Red. masses --      1.6614                 1.8043                 1.8399
 Frc consts  --      1.2530                 1.3832                 1.4525
 IR Inten    --     16.6759                50.8915                 2.8582

                     46                     47                     48
                      A                      A                      A
 Frequencies --   1178.0188              1192.7863              1212.6548
 Red. masses --      1.6093                 2.1192                 1.2821
 Frc consts  --      1.3158                 1.7764                 1.1108
 IR Inten    --    102.2874                93.5620                13.2830

                     49                     50                     51
                      A                      A                      A
 Frequencies --   1238.5685              1258.6608              1272.8543
 Red. masses --      1.2068                 1.5690                 1.9105
 Frc consts  --      1.0908                 1.4645                 1.8237
 IR Inten    --      4.4144                22.0299                 3.1512

                     52                     53                     54
                      A                      A                      A
 Frequencies --   1284.4320              1290.8742              1331.3488
 Red. masses --      1.5167                 1.4106                 1.3772
 Frc consts  --      1.4743                 1.3849                 1.4382
 IR Inten    --      9.8432                23.3923                 0.8507

                     55                     56                     57
                      A                      A                      A
 Frequencies --   1359.5622              1364.7716              1386.1697
 Red. masses --      1.2301                 1.4539                 1.5876
 Frc consts  --      1.3396                 1.5955                 1.7974
 IR Inten    --      6.3485                33.0485                28.5986

                     58                     59                     60
                      A                      A                      A
 Frequencies --   1396.5436              1427.6301              1437.1875
 Red. masses --      3.8911                 2.5514                 1.4131
 Frc consts  --      4.4713                 3.0639                 1.7196
 IR Inten    --     19.7385               104.0204                18.8236

                     61                     62                     63
                      A                      A                      A
 Frequencies --   1458.4653              1461.3731              1486.9180
 Red. masses --      2.4226                 1.1287                 1.1591
 Frc consts  --      3.0362                 1.4202                 1.5099
 IR Inten    --     60.8248                20.9955                15.2705

                     64                     65                     66
                      A                      A                      A
 Frequencies --   1514.7005              1518.8201              1551.9387
 Red. masses --      1.0879                 3.5390                 2.4226
 Frc consts  --      1.4706                 4.8100                 3.4379
 IR Inten    --      2.0229                23.9972               333.3969

                     67                     68                     69
                      A                      A                      A
 Frequencies --   1623.6071              1662.6897              1738.2185
 Red. masses --      4.2217                 1.1418                 6.4430
 Frc consts  --      6.5569                 1.8597                11.4696
 IR Inten    --     16.3479                82.0579               167.3989

                     70                     71                     72
                      A                      A                      A
 Frequencies --   1831.0318              2987.2200              3038.9911
 Red. masses --      9.8325                 1.0709                 1.0628
 Frc consts  --     19.4226                 5.6303                 5.7830
 IR Inten    --    264.9632                59.7385                12.6023

                     73                     74                     75
                      A                      A                      A
 Frequencies --   3051.7535              3075.7076              3078.3672
 Red. masses --      1.0659                 1.0918                 1.0841
 Frc consts  --      5.8487                 6.0853                 6.0529
 IR Inten    --     18.1181                39.8807                 9.0579

                     76                     77                     78
                      A                      A                      A
 Frequencies --   3090.0900              3111.9435              3245.5038
 Red. masses --      1.1002                 1.0986                 1.0957
 Frc consts  --      6.1895                 6.2683                 6.8002
 IR Inten    --     14.0698                 9.6210                11.0995

                     79                     80                     81
                      A                      A                      A
 Frequencies --   3256.8488              3496.6319              3504.2864
 Red. masses --      1.0968                 1.0500                 1.0847
 Frc consts  --      6.8547                 7.5636                 7.8483
 IR Inten    --      2.8163                14.6182               428.0421

                     82                     83                     84
                      A                      A                      A
 Frequencies --   3581.2359              3590.0225              3753.3464
 Red. masses --      1.0924                 1.0777                 1.0643
 Frc consts  --      8.2543                 8.1839                 8.8339
 IR Inten    --      1.5782                88.8378                79.2107

 - Thermochemistry -
 -------------------
 Temperature   298.150 Kelvin.  Pressure   1.00000 Atm.
 Atom     1 has atomic number  8 and mass  15.99491

 Molecular mass:   226.10659 amu.
 Principal axes and moments of inertia in atomic units:
                           1         2         3
     Eigenvalues --  3106.948864862.688777557.20538
           X            0.94479  -0.13924  -0.29662
           Y            0.18032   0.97676   0.11583
           Z            0.27360  -0.16292   0.94795
 This molecule is an asymmetric top.
 Rotational symmetry number  1.
 Warning -- assumption of classical behavior for rotation
           may cause significant error
 Rotational temperatures (Kelvin)      0.02788     0.01781     0.01146
 Rotational constants (GHZ):           0.58087     0.37114     0.23881
 Zero-point vibrational energy     645137.4 (Joules/Mol)
                                  154.19155 (Kcal/Mol)
 Warning -- explicit consideration of  21 degrees of freedom as
           vibrations may cause significant error
 Vibrational temperatures:     21.11    47.01    82.01    86.34   111.64
          (Kelvin)            123.51   159.22   195.62   216.15   279.41
                              362.08   409.52   416.80   457.38   470.13
                              504.10   586.08   621.23   773.64   813.77
                              860.80   901.99   911.77   927.95   971.31
                              977.74  1029.17  1106.14  1113.49  1166.62
                             1210.65  1235.27  1258.90  1287.18  1309.84
                             1349.07  1375.85  1416.64  1465.67  1474.85
                             1534.37  1595.23  1627.80  1641.19  1665.45
                             1694.90  1716.15  1744.74  1782.02  1810.93
                             1831.35  1848.01  1857.28  1915.51  1956.10
                             1963.60  1994.39  2009.31  2054.04  2067.79
                             2098.40  2102.59  2139.34  2179.31  2185.24
                             2232.89  2336.01  2392.24  2500.91  2634.44
                             4297.94  4372.42  4390.79  4425.25  4429.08
                             4445.94  4477.39  4669.55  4685.87  5030.87
                             5041.88  5152.59  5165.24  5400.22

 Zero-point correction=                           0.245720 (Hartree/Particle)
 Thermal correction to Energy=                    0.261574
 Thermal correction to Enthalpy=                  0.262518
 Thermal correction to Gibbs Free Energy=         0.199558
 Sum of electronic and zero-point Energies=           -795.874155
 Sum of electronic and thermal Energies=              -795.858301
 Sum of electronic and thermal Enthalpies=            -795.857356
 Sum of electronic and thermal Free Energies=         -795.920316

                     E (Thermal)             CV                S
                      KCal/Mol        Cal/Mol-Kelvin    Cal/Mol-Kelvin
 Total                  164.140             57.817            132.510
 Electronic               0.000              0.000              0.000
 Translational            0.889              2.981             42.150
 Rotational               0.889              2.981             33.101
 Vibrational            162.363             51.855             57.259
 Vibration     1          0.593              1.986              7.250
 Vibration     2          0.594              1.983              5.660
 Vibration     3          0.596              1.975              4.558
 Vibration     4          0.597              1.973              4.457
 Vibration     5          0.599              1.964              3.951
 Vibration     6          0.601              1.959              3.753
 Vibration     7          0.606              1.941              3.257
 Vibration     8          0.614              1.917              2.860
 Vibration     9          0.618              1.902              2.669
 Vibration    10          0.635              1.848              2.187
 Vibration    11          0.664              1.760              1.719
 Vibration    12          0.683              1.702              1.506
 Vibration    13          0.686              1.693              1.476
 Vibration    14          0.704              1.639              1.321
 Vibration    15          0.710              1.622              1.276
 Vibration    16          0.727              1.574              1.165
 Vibration    17          0.772              1.454              0.936
 Vibration    18          0.793              1.401              0.853
 Vibration    19          0.893              1.167              0.570
 Vibration    20          0.921              1.106              0.513
 Vibration    21          0.956              1.035              0.453

 Normal termination of Gaussian 09 at Wed Jul 28 22:48:06 2021.
