 Gaussian 09, Revision D.01,
 Gaussian 09:  ES64L-G09RevD.01 24-Apr-2013

 ----------------------------------------------------------------------
 # B3LYP/6-31G(d,p) opt=calcfc freq=noraman nosymm integral(ultrafinegr
 id)
 ----------------------------------------------------------------------

 ------------------------------------------------------------
 Candidate Structure: Conf:118 OPT and FREQ calc in gas phase
 ------------------------------------------------------------
 Symbolic Z-matrix:
 Charge =  0 Multiplicity = 1

 SCF Done:  E(RB3LYP) =  -796.120526605     A.U. after   14 cycles
 SCF Done:  E(RB3LYP) =  -796.123256424     A.U. after   14 cycles
 SCF Done:  E(RB3LYP) =  -796.123838562     A.U. after   14 cycles
 SCF Done:  E(RB3LYP) =  -796.124119942     A.U. after   11 cycles
 SCF Done:  E(RB3LYP) =  -796.124181650     A.U. after   11 cycles
 SCF Done:  E(RB3LYP) =  -796.124182854     A.U. after   11 cycles
 SCF Done:  E(RB3LYP) =  -796.124195698     A.U. after   10 cycles
 SCF Done:  E(RB3LYP) =  -796.124196514     A.U. after    9 cycles
 SCF Done:  E(RB3LYP) =  -796.124196518     A.U. after    6 cycles
 Optimization completed.
    -- Stationary point found.
 Normal termination of Gaussian 09 at Wed Jul 28 22:31:50 2021.

 ----------------------------------------------------------------------
 #N Geom=AllCheck Guess=TCheck SCRF=Check GenChk RB3LYP/6-31G(d,p) Freq
 ----------------------------------------------------------------------

 Structure from the checkpoint file:  "conf-118.chk"
 ------------------------------------------------------------
 Candidate Structure: Conf:118 OPT and FREQ calc in gas phase
 ------------------------------------------------------------
 Charge =  0 Multiplicity = 1

                          Input orientation:
 ---------------------------------------------------------------------
 Center     Atomic      Atomic             Coordinates (Angstroms)
 Number     Number       Type             X           Y           Z
 ---------------------------------------------------------------------
      1          8           0       -1.028161   -1.843157    1.791843
      2          6           0       -1.048642   -1.220454    0.715473
      3          7           0        0.070285   -0.655270    0.207429
      4          6           0        1.400661   -0.853979    0.786455
      5          6           0        1.587223   -0.044326    2.095387
      6          8           0        0.749001   -0.359936    3.074859
      7          8           0        2.454758    0.797133    2.238146
      8          6           0        2.481156   -0.539545   -0.269029
      9          6           0        2.316774    0.779471   -0.957806
     10          6           0        1.936460    1.110689   -2.242551
     11          7           0        1.915107    2.476171   -2.416223
     12          6           0        2.275025    2.970384   -1.248485
     13          7           0        2.531348    1.992348   -0.334811
     14          6           0       -2.331476   -1.057000   -0.073150
     15          6           0       -3.479471   -0.495257    0.801712
     16          7           0       -4.777902   -0.399064    0.148183
     17          1           0        0.024636   -0.075981   -0.623326
     18          1           0        1.475176   -1.911760    1.071161
     19          1           0        0.090497   -1.040737    2.761233
     20          1           0        2.450213   -1.326465   -1.028750
     21          1           0        3.455234   -0.603358    0.225683
     22          1           0        1.708121    0.434560   -3.056640
     23          1           0        2.366264    4.021386   -1.010800
     24          1           0        2.759704    2.072226    0.650594
     25          1           0       -2.614390   -2.054453   -0.432993
     26          1           0       -2.176356   -0.425198   -0.955815
     27          1           0       -3.574764   -1.128969    1.687800
     28          1           0       -3.202435    0.503173    1.159773
     29          1           0       -4.724440    0.192315   -0.677707
     30          1           0       -5.089511   -1.314942   -0.166156
 ---------------------------------------------------------------------

 SCF Done:  E(RB3LYP) =  -796.124196518     A.U. after    1 cycles

 Alpha  occ. eigenvalues --  -19.18801 -19.15159 -19.14819 -14.39677 -14.38651
 Alpha  occ. eigenvalues --  -14.32700 -14.31364 -10.33112 -10.32158 -10.26687
 Alpha  occ. eigenvalues --  -10.24104 -10.22652 -10.22625 -10.22483 -10.21684
 Alpha  occ. eigenvalues --  -10.20362  -1.10653  -1.06661  -1.02341  -1.01319
 Alpha  occ. eigenvalues --   -0.95800  -0.89557  -0.87041  -0.81820  -0.77539
 Alpha  occ. eigenvalues --   -0.74214  -0.68088  -0.65167  -0.61898  -0.61725
 Alpha  occ. eigenvalues --   -0.60413  -0.59214  -0.55869  -0.54841  -0.52261
 Alpha  occ. eigenvalues --   -0.51030  -0.50324  -0.47214  -0.46088  -0.45797
 Alpha  occ. eigenvalues --   -0.44925  -0.44337  -0.43508  -0.43075  -0.42031
 Alpha  occ. eigenvalues --   -0.41007  -0.40925  -0.40542  -0.39451  -0.38702
 Alpha  occ. eigenvalues --   -0.37400  -0.36015  -0.32089  -0.31179  -0.29141
 Alpha  occ. eigenvalues --   -0.28208  -0.27308  -0.26743  -0.24685  -0.23178
 Alpha virt. eigenvalues --   -0.01687  -0.00345   0.02004   0.05246   0.06486
 Alpha virt. eigenvalues --    0.07827   0.08964   0.11511   0.11848   0.12328
 Alpha virt. eigenvalues --    0.12971   0.14138   0.14742   0.15199   0.16037

 Mulliken charges:
               1
     1  O   -0.565421
     2  C    0.604707
     3  N   -0.520901
     4  C   -0.042463
     5  C    0.626113
     6  O   -0.491677
     7  O   -0.485499
     8  C   -0.258798
     9  C    0.246451
    10  C   -0.026541
    11  N   -0.441912
    12  C    0.260500
    13  N   -0.515919
    14  C   -0.265734
    15  C   -0.058852
    16  N   -0.589512
    17  H    0.276866
    18  H    0.150188
    19  H    0.363565
    20  H    0.122979
    21  H    0.144380
    22  H    0.085709
    23  H    0.116557
    24  H    0.295926
    25  H    0.135673
    26  H    0.098916
    27  H    0.140643
    28  H    0.116830
    29  H    0.238156
    30  H    0.239070
 Sum of Mulliken charges =   0.00000

 Dipole moment (field-independent basis, Debye):
    X=             -0.8415    Y=             -2.4882    Z=             -2.3384  Tot=              3.5167
 Quadrupole moment (field-independent basis, Debye-Ang):
   XX=            -96.4510   YY=            -92.2094   ZZ=           -112.7995
   XY=             -1.5763   XZ=              7.8349   YZ=              9.1701

  Exact polarizability: 128.011  18.039 122.909   3.671 -12.997 121.517
 Approx polarizability: 167.761  23.867 191.403  10.942 -18.550 193.995

                      1                      2                      3
                      A                      A                      A
 Frequencies --     24.5524                46.8260                61.4649
 Red. masses --      4.3583                 7.4443                 2.6655
 Frc consts  --      0.0015                 0.0096                 0.0059
 IR Inten    --      0.2563                 1.6177                 4.7708

                      4                      5                      6
                      A                      A                      A
 Frequencies --     78.1684                87.9264                96.0965
 Red. masses --      3.7224                 3.6334                 4.4221
 Frc consts  --      0.0134                 0.0166                 0.0241
 IR Inten    --      6.8933                 0.1270                 4.6399

                      7                      8                      9
                      A                      A                      A
 Frequencies --    135.3709               157.4141               189.2243
 Red. masses --      8.8719                 5.4735                 4.2505
 Frc consts  --      0.0958                 0.0799                 0.0897
 IR Inten    --      9.4063                 7.6353                 9.0361

                     10                     11                     12
                      A                      A                      A
 Frequencies --    215.9086               233.1052               271.8102
 Red. masses --      4.9955                 6.8247                 6.7880
 Frc consts  --      0.1372                 0.2185                 0.2955
 IR Inten    --      6.1999                13.2453                 1.0281

                     13                     14                     15
                      A                      A                      A
 Frequencies --    303.1008               317.3993               344.7029
 Red. masses --      5.5683                 1.1082                 4.7446
 Frc consts  --      0.3014                 0.0658                 0.3322
 IR Inten    --      2.6402                47.3488                 4.7577

                     16                     17                     18
                      A                      A                      A
 Frequencies --    360.5782               383.8405               439.5468
 Red. masses --      2.4373                 4.1119                 3.4648
 Frc consts  --      0.1867                 0.3569                 0.3944
 IR Inten    --      6.1665                 5.1391                25.4089

                     19                     20                     21
                      A                      A                      A
 Frequencies --    559.3966               575.1875               606.7300
 Red. masses --      1.4750                 4.1743                 3.7220
 Frc consts  --      0.2720                 0.8137                 0.8073
 IR Inten    --     45.8519                16.0272                 9.9894

                     22                     23                     24
                      A                      A                      A
 Frequencies --    630.3943               656.2272               670.6132
 Red. masses --      3.5562                 2.4268                 3.6790
 Frc consts  --      0.8326                 0.6157                 0.9748
 IR Inten    --      9.7576                 7.3209                35.4872

                     25                     26                     27
                      A                      A                      A
 Frequencies --    726.9511               741.3053               760.0369
 Red. masses --      3.0848                 1.3209                 4.0051
 Frc consts  --      0.9605                 0.4277                 1.3631
 IR Inten    --      4.1316                71.3098                 7.6088

                     28                     29                     30
                      A                      A                      A
 Frequencies --    770.3112               783.9489               824.5792
 Red. masses --      1.5870                 3.4239                 1.3824
 Frc consts  --      0.5548                 1.2398                 0.5538
 IR Inten    --      8.3423                 2.0083                18.0964

                     31                     32                     33
                      A                      A                      A
 Frequencies --    839.1938               844.5154               857.2544
 Red. masses --      1.4992                 1.4863                 2.4652
 Frc consts  --      0.6221                 0.6246                 1.0674
 IR Inten    --    304.3116                 0.7607                11.6192

                     34                     35                     36
                      A                      A                      A
 Frequencies --    925.4555               936.2070               945.6640
 Red. masses --      1.2397                 5.3405                 2.2746
 Frc consts  --      0.6256                 2.7579                 1.1985
 IR Inten    --     68.5466                 9.3098                17.0792

                     37                     38                     39
                      A                      A                      A
 Frequencies --    979.0336               989.1055              1011.1050
 Red. masses --      1.3858                 4.3107                 3.7748
 Frc consts  --      0.7826                 2.4848                 2.2737
 IR Inten    --      2.3893                 5.2630                 6.1341

                     40                     41                     42
                      A                      A                      A
 Frequencies --   1018.8381              1060.1051              1096.1205
 Red. masses --      4.5423                 2.3736                 2.3453
 Frc consts  --      2.7780                 1.5716                 1.6602
 IR Inten    --     75.3296                 9.7502                 4.8103

                     43                     44                     45
                      A                      A                      A
 Frequencies --   1116.3852              1124.1785              1144.0682
 Red. masses --      3.3787                 1.5652                 1.3545
 Frc consts  --      2.4810                 1.1655                 1.0446
 IR Inten    --     11.5071                58.9893                 2.0452

                     46                     47                     48
                      A                      A                      A
 Frequencies --   1154.3885              1227.4337              1248.9427
 Red. masses --      2.0146                 1.5123                 1.6254
 Frc consts  --      1.5818                 1.3424                 1.4938
 IR Inten    --      6.1449                 8.1834                12.2200

                     49                     50                     51
                      A                      A                      A
 Frequencies --   1258.2188              1273.3635              1292.9247
 Red. masses --      2.0727                 2.2358                 1.3032
 Frc consts  --      1.9333                 2.1359                 1.2836
 IR Inten    --     39.2092                 2.9547                 7.8815

                     52                     53                     54
                      A                      A                      A
 Frequencies --   1297.3347              1315.5573              1358.8871
 Red. masses --      1.3294                 1.5291                 1.6631
 Frc consts  --      1.3183                 1.5592                 1.8094
 IR Inten    --      1.5855                26.2302                 2.3192

                     55                     56                     57
                      A                      A                      A
 Frequencies --   1374.7444              1388.2294              1392.9962
 Red. masses --      1.5426                 1.5209                 1.2153
 Frc consts  --      1.7177                 1.7269                 1.3895
 IR Inten    --     10.5433                 2.7832                 7.4139

                     58                     59                     60
                      A                      A                      A
 Frequencies --   1400.4934              1402.0111              1441.2045
 Red. masses --      1.7641                 1.8918                 2.9640
 Frc consts  --      2.0386                 2.1909                 3.6273
 IR Inten    --     25.1332                37.4908                58.3355

                     61                     62                     63
                      A                      A                      A
 Frequencies --   1477.1203              1481.6769              1483.5323
 Red. masses --      1.4045                 1.1386                 1.1203
 Frc consts  --      1.8055                 1.4728                 1.4528
 IR Inten    --    257.1063                10.6618                 0.4008

                     64                     65                     66
                      A                      A                      A
 Frequencies --   1511.7941              1518.0498              1546.5942
 Red. masses --      1.0902                 3.6238                 2.5215
 Frc consts  --      1.4681                 4.9203                 3.5535
 IR Inten    --      4.6133                18.8533               456.4500

                     67                     68                     69
                      A                      A                      A
 Frequencies --   1612.4754              1672.8919              1699.9996
 Red. masses --      4.4075                 1.1012                 7.5894
 Frc consts  --      6.7520                 1.8158                12.9228
 IR Inten    --     13.8640                34.3538               185.9404

                     70                     71                     72
                      A                      A                      A
 Frequencies --   1829.5207              3038.7883              3043.8373
 Red. masses --      8.2616                 1.0594                 1.0830
 Frc consts  --     16.2925                 5.7637                 5.9116
 IR Inten    --    323.2388                 5.9243                 5.3789

                     73                     74                     75
                      A                      A                      A
 Frequencies --   3057.1815              3070.1557              3083.8032
 Red. masses --      1.0660                 1.0614                 1.1016
 Frc consts  --      5.8704                 5.8943                 6.1723
 IR Inten    --     28.6047                18.8759                 8.0830

                     76                     77                     78
                      A                      A                      A
 Frequencies --   3115.0971              3118.9401              3212.7086
 Red. masses --      1.1046                 1.1032                 1.0751
 Frc consts  --      6.3156                 6.3230                 6.5382
 IR Inten    --      4.8345                18.5920               710.6459

                     79                     80                     81
                      A                      A                      A
 Frequencies --   3240.0678              3261.2156              3491.7316
 Red. masses --      1.0958                 1.0970                 1.0488
 Frc consts  --      6.7779                 6.8741                 7.5338
 IR Inten    --      8.7243                 1.7673                 0.3048

                     82                     83                     84
                      A                      A                      A
 Frequencies --   3572.0275              3578.8912              3581.0061
 Red. masses --      1.0791                 1.0934                 1.0828
 Frc consts  --      8.1123                 8.2513                 8.1812
 IR Inten    --     97.1431                 0.0098               225.9883

 - Thermochemistry -
 -------------------
 Temperature   298.150 Kelvin.  Pressure   1.00000 Atm.
 Atom     1 has atomic number  8 and mass  15.99491

 Molecular mass:   226.10659 amu.
 Principal axes and moments of inertia in atomic units:
                           1         2         3
     Eigenvalues --  2608.447025612.932707132.04012
           X            0.87430   0.41334  -0.25444
           Y            0.41250  -0.35648   0.83831
           Z           -0.25581   0.83790   0.48217
 This molecule is an asymmetric top.
 Rotational symmetry number  1.
 Warning -- assumption of classical behavior for rotation
           may cause significant error
 Rotational temperatures (Kelvin)      0.03321     0.01543     0.01214
 Rotational constants (GHZ):           0.69188     0.32153     0.25305
 Zero-point vibrational energy     646376.9 (Joules/Mol)
                                  154.48779 (Kcal/Mol)
 Warning -- explicit consideration of  21 degrees of freedom as
           vibrations may cause significant error
 Vibrational temperatures:     35.33    67.37    88.43   112.47   126.51
          (Kelvin)            138.26   194.77   226.48   272.25   310.64
                              335.39   391.07   436.09   456.67   495.95
                              518.79   552.26   632.41   804.85   827.57
                              872.95   907.00   944.16   964.86  1045.92
                             1066.57  1093.52  1108.30  1127.93  1186.38
                             1207.41  1215.07  1233.40  1331.52  1346.99
                             1360.60  1408.61  1423.10  1454.75  1465.88
                             1525.25  1577.07  1606.23  1617.44  1646.06
                             1660.91  1766.00  1796.95  1810.29  1832.08
                             1860.23  1866.57  1892.79  1955.13  1977.95
                             1997.35  2004.21  2015.00  2017.18  2073.57
                             2125.24  2131.80  2134.47  2175.13  2184.13
                             2225.20  2319.99  2406.92  2445.92  2632.27
                             4372.13  4379.40  4398.60  4417.26  4436.90
                             4481.92  4487.45  4622.37  4661.73  4692.16
                             5023.82  5139.34  5149.22  5152.26

 Zero-point correction=                           0.246192 (Hartree/Particle)
 Thermal correction to Energy=                    0.261610
 Thermal correction to Enthalpy=                  0.262555
 Thermal correction to Gibbs Free Energy=         0.201761
 Sum of electronic and zero-point Energies=           -795.878005
 Sum of electronic and thermal Energies=              -795.862586
 Sum of electronic and thermal Enthalpies=            -795.861642
 Sum of electronic and thermal Free Energies=         -795.922436

                     E (Thermal)             CV                S
                      KCal/Mol        Cal/Mol-Kelvin    Cal/Mol-Kelvin
 Total                  164.163             57.036            127.951
 Electronic               0.000              0.000              0.000
 Translational            0.889              2.981             42.150
 Rotational               0.889              2.981             33.012
 Vibrational            162.386             51.075             52.789
 Vibration     1          0.593              1.985              6.227
 Vibration     2          0.595              1.979              4.947
 Vibration     3          0.597              1.973              4.410
 Vibration     4          0.599              1.964              3.936
 Vibration     5          0.601              1.958              3.706
 Vibration     6          0.603              1.952              3.532
 Vibration     7          0.613              1.918              2.868
 Vibration     8          0.621              1.894              2.581
 Vibration     9          0.633              1.855              2.235
 Vibration    10          0.645              1.817              1.993
 Vibration    11          0.654              1.790              1.855
 Vibration    12          0.675              1.725              1.585
 Vibration    13          0.695              1.668              1.400
 Vibration    14          0.704              1.640              1.323
 Vibration    15          0.723              1.586              1.190
 Vibration    16          0.735              1.553              1.120
 Vibration    17          0.753              1.505              1.024
 Vibration    18          0.800              1.384              0.828
 Vibration    19          0.915              1.119              0.525
 Vibration    20          0.932              1.085              0.494
 Vibration    21          0.965              1.018              0.438

 Optimization completed.
    -- Stationary point found.
 Normal termination of Gaussian 09 at Wed Jul 28 22:51:41 2021.
