 Gaussian 09, Revision D.01,
 Gaussian 09:  ES64L-G09RevD.01 24-Apr-2013

 ----------------------------------------------------------------------
 # B3LYP/6-31G(d,p) opt=calcfc freq=noraman nosymm integral(ultrafinegr
 id)
 ----------------------------------------------------------------------

 ------------------------------------------------------------
 Candidate Structure: Conf:490 OPT and FREQ calc in gas phase
 ------------------------------------------------------------
 Symbolic Z-matrix:
 Charge =  0 Multiplicity = 1

 SCF Done:  E(RB3LYP) =  -796.108298659     A.U. after   14 cycles
 SCF Done:  E(RB3LYP) =  -796.110683264     A.U. after   14 cycles
 SCF Done:  E(RB3LYP) =  -796.098933940     A.U. after   15 cycles
 SCF Done:  E(RB3LYP) =  -796.111039400     A.U. after   11 cycles
 SCF Done:  E(RB3LYP) =  -796.112239431     A.U. after   13 cycles
 SCF Done:  E(RB3LYP) =  -796.112479897     A.U. after   12 cycles
 SCF Done:  E(RB3LYP) =  -796.112289992     A.U. after   12 cycles
 SCF Done:  E(RB3LYP) =  -796.112577172     A.U. after   12 cycles
 SCF Done:  E(RB3LYP) =  -796.112596302     A.U. after   10 cycles
 SCF Done:  E(RB3LYP) =  -796.112612254     A.U. after   11 cycles
 SCF Done:  E(RB3LYP) =  -796.112613691     A.U. after    8 cycles
 SCF Done:  E(RB3LYP) =  -796.112613774     A.U. after    7 cycles
 Optimization completed.
    -- Stationary point found.
 Normal termination of Gaussian 09 at Wed Jul 28 22:37:53 2021.

 ----------------------------------------------------------------------
 #N Geom=AllCheck Guess=TCheck SCRF=Check GenChk RB3LYP/6-31G(d,p) Freq
 ----------------------------------------------------------------------

 Structure from the checkpoint file:  "conf-490.chk"
 ------------------------------------------------------------
 Candidate Structure: Conf:490 OPT and FREQ calc in gas phase
 ------------------------------------------------------------
 Charge =  0 Multiplicity = 1

                          Input orientation:
 ---------------------------------------------------------------------
 Center     Atomic      Atomic             Coordinates (Angstroms)
 Number     Number       Type             X           Y           Z
 ---------------------------------------------------------------------
      1          8           0        0.869895    0.500043   -2.333462
      2          6           0        1.566814    0.145647   -1.382770
      3          7           0        1.080251    0.039092   -0.116427
      4          6           0       -0.275860    0.433057    0.181910
      5          6           0       -0.387305    0.707879    1.685306
      6          8           0       -1.532860    1.291622    2.091781
      7          8           0        0.475522    0.417836    2.480468
      8          6           0       -1.299340   -0.646906   -0.297772
      9          6           0       -2.736330   -0.263938   -0.114138
     10          6           0       -3.507252    0.754293   -0.641310
     11          7           0       -4.792761    0.717184   -0.143002
     12          6           0       -4.812529   -0.308711    0.678022
     13          7           0       -3.598070   -0.933758    0.736143
     14          6           0        3.038600   -0.231566   -1.569091
     15          6           0        3.994382    0.173566   -0.437622
     16          7           0        3.699586   -0.569346    0.796824
     17          1           0        1.719310   -0.213553    0.643813
     18          1           0       -0.504868    1.354976   -0.368689
     19          1           0       -2.141534    1.406919    1.338996
     20          1           0       -1.081270   -0.800309   -1.358194
     21          1           0       -1.083026   -1.586720    0.222436
     22          1           0       -3.208930    1.492400   -1.373883
     23          1           0       -5.663513   -0.644279    1.254429
     24          1           0       -3.358934   -1.728454    1.310413
     25          1           0        3.094687   -1.318501   -1.723867
     26          1           0        3.350176    0.231363   -2.508749
     27          1           0        5.030256    0.044527   -0.788982
     28          1           0        3.867029    1.239927   -0.220485
     29          1           0        4.192110   -0.168475    1.589685
     30          1           0        4.005574   -1.535934    0.712826
 ---------------------------------------------------------------------

 SCF Done:  E(RB3LYP) =  -796.112613774     A.U. after    1 cycles

 Alpha  occ. eigenvalues --  -19.19442 -19.13933 -19.10565 -14.40283 -14.34656
 Alpha  occ. eigenvalues --  -14.33819 -14.32072 -10.32271 -10.28054 -10.24824
 Alpha  occ. eigenvalues --  -10.24773 -10.23410 -10.22886 -10.21518 -10.20674
 Alpha  occ. eigenvalues --  -10.19709  -1.10233  -1.02590  -1.02364  -1.01937
 Alpha  occ. eigenvalues --   -0.92024  -0.89936  -0.87957  -0.80552  -0.76531
 Alpha  occ. eigenvalues --   -0.73414  -0.67679  -0.63770  -0.62377  -0.61437
 Alpha  occ. eigenvalues --   -0.59856  -0.57116  -0.55832  -0.53681  -0.51344
 Alpha  occ. eigenvalues --   -0.49286  -0.47286  -0.46943  -0.45808  -0.45572
 Alpha  occ. eigenvalues --   -0.44293  -0.43542  -0.42855  -0.42549  -0.41390
 Alpha  occ. eigenvalues --   -0.40754  -0.39724  -0.38948  -0.38561  -0.37532
 Alpha  occ. eigenvalues --   -0.36850  -0.34384  -0.31874  -0.29094  -0.27794
 Alpha  occ. eigenvalues --   -0.27381  -0.26221  -0.25421  -0.24243  -0.23162
 Alpha virt. eigenvalues --    0.00030   0.01865   0.02922   0.04875   0.06502
 Alpha virt. eigenvalues --    0.06686   0.09604   0.11562   0.11672   0.11951
 Alpha virt. eigenvalues --    0.12460   0.13879   0.14820   0.15677   0.16292

 Mulliken charges:
               1
     1  O   -0.536581
     2  C    0.567102
     3  N   -0.538933
     4  C   -0.016594
     5  C    0.589071
     6  O   -0.485354
     7  O   -0.453793
     8  C   -0.224832
     9  C    0.225773
    10  C   -0.037163
    11  N   -0.430866
    12  C    0.261920
    13  N   -0.515728
    14  C   -0.251857
    15  C   -0.076491
    16  N   -0.615477
    17  H    0.317522
    18  H    0.142395
    19  H    0.330512
    20  H    0.169388
    21  H    0.105275
    22  H    0.108389
    23  H    0.120572
    24  H    0.270261
    25  H    0.119954
    26  H    0.131671
    27  H    0.095192
    28  H    0.122174
    29  H    0.258533
    30  H    0.247965
 Sum of Mulliken charges =   0.00000

 Dipole moment (field-independent basis, Debye):
    X=              3.2090    Y=             -3.8186    Z=              1.1828  Tot=              5.1263
 Quadrupole moment (field-independent basis, Debye-Ang):
   XX=            -80.8477   YY=            -87.1028   ZZ=           -108.6473
   XY=              8.0938   XZ=             -5.9985   YZ=             -3.8996

  Exact polarizability: 166.100  -7.856  94.706  -7.351 -10.586 113.620
 Approx polarizability: 210.932 -20.197 157.644   1.433 -28.041 182.463

                      1                      2                      3
                      A                      A                      A
 Frequencies --     25.1707                37.3545                48.7985
 Red. masses --      4.5705                 5.0781                 4.5797
 Frc consts  --      0.0017                 0.0042                 0.0064
 IR Inten    --      0.9739                 7.5572                 1.6703

                      4                      5                      6
                      A                      A                      A
 Frequencies --     63.5392                82.3548                87.1648
 Red. masses --      4.1738                 6.7314                 5.3928
 Frc consts  --      0.0099                 0.0269                 0.0241
 IR Inten    --      5.5219                 2.6690                 2.3938

                      7                      8                      9
                      A                      A                      A
 Frequencies --    101.2832               121.1569               174.8642
 Red. masses --      6.7829                 4.1853                 4.9309
 Frc consts  --      0.0410                 0.0362                 0.0888
 IR Inten    --      7.6254                 6.2906                 8.9983

                     10                     11                     12
                      A                      A                      A
 Frequencies --    201.1351               228.4015               288.8088
 Red. masses --      2.2521                 5.3503                 7.7443
 Frc consts  --      0.0537                 0.1644                 0.3806
 IR Inten    --      7.5352                 4.8428                 0.6194

                     13                     14                     15
                      A                      A                      A
 Frequencies --    300.1159               332.1080               343.9404
 Red. masses --      1.2911                 2.2744                 5.8758
 Frc consts  --      0.0685                 0.1478                 0.4095
 IR Inten    --     11.9975                 6.0537                 1.0832

                     16                     17                     18
                      A                      A                      A
 Frequencies --    347.2910               392.1037               475.4685
 Red. masses --      3.7638                 4.4308                 2.6825
 Frc consts  --      0.2675                 0.4014                 0.3573
 IR Inten    --     17.1447                17.2540                13.1884

                     19                     20                     21
                      A                      A                      A
 Frequencies --    508.4566               539.7252               600.5398
 Red. masses --      3.2148                 1.4103                 3.6433
 Frc consts  --      0.4897                 0.2420                 0.7742
 IR Inten    --     29.1172                89.1076                18.7558

                     22                     23                     24
                      A                      A                      A
 Frequencies --    604.7069               644.2318               667.8540
 Red. masses --      1.6586                 2.4622                 3.2505
 Frc consts  --      0.3573                 0.6021                 0.8542
 IR Inten    --     64.3172                 9.1632                19.1670

                     25                     26                     27
                      A                      A                      A
 Frequencies --    681.1084               694.8896               728.3897
 Red. masses --      3.0378                 3.3217                 3.1942
 Frc consts  --      0.8303                 0.9450                 0.9985
 IR Inten    --      5.9425                25.4873                 7.4680

                     28                     29                     30
                      A                      A                      A
 Frequencies --    762.7476               806.3397               813.3252
 Red. masses --      3.3615                 1.6101                 1.4001
 Frc consts  --      1.1522                 0.6168                 0.5457
 IR Inten    --      3.3357                23.8923                37.0222

                     31                     32                     33
                      A                      A                      A
 Frequencies --    823.1723               848.0908               854.5171
 Red. masses --      1.9094                 1.3490                 1.3952
 Frc consts  --      0.7623                 0.5717                 0.6002
 IR Inten    --      8.4757                82.0370                24.9929

                     34                     35                     36
                      A                      A                      A
 Frequencies --    893.9632               922.6767               932.7263
 Red. masses --      2.6734                 1.9470                 5.8643
 Frc consts  --      1.2588                 0.9766                 3.0059
 IR Inten    --     11.4954                18.8676                11.0200

                     37                     38                     39
                      A                      A                      A
 Frequencies --    976.1896              1007.2872              1015.1472
 Red. masses --      2.1597                 2.0260                 2.4181
 Frc consts  --      1.2126                 1.2112                 1.4682
 IR Inten    --     19.3564                18.1445                 2.1646

                     40                     41                     42
                      A                      A                      A
 Frequencies --   1027.4004              1040.4630              1089.7913
 Red. masses --      3.9617                 2.9501                 2.5191
 Frc consts  --      2.4639                 1.8816                 1.7627
 IR Inten    --      7.9140                10.1963                 4.5743

                     43                     44                     45
                      A                      A                      A
 Frequencies --   1116.2937              1146.8748              1149.9231
 Red. masses --      1.6051                 1.7170                 2.0673
 Frc consts  --      1.1785                 1.3306                 1.6106
 IR Inten    --     15.7006                 2.9392                12.4817

                     46                     47                     48
                      A                      A                      A
 Frequencies --   1162.5196              1168.3124              1213.3917
 Red. masses --      1.4711                 2.1693                 2.1834
 Frc consts  --      1.1713                 1.7446                 1.8940
 IR Inten    --      7.8021                13.8948                16.4978

                     49                     50                     51
                      A                      A                      A
 Frequencies --   1250.1347              1261.9401              1285.2789
 Red. masses --      1.5753                 1.8299                 1.4384
 Frc consts  --      1.4505                 1.7169                 1.4000
 IR Inten    --     16.9129                25.7653                 1.0538

                     52                     53                     54
                      A                      A                      A
 Frequencies --   1296.6898              1317.2642              1320.7876
 Red. masses --      1.3370                 1.4965                 1.3640
 Frc consts  --      1.3245                 1.5300                 1.4019
 IR Inten    --      0.9915                15.5601                 7.3743

                     55                     56                     57
                      A                      A                      A
 Frequencies --   1325.3090              1365.4134              1373.7166
 Red. masses --      1.4425                 1.3719                 1.3933
 Frc consts  --      1.4928                 1.5070                 1.5492
 IR Inten    --     95.2191               116.7298                22.5562

                     58                     59                     60
                      A                      A                      A
 Frequencies --   1402.3472              1409.3465              1428.9149
 Red. masses --      2.6143                 2.0697                 1.4307
 Frc consts  --      3.0291                 2.4221                 1.7211
 IR Inten    --     46.6715                96.4977                21.2950

                     61                     62                     63
                      A                      A                      A
 Frequencies --   1443.6601              1476.2723              1496.9032
 Red. masses --      3.2833                 1.0837                 1.1853
 Frc consts  --      4.0317                 1.3915                 1.5648
 IR Inten    --     21.0819                10.7741                 8.2096

                     64                     65                     66
                      A                      A                      A
 Frequencies --   1508.0003              1522.0710              1557.5654
 Red. masses --      3.4420                 1.1074                 2.0684
 Frc consts  --      4.6118                 1.5115                 2.9565
 IR Inten    --     17.8762                20.8854               399.2445

                     67                     68                     69
                      A                      A                      A
 Frequencies --   1607.9382              1664.4639              1755.3164
 Red. masses --      4.1128                 1.0913                 9.6591
 Frc consts  --      6.2651                 1.7813                17.5346
 IR Inten    --     10.6017                32.3794               260.9832

                     70                     71                     72
                      A                      A                      A
 Frequencies --   1861.1173              2988.0458              3033.0371
 Red. masses --      9.8871                 1.0723                 1.0707
 Frc consts  --     20.1775                 5.6407                 5.8031
 IR Inten    --    241.0754                93.1380                10.1948

                     73                     74                     75
                      A                      A                      A
 Frequencies --   3041.0641              3060.9213              3080.5716
 Red. masses --      1.0816                 1.0640                 1.0916
 Frc consts  --      5.8935                 5.8733                 6.1036
 IR Inten    --      9.7558                19.7820                26.7199

                     76                     77                     78
                      A                      A                      A
 Frequencies --   3117.0468              3121.3900              3251.2224
 Red. masses --      1.1028                 1.0932                 1.0958
 Frc consts  --      6.3131                 6.2754                 6.8245
 IR Inten    --      2.7459                10.3785                 4.0565

                     79                     80                     81
                      A                      A                      A
 Frequencies --   3263.5967              3391.1495              3502.5443
 Red. masses --      1.0974                 1.0823                 1.0502
 Frc consts  --      6.8866                 7.3329                 7.5911
 IR Inten    --      1.1427               351.0340                 0.2832

                     82                     83                     84
                      A                      A                      A
 Frequencies --   3592.4330              3657.8202              3661.4129
 Red. masses --      1.0930                 1.0806                 1.0674
 Frc consts  --      8.3112                 8.5186                 8.4306
 IR Inten    --      2.1331                47.0744               226.7748

 - Thermochemistry -
 -------------------
 Temperature   298.150 Kelvin.  Pressure   1.00000 Atm.
 Atom     1 has atomic number  8 and mass  15.99491

 Molecular mass:   226.10659 amu.
 Principal axes and moments of inertia in atomic units:
                           1         2         3
     Eigenvalues --  1657.999956663.738947663.82134
           X            0.99191   0.12617   0.01366
           Y           -0.02383   0.07944   0.99656
           Z           -0.12465   0.98882  -0.08180
 This molecule is an asymmetric top.
 Rotational symmetry number  1.
 Warning -- assumption of classical behavior for rotation
           may cause significant error
 Rotational temperatures (Kelvin)      0.05224     0.01300     0.01130
 Rotational constants (GHZ):           1.08850     0.27083     0.23549
 Zero-point vibrational energy     644696.4 (Joules/Mol)
                                  154.08614 (Kcal/Mol)
 Warning -- explicit consideration of  22 degrees of freedom as
           vibrations may cause significant error
 Vibrational temperatures:     36.21    53.74    70.21    91.42   118.49
          (Kelvin)            125.41   145.72   174.32   251.59   289.39
                              328.62   415.53   431.80   477.83   494.85
                              499.67   564.15   684.09   731.55   776.54
                              864.04   870.04   926.90   960.89   979.96
                              999.79  1047.99  1097.42  1160.14  1170.19
                             1184.36  1220.21  1229.46  1286.21  1327.52
                             1341.98  1404.52  1449.26  1460.57  1478.20
                             1496.99  1567.96  1606.10  1650.09  1654.48
                             1672.60  1680.94  1745.80  1798.66  1815.65
                             1849.23  1865.65  1895.25  1900.32  1906.82
                             1964.52  1976.47  2017.66  2027.73  2055.89
                             2077.10  2124.02  2153.71  2169.67  2189.92
                             2240.99  2313.46  2394.79  2525.51  2677.73
                             4299.13  4363.86  4375.41  4403.98  4432.25
                             4484.73  4490.98  4677.78  4695.58  4879.10
                             5039.37  5168.70  5262.78  5267.95

 Zero-point correction=                           0.245552 (Hartree/Particle)
 Thermal correction to Energy=                    0.261344
 Thermal correction to Enthalpy=                  0.262288
 Thermal correction to Gibbs Free Energy=         0.200086
 Sum of electronic and zero-point Energies=           -795.867062
 Sum of electronic and thermal Energies=              -795.851270
 Sum of electronic and thermal Enthalpies=            -795.850326
 Sum of electronic and thermal Free Energies=         -795.912528

                     E (Thermal)             CV                S
                      KCal/Mol        Cal/Mol-Kelvin    Cal/Mol-Kelvin
 Total                  163.996             57.759            130.915
 Electronic               0.000              0.000              0.000
 Translational            0.889              2.981             42.150
 Rotational               0.889              2.981             32.804
 Vibrational            162.218             51.797             55.961
 Vibration     1          0.593              1.985              6.178
 Vibration     2          0.594              1.982              5.395
 Vibration     3          0.595              1.978              4.865
 Vibration     4          0.597              1.972              4.344
 Vibration     5          0.600              1.961              3.834
 Vibration     6          0.601              1.958              3.723
 Vibration     7          0.604              1.948              3.429
 Vibration     8          0.609              1.932              3.082
 Vibration     9          0.627              1.873              2.383
 Vibration    10          0.638              1.838              2.123
 Vibration    11          0.651              1.798              1.891
 Vibration    12          0.685              1.695              1.481
 Vibration    13          0.693              1.673              1.416
 Vibration    14          0.714              1.611              1.250
 Vibration    15          0.723              1.588              1.194
 Vibration    16          0.725              1.581              1.178
 Vibration    17          0.760              1.487              0.992
 Vibration    18          0.832              1.304              0.722
 Vibration    19          0.864              1.231              0.637
 Vibration    20          0.895              1.162              0.566
 Vibration    21          0.959              1.031              0.449
 Vibration    22          0.963              1.022              0.442

 Normal termination of Gaussian 09 at Wed Jul 28 22:57:20 2021.
