 Gaussian 09, Revision D.01,
 Gaussian 09:  ES64L-G09RevD.01 24-Apr-2013

 ----------------------------------------------------------------------
 # B3LYP/6-31G(d,p) opt=calcfc freq=noraman nosymm integral(ultrafinegr
 id)
 ----------------------------------------------------------------------

 ------------------------------------------------------------
 Candidate Structure: Conf:295 OPT and FREQ calc in gas phase
 ------------------------------------------------------------
 Symbolic Z-matrix:
 Charge =  0 Multiplicity = 1

 SCF Done:  E(RB3LYP) =  -796.108253952     A.U. after   14 cycles
 SCF Done:  E(RB3LYP) =  -796.111684271     A.U. after   12 cycles
 SCF Done:  E(RB3LYP) =  -796.112640350     A.U. after   14 cycles
 SCF Done:  E(RB3LYP) =  -796.112956319     A.U. after   12 cycles
 SCF Done:  E(RB3LYP) =  -796.113130978     A.U. after   11 cycles
 SCF Done:  E(RB3LYP) =  -796.113199550     A.U. after   11 cycles
 SCF Done:  E(RB3LYP) =  -796.113221430     A.U. after   11 cycles
 SCF Done:  E(RB3LYP) =  -796.113235100     A.U. after   10 cycles
 SCF Done:  E(RB3LYP) =  -796.113238189     A.U. after   10 cycles
 SCF Done:  E(RB3LYP) =  -796.113238555     A.U. after    8 cycles
 SCF Done:  E(RB3LYP) =  -796.113238598     A.U. after    7 cycles
 SCF Done:  E(RB3LYP) =  -796.113238607     A.U. after    7 cycles
 Optimization completed.
    -- Stationary point found.
 Normal termination of Gaussian 09 at Wed Jul 28 22:35:14 2021.

 ----------------------------------------------------------------------
 #N Geom=AllCheck Guess=TCheck SCRF=Check GenChk RB3LYP/6-31G(d,p) Freq
 ----------------------------------------------------------------------

 Structure from the checkpoint file:  "conf-295.chk"
 ------------------------------------------------------------
 Candidate Structure: Conf:295 OPT and FREQ calc in gas phase
 ------------------------------------------------------------
 Charge =  0 Multiplicity = 1

                          Input orientation:
 ---------------------------------------------------------------------
 Center     Atomic      Atomic             Coordinates (Angstroms)
 Number     Number       Type             X           Y           Z
 ---------------------------------------------------------------------
      1          8           0        1.331927    0.881954   -0.759282
      2          6           0        1.743526    0.004097   -0.002478
      3          7           0        0.911959   -0.617707    0.884537
      4          6           0       -0.470334   -0.205342    1.041368
      5          6           0       -0.919923   -0.722360    2.399478
      6          8           0       -2.185525   -0.358900    2.721103
      7          8           0       -0.246023   -1.404362    3.140587
      8          6           0       -1.371694   -0.717028   -0.135490
      9          6           0       -2.549111    0.132170   -0.493916
     10          6           0       -2.826167    0.834402   -1.645591
     11          7           0       -4.052397    1.454687   -1.571750
     12          6           0       -4.520768    1.138888   -0.383387
     13          7           0       -3.660371    0.333529    0.306344
     14          6           0        3.188725   -0.486374    0.009679
     15          6           0        4.097155    0.329346   -0.912352
     16          7           0        3.740001    0.098591   -2.314127
     17          1           0        1.275077   -1.254301    1.581822
     18          1           0       -0.524713    0.890397    1.043185
     19          1           0       -2.360197   -0.744277    3.597373
     20          1           0       -0.719743   -0.729827   -1.010298
     21          1           0       -1.663266   -1.757445    0.060238
     22          1           0       -2.200554    0.919385   -2.523768
     23          1           0       -5.467719    1.459343    0.029560
     24          1           0       -3.742710    0.023600    1.262642
     25          1           0        3.564250   -0.457744    1.040972
     26          1           0        3.201826   -1.535438   -0.310943
     27          1           0        5.128645   -0.007896   -0.758741
     28          1           0        4.053756    1.386798   -0.602112
     29          1           0        2.836482    0.538650   -2.476463
     30          1           0        4.407903    0.573166   -2.916951
 ---------------------------------------------------------------------

 SCF Done:  E(RB3LYP) =  -796.113238607     A.U. after    1 cycles

 Alpha  occ. eigenvalues --  -19.23780 -19.17829 -19.12238 -14.38109 -14.36788
 Alpha  occ. eigenvalues --  -14.30210 -14.29856 -10.35699 -10.29410 -10.26199
 Alpha  occ. eigenvalues --  -10.23104 -10.21390 -10.21326 -10.20691 -10.19611
 Alpha  occ. eigenvalues --  -10.18706  -1.14557  -1.05490  -1.04025  -1.00350
 Alpha  occ. eigenvalues --   -0.93575  -0.86996  -0.86092  -0.80782  -0.75925
 Alpha  occ. eigenvalues --   -0.73662  -0.68410  -0.65106  -0.60947  -0.60363
 Alpha  occ. eigenvalues --   -0.59341  -0.57950  -0.54077  -0.52302  -0.51919
 Alpha  occ. eigenvalues --   -0.49678  -0.49284  -0.47952  -0.47318  -0.45717
 Alpha  occ. eigenvalues --   -0.45314  -0.43822  -0.42534  -0.41725  -0.40919
 Alpha  occ. eigenvalues --   -0.39903  -0.39617  -0.38976  -0.38732  -0.36901
 Alpha  occ. eigenvalues --   -0.35844  -0.35668  -0.35091  -0.31362  -0.27217
 Alpha  occ. eigenvalues --   -0.26774  -0.25864  -0.25632  -0.22604  -0.21627
 Alpha virt. eigenvalues --   -0.02673   0.01785   0.03114   0.04067   0.07539
 Alpha virt. eigenvalues --    0.08554   0.10099   0.10968   0.12244   0.12414
 Alpha virt. eigenvalues --    0.13603   0.13984   0.15269   0.16136   0.16658

 Mulliken charges:
               1
     1  O   -0.530517
     2  C    0.603215
     3  N   -0.547395
     4  C    0.027398
     5  C    0.581939
     6  O   -0.496602
     7  O   -0.463506
     8  C   -0.251754
     9  C    0.280832
    10  C   -0.006382
    11  N   -0.443152
    12  C    0.257665
    13  N   -0.530814
    14  C   -0.269838
    15  C   -0.042129
    16  N   -0.612961
    17  H    0.279152
    18  H    0.164547
    19  H    0.335253
    20  H    0.157736
    21  H    0.112492
    22  H    0.093952
    23  H    0.106507
    24  H    0.266506
    25  H    0.110721
    26  H    0.140714
    27  H    0.093414
    28  H    0.089449
    29  H    0.260225
    30  H    0.233336
 Sum of Mulliken charges =   0.00000

 Dipole moment (field-independent basis, Debye):
    X=              0.3381    Y=             -2.0527    Z=              5.2450  Tot=              5.6425
 Quadrupole moment (field-independent basis, Debye-Ang):
   XX=            -87.8706   YY=            -98.3698   ZZ=            -91.1864
   XY=              9.9378   XZ=            -17.7197   YZ=              2.0992

  Exact polarizability: 154.441 -17.605  92.363  -8.435 -21.950 126.440
 Approx polarizability: 195.958 -30.217 153.544  -5.066 -41.086 194.675

                      1                      2                      3
                      A                      A                      A
 Frequencies --     17.1112                31.4347                32.5025
 Red. masses --      3.5540                 5.0824                 6.3016
 Frc consts  --      0.0006                 0.0030                 0.0039
 IR Inten    --      1.3101                 0.5761                 2.3421

                      4                      5                      6
                      A                      A                      A
 Frequencies --     54.2901                67.8321                72.2899
 Red. masses --      4.5351                 7.6106                 5.0573
 Frc consts  --      0.0079                 0.0206                 0.0156
 IR Inten    --      1.2271                 2.5010                 2.1722

                      7                      8                      9
                      A                      A                      A
 Frequencies --    126.4068               131.8348               164.7373
 Red. masses --      4.8149                 5.6503                 3.6196
 Frc consts  --      0.0453                 0.0579                 0.0579
 IR Inten    --      5.8454                 3.2132                 4.2080

                     10                     11                     12
                      A                      A                      A
 Frequencies --    192.4110               248.1750               272.3957
 Red. masses --      4.5777                 2.7294                 6.0211
 Frc consts  --      0.0999                 0.0990                 0.2632
 IR Inten    --      0.8643                32.4203                 0.2827

                     13                     14                     15
                      A                      A                      A
 Frequencies --    306.3277               328.6574               330.4810
 Red. masses --      2.4605                 4.3256                 2.0003
 Frc consts  --      0.1360                 0.2753                 0.1287
 IR Inten    --      7.3158                 1.2050                22.9832

                     16                     17                     18
                      A                      A                      A
 Frequencies --    349.1190               380.5711               427.0960
 Red. masses --      1.9886                 3.9772                 2.4502
 Frc consts  --      0.1428                 0.3394                 0.2633
 IR Inten    --     39.8549                 5.6862                37.7665

                     19                     20                     21
                      A                      A                      A
 Frequencies --    489.7021               558.5605               562.6248
 Red. masses --      1.4288                 1.8346                 2.3211
 Frc consts  --      0.2019                 0.3372                 0.4329
 IR Inten    --     76.7002                44.9029                23.2918

                     22                     23                     24
                      A                      A                      A
 Frequencies --    595.3584               612.5653               635.4846
 Red. masses --      1.7862                 2.3570                 2.8772
 Frc consts  --      0.3730                 0.5211                 0.6846
 IR Inten    --     38.8916                 4.4100                32.2362

                     25                     26                     27
                      A                      A                      A
 Frequencies --    667.3888               685.7576               688.0416
 Red. masses --      2.1930                 2.3810                 3.4617
 Frc consts  --      0.5755                 0.6597                 0.9655
 IR Inten    --     95.9859                 2.5857                 9.6572

                     28                     29                     30
                      A                      A                      A
 Frequencies --    736.4603               770.0038               801.8704
 Red. masses --      3.0167                 3.9851                 1.3834
 Frc consts  --      0.9640                 1.3921                 0.5241
 IR Inten    --     35.4592                 4.3870                14.9891

                     31                     32                     33
                      A                      A                      A
 Frequencies --    810.7154               853.5798               878.4296
 Red. masses --      2.6856                 1.3889                 2.1541
 Frc consts  --      1.0400                 0.5962                 0.9794
 IR Inten    --     12.9632                17.0139                52.2094

                     34                     35                     36
                      A                      A                      A
 Frequencies --    891.2952               920.6580               933.5176
 Red. masses --      1.9289                 1.6013                 5.8924
 Frc consts  --      0.9028                 0.7997                 3.0254
 IR Inten    --     11.3270                71.0263                12.3058

                     37                     38                     39
                      A                      A                      A
 Frequencies --    960.9634              1010.3790              1016.3042
 Red. masses --      2.1942                 3.9373                 3.4799
 Frc consts  --      1.1938                 2.3682                 2.1177
 IR Inten    --     13.6018                13.6536                 7.0127

                     40                     41                     42
                      A                      A                      A
 Frequencies --   1030.7372              1067.7211              1110.7196
 Red. masses --      3.5810                 2.5362                 3.4087
 Frc consts  --      2.2415                 1.7035                 2.4777
 IR Inten    --      9.0001                20.2305                29.1227

                     43                     44                     45
                      A                      A                      A
 Frequencies --   1123.7436              1131.5236              1154.7532
 Red. masses --      1.5682                 1.6192                 1.9744
 Frc consts  --      1.1668                 1.2214                 1.5512
 IR Inten    --     38.2772                16.6390                11.8455

                     46                     47                     48
                      A                      A                      A
 Frequencies --   1172.4541              1192.4353              1197.2500
 Red. masses --      1.5521                 1.4330                 2.2713
 Frc consts  --      1.2571                 1.2005                 1.9182
 IR Inten    --    102.8442                36.8735               102.2042

                     49                     50                     51
                      A                      A                      A
 Frequencies --   1230.6530              1247.0519              1272.8889
 Red. masses --      1.2425                 1.5395                 2.2259
 Frc consts  --      1.1087                 1.4106                 2.1249
 IR Inten    --      6.1589                19.3698                19.1961

                     52                     53                     54
                      A                      A                      A
 Frequencies --   1282.2303              1309.5503              1324.4633
 Red. masses --      1.4903                 1.4182                 1.2338
 Frc consts  --      1.4436                 1.4329                 1.2752
 IR Inten    --      7.5795                10.9884                 2.1883

                     55                     56                     57
                      A                      A                      A
 Frequencies --   1360.4569              1366.2983              1379.8664
 Red. masses --      1.1886                 1.6111                 1.6040
 Frc consts  --      1.2961                 1.7720                 1.7994
 IR Inten    --      4.2480                47.2087                14.6509

                     58                     59                     60
                      A                      A                      A
 Frequencies --   1395.8260              1421.8901              1439.2303
 Red. masses --      3.0361                 2.4180                 1.3879
 Frc consts  --      3.4852                 2.8803                 1.6938
 IR Inten    --     35.3021                76.4991                15.0062

                     61                     62                     63
                      A                      A                      A
 Frequencies --   1443.3377              1462.0830              1481.3738
 Red. masses --      2.7240                 1.1282                 1.1594
 Frc consts  --      3.3434                 1.4209                 1.4991
 IR Inten    --     30.1878                20.3943                17.6142

                     64                     65                     66
                      A                      A                      A
 Frequencies --   1517.6051              1517.8177              1536.5954
 Red. masses --      2.5133                 1.2435                 2.2211
 Frc consts  --      3.4105                 1.6878                 3.0898
 IR Inten    --     17.5049                 8.1903               337.1160

                     67                     68                     69
                      A                      A                      A
 Frequencies --   1618.6838              1661.6234              1759.4124
 Red. masses --      4.3680                 1.1275                 7.3825
 Frc consts  --      6.7430                 1.8341                13.4644
 IR Inten    --      5.9393                80.7611               147.8496

                     70                     71                     72
                      A                      A                      A
 Frequencies --   1835.7578              2974.5998              3033.0968
 Red. masses --      9.5954                 1.0717                 1.0715
 Frc consts  --     19.0521                 5.5869                 5.8080
 IR Inten    --    262.0175                67.5051                25.4580

                     73                     74                     75
                      A                      A                      A
 Frequencies --   3037.0994              3059.8159              3068.5644
 Red. masses --      1.0619                 1.0829                 1.0903
 Frc consts  --      5.7709                 5.9738                 6.0487
 IR Inten    --     14.4782                12.0766                45.8852

                     76                     77                     78
                      A                      A                      A
 Frequencies --   3084.1418              3136.8699              3252.9513
 Red. masses --      1.1013                 1.0928                 1.0945
 Frc consts  --      6.1719                 6.3355                 6.8234
 IR Inten    --     14.2015                 1.5512                 9.5756

                     79                     80                     81
                      A                      A                      A
 Frequencies --   3256.6663              3490.9100              3576.7736
 Red. masses --      1.0985                 1.0496                 1.0923
 Frc consts  --      6.8646                 7.5364                 8.2336
 IR Inten    --      0.2614                12.0102                 4.1097

                     82                     83                     84
                      A                      A                      A
 Frequencies --   3612.7223              3666.9454              3742.4920
 Red. masses --      1.0778                 1.0809                 1.0641
 Frc consts  --      8.2879                 8.5632                 8.7816
 IR Inten    --     71.1526               103.0897                78.1704

 - Thermochemistry -
 -------------------
 Temperature   298.150 Kelvin.  Pressure   1.00000 Atm.
 Atom     1 has atomic number  8 and mass  15.99491

 Molecular mass:   226.10659 amu.
 Principal axes and moments of inertia in atomic units:
                           1         2         3
     Eigenvalues --  2429.557326172.923598316.06775
           X            0.98940   0.08637   0.11673
           Y           -0.07487  -0.38536   0.91972
           Z           -0.12442   0.91871   0.37481
 This molecule is an asymmetric top.
 Rotational symmetry number  1.
 Warning -- assumption of classical behavior for rotation
           may cause significant error
 Rotational temperatures (Kelvin)      0.03565     0.01403     0.01042
 Rotational constants (GHZ):           0.74283     0.29236     0.21702
 Zero-point vibrational energy     643908.0 (Joules/Mol)
                                  153.89771 (Kcal/Mol)
 Warning -- explicit consideration of  23 degrees of freedom as
           vibrations may cause significant error
 Vibrational temperatures:     24.62    45.23    46.76    78.11    97.60
          (Kelvin)            104.01   181.87   189.68   237.02   276.84
                              357.07   391.92   440.74   472.86   475.49
                              502.30   547.56   614.50   704.57   803.64
                              809.49   856.59   881.34   914.32   960.22
                              986.65   989.94  1059.60  1107.86  1153.71
                             1166.44  1228.11  1263.86  1282.37  1324.62
                             1343.12  1382.61  1453.71  1462.23  1483.00
                             1536.21  1598.08  1616.81  1628.01  1661.43
                             1686.90  1715.65  1722.57  1770.63  1794.23
                             1831.40  1844.84  1884.15  1905.60  1957.39
                             1965.80  1985.32  2008.28  2045.78  2070.73
                             2076.64  2103.61  2131.36  2183.49  2183.80
                             2210.82  2328.92  2390.70  2531.40  2641.24
                             4279.78  4363.94  4369.70  4402.39  4414.97
                             4437.39  4513.25  4680.27  4685.61  5022.63
                             5146.17  5197.90  5275.91  5384.60

 Zero-point correction=                           0.245252 (Hartree/Particle)
 Thermal correction to Energy=                    0.261310
 Thermal correction to Enthalpy=                  0.262254
 Thermal correction to Gibbs Free Energy=         0.198410
 Sum of electronic and zero-point Energies=           -795.867987
 Sum of electronic and thermal Energies=              -795.851929
 Sum of electronic and thermal Enthalpies=            -795.850985
 Sum of electronic and thermal Free Energies=         -795.914829

                     E (Thermal)             CV                S
                      KCal/Mol        Cal/Mol-Kelvin    Cal/Mol-Kelvin
 Total                  163.974             58.371            134.371
 Electronic               0.000              0.000              0.000
 Translational            0.889              2.981             42.150
 Rotational               0.889              2.981             33.189
 Vibrational            162.197             52.409             59.032
 Vibration     1          0.593              1.986              6.944
 Vibration     2          0.594              1.983              5.737
 Vibration     3          0.594              1.983              5.671
 Vibration     4          0.596              1.976              4.655
 Vibration     5          0.598              1.970              4.215
 Vibration     6          0.598              1.967              4.090
 Vibration     7          0.611              1.927              3.000
 Vibration     8          0.612              1.922              2.919
 Vibration     9          0.623              1.886              2.495
 Vibration    10          0.634              1.850              2.204
 Vibration    11          0.662              1.766              1.744
 Vibration    12          0.675              1.724              1.581
 Vibration    13          0.697              1.662              1.382
 Vibration    14          0.712              1.618              1.267
 Vibration    15          0.713              1.615              1.258
 Vibration    16          0.726              1.577              1.170
 Vibration    17          0.750              1.512              1.037
 Vibration    18          0.789              1.411              0.868
 Vibration    19          0.846              1.273              0.684
 Vibration    20          0.914              1.121              0.527
 Vibration    21          0.918              1.112              0.519
 Vibration    22          0.953              1.042              0.458
 Vibration    23          0.972              1.005              0.429

 Optimization completed.
    -- Stationary point found.
 Normal termination of Gaussian 09 at Wed Jul 28 22:53:47 2021.
