 Gaussian 09, Revision D.01,
 Gaussian 09:  ES64L-G09RevD.01 24-Apr-2013

 ----------------------------------------------------------------------
 # B3LYP/6-31G(d,p) opt=calcfc freq=noraman nosymm integral(ultrafinegr
 id)
 ----------------------------------------------------------------------

 ------------------------------------------------------------
 Candidate Structure: Conf:455 OPT and FREQ calc in gas phase
 ------------------------------------------------------------
 Symbolic Z-matrix:
 Charge =  0 Multiplicity = 1

 SCF Done:  E(RB3LYP) =  -796.098518638     A.U. after   14 cycles
 SCF Done:  E(RB3LYP) =  -796.100613910     A.U. after   12 cycles
 SCF Done:  E(RB3LYP) =  -796.100923878     A.U. after   12 cycles
 SCF Done:  E(RB3LYP) =  -796.100967457     A.U. after   12 cycles
 SCF Done:  E(RB3LYP) =  -796.100979783     A.U. after   11 cycles
 SCF Done:  E(RB3LYP) =  -796.100982052     A.U. after   10 cycles
 SCF Done:  E(RB3LYP) =  -796.100982177     A.U. after    8 cycles
 Optimization completed.
    -- Stationary point found.
 Normal termination of Gaussian 09 at Wed Jul 28 22:29:41 2021.

 ----------------------------------------------------------------------
 #N Geom=AllCheck Guess=TCheck SCRF=Check GenChk RB3LYP/6-31G(d,p) Freq
 ----------------------------------------------------------------------

 Structure from the checkpoint file:  "conf-455.chk"
 ------------------------------------------------------------
 Candidate Structure: Conf:455 OPT and FREQ calc in gas phase
 ------------------------------------------------------------
 Charge =  0 Multiplicity = 1

                          Input orientation:
 ---------------------------------------------------------------------
 Center     Atomic      Atomic             Coordinates (Angstroms)
 Number     Number       Type             X           Y           Z
 ---------------------------------------------------------------------
      1          8           0        0.327728   -0.404890   -1.223429
      2          6           0        0.995117   -0.248165   -0.199739
      3          7           0        0.518904   -0.539562    1.050757
      4          6           0       -0.581967   -1.451138    1.324675
      5          6           0       -0.093731   -2.911044    1.154443
      6          8           0       -1.011957   -3.875565    1.405922
      7          8           0        1.033610   -3.204642    0.851730
      8          6           0       -1.891700   -1.176322    0.525076
      9          6           0       -2.362790    0.241647    0.549298
     10          6           0       -3.255820    0.919573    1.349421
     11          7           0       -3.370712    2.233784    0.959190
     12          6           0       -2.556433    2.354071   -0.070464
     13          7           0       -1.926716    1.181332   -0.362443
     14          6           0        2.402538    0.330317   -0.245183
     15          6           0        2.555537    1.429082   -1.316664
     16          7           0        3.908486    1.941722   -1.508938
     17          1           0        1.206740   -0.495916    1.789509
     18          1           0       -0.823027   -1.318575    2.387472
     19          1           0       -1.871200   -3.489271    1.627452
     20          1           0       -2.686131   -1.791220    0.966108
     21          1           0       -1.754397   -1.510284   -0.504834
     22          1           0       -3.830734    0.527229    2.178323
     23          1           0       -2.390084    3.257730   -0.640665
     24          1           0       -1.227338    0.989830   -1.071092
     25          1           0        2.705182    0.710147    0.738855
     26          1           0        3.073586   -0.506906   -0.481792
     27          1           0        2.189087    1.034955   -2.268242
     28          1           0        1.905237    2.274096   -1.059895
     29          1           0        4.280357    2.306434   -0.634794
     30          1           0        4.532537    1.191448   -1.797100
 ---------------------------------------------------------------------

 SCF Done:  E(RB3LYP) =  -796.100982177     A.U. after    1 cycles

 Alpha  occ. eigenvalues --  -19.21533 -19.15349 -19.13757 -14.38508 -14.38076
 Alpha  occ. eigenvalues --  -14.32169 -14.30595 -10.33646 -10.31120 -10.27210
 Alpha  occ. eigenvalues --  -10.23317 -10.22743 -10.21905 -10.21876 -10.20791
 Alpha  occ. eigenvalues --  -10.19406  -1.11908  -1.05571  -1.03735  -1.00635
 Alpha  occ. eigenvalues --   -0.94956  -0.88958  -0.86346  -0.81601  -0.76816
 Alpha  occ. eigenvalues --   -0.73767  -0.68282  -0.64680  -0.62815  -0.60679
 Alpha  occ. eigenvalues --   -0.59732  -0.58453  -0.55939  -0.53325  -0.53009
 Alpha  occ. eigenvalues --   -0.51162  -0.48953  -0.46854  -0.46126  -0.45380
 Alpha  occ. eigenvalues --   -0.44980  -0.43651  -0.43082  -0.42374  -0.41662
 Alpha  occ. eigenvalues --   -0.41050  -0.40346  -0.40094  -0.39308  -0.38791
 Alpha  occ. eigenvalues --   -0.37564  -0.35214  -0.33410  -0.29676  -0.28522
 Alpha  occ. eigenvalues --   -0.27545  -0.27187  -0.26019  -0.24108  -0.22148
 Alpha virt. eigenvalues --   -0.00994  -0.00259   0.02139   0.03534   0.05744
 Alpha virt. eigenvalues --    0.07052   0.07152   0.10635   0.11608   0.12245
 Alpha virt. eigenvalues --    0.13216   0.13539   0.14767   0.15157   0.15946

 Mulliken charges:
               1
     1  O   -0.547327
     2  C    0.613724
     3  N   -0.501051
     4  C   -0.045265
     5  C    0.614807
     6  O   -0.476131
     7  O   -0.439936
     8  C   -0.260897
     9  C    0.282316
    10  C   -0.018076
    11  N   -0.445347
    12  C    0.257412
    13  N   -0.522880
    14  C   -0.281175
    15  C   -0.059047
    16  N   -0.592302
    17  H    0.271562
    18  H    0.136012
    19  H    0.325556
    20  H    0.096158
    21  H    0.160494
    22  H    0.077848
    23  H    0.110954
    24  H    0.284997
    25  H    0.093255
    26  H    0.145382
    27  H    0.137316
    28  H    0.108581
    29  H    0.234682
    30  H    0.238377
 Sum of Mulliken charges =   0.00000

 Dipole moment (field-independent basis, Debye):
    X=              1.6345    Y=             -0.8268    Z=              2.3940  Tot=              3.0144
 Quadrupole moment (field-independent basis, Debye-Ang):
   XX=            -94.4562   YY=           -110.7987   ZZ=            -90.9353
   XY=             16.1414   XZ=              4.9830   YZ=             -4.6828

  Exact polarizability: 133.928  -3.852 130.478 -20.426 -13.688 103.863
 Approx polarizability: 187.415  -9.043 184.309 -28.771  -9.433 177.199

                      1                      2                      3
                      A                      A                      A
 Frequencies --     16.2594                27.0996                52.3505
 Red. masses --      5.4994                 4.4927                 3.7361
 Frc consts  --      0.0009                 0.0019                 0.0060
 IR Inten    --      0.6882                 2.6892                10.8620

                      4                      5                      6
                      A                      A                      A
 Frequencies --     65.6384                76.0507                91.1655
 Red. masses --      2.6417                 4.9676                 4.9352
 Frc consts  --      0.0067                 0.0169                 0.0242
 IR Inten    --      4.6532                 7.4699                 0.3598

                      7                      8                      9
                      A                      A                      A
 Frequencies --     91.5232               128.2337               155.5003
 Red. masses --      3.4956                 6.1793                 4.4631
 Frc consts  --      0.0173                 0.0599                 0.0636
 IR Inten    --      2.2183                11.3895                 8.5031

                     10                     11                     12
                      A                      A                      A
 Frequencies --    192.1489               217.2399               284.3474
 Red. masses --      6.0468                 5.5573                 6.3776
 Frc consts  --      0.1315                 0.1545                 0.3038
 IR Inten    --      3.7640                 8.0216                 4.1205

                     13                     14                     15
                      A                      A                      A
 Frequencies --    312.3205               330.1257               330.9762
 Red. masses --      1.1014                 5.8283                 3.7264
 Frc consts  --      0.0633                 0.3742                 0.2405
 IR Inten    --     46.9147                 8.7287                13.4791

                     16                     17                     18
                      A                      A                      A
 Frequencies --    340.6433               389.6577               409.4458
 Red. masses --      2.3099                 3.5809                 2.8532
 Frc consts  --      0.1579                 0.3203                 0.2818
 IR Inten    --      5.3339                16.9973                23.6420

                     19                     20                     21
                      A                      A                      A
 Frequencies --    467.6949               538.7179               561.0221
 Red. masses --      1.2938                 4.1494                 1.4669
 Frc consts  --      0.1667                 0.7095                 0.2720
 IR Inten    --     67.6563                 6.6521                65.2470

                     22                     23                     24
                      A                      A                      A
 Frequencies --    603.9067               625.3756               658.5202
 Red. masses --      3.5749                 3.0367                 3.5732
 Frc consts  --      0.7682                 0.6997                 0.9129
 IR Inten    --      5.0740                32.7099                24.3424

                     25                     26                     27
                      A                      A                      A
 Frequencies --    675.3903               700.0485               742.6782
 Red. masses --      4.6820                 4.0507                 1.1978
 Frc consts  --      1.2583                 1.1696                 0.3893
 IR Inten    --     27.2903                 4.0780                68.4489

                     28                     29                     30
                      A                      A                      A
 Frequencies --    759.9770               760.5523               786.7606
 Red. masses --      2.0170                 3.3421                 1.9298
 Frc consts  --      0.6864                 1.1390                 0.7038
 IR Inten    --      3.2417                 7.9532                 2.7885

                     31                     32                     33
                      A                      A                      A
 Frequencies --    811.4419               838.1516               849.1051
 Red. masses --      1.3937                 1.6362                 1.5506
 Frc consts  --      0.5407                 0.6772                 0.6587
 IR Inten    --     18.4078                34.7837               194.1434

                     34                     35                     36
                      A                      A                      A
 Frequencies --    866.0460               920.3878               924.0385
 Red. masses --      2.4427                 3.0270                 4.2596
 Frc consts  --      1.0795                 1.5108                 2.1429
 IR Inten    --     41.3554                 4.3099                 7.9715

                     37                     38                     39
                      A                      A                      A
 Frequencies --    939.9687               980.2479              1028.8890
 Red. masses --      5.6075                 1.3975                 3.8104
 Frc consts  --      2.9191                 0.7912                 2.3766
 IR Inten    --     12.1932                 1.2471                11.1351

                     40                     41                     42
                      A                      A                      A
 Frequencies --   1036.7418              1041.2863              1101.6412
 Red. masses --      4.3576                 2.8937                 2.5450
 Frc consts  --      2.7596                 1.8486                 1.8198
 IR Inten    --     52.8985                 7.4193                19.5481

                     43                     44                     45
                      A                      A                      A
 Frequencies --   1120.7880              1127.2250              1154.3891
 Red. masses --      2.3060                 1.5872                 1.7897
 Frc consts  --      1.7067                 1.1882                 1.4052
 IR Inten    --      3.8545                44.9794                 3.5963

                     46                     47                     48
                      A                      A                      A
 Frequencies --   1157.5044              1173.5865              1211.3217
 Red. masses --      1.9442                 1.9718                 1.4236
 Frc consts  --      1.5347                 1.6001                 1.2307
 IR Inten    --     10.8144                 3.0316                 9.5485

                     49                     50                     51
                      A                      A                      A
 Frequencies --   1249.9638              1272.2014              1283.5840
 Red. masses --      1.8414                 1.7837                 1.7319
 Frc consts  --      1.6951                 1.7009                 1.6812
 IR Inten    --    178.9375                22.6355                 6.3341

                     52                     53                     54
                      A                      A                      A
 Frequencies --   1299.7166              1303.3039              1313.9009
 Red. masses --      1.3332                 1.4258                 1.8039
 Frc consts  --      1.3269                 1.4269                 1.8348
 IR Inten    --     40.1163               163.1292               205.5678

                     55                     56                     57
                      A                      A                      A
 Frequencies --   1355.3391              1374.2822              1393.1591
 Red. masses --      1.4357                 1.5023                 1.1681
 Frc consts  --      1.5539                 1.6717                 1.3358
 IR Inten    --      7.6361                16.1150                 1.5113

                     58                     59                     60
                      A                      A                      A
 Frequencies --   1397.8821              1406.5006              1407.9586
 Red. masses --      1.5204                 1.5327                 2.2854
 Frc consts  --      1.7504                 1.7864                 2.6693
 IR Inten    --     12.8370                33.4978                36.6005

                     61                     62                     63
                      A                      A                      A
 Frequencies --   1451.3524              1474.1360              1477.5564
 Red. masses --      3.2316                 1.0924                 1.1357
 Frc consts  --      4.0106                 1.3987                 1.4608
 IR Inten    --     26.5429                 5.1256                17.4961

                     64                     65                     66
                      A                      A                      A
 Frequencies --   1511.6854              1515.2126              1557.5927
 Red. masses --      1.0900                 3.5139                 1.7849
 Frc consts  --      1.4676                 4.7532                 2.5514
 IR Inten    --      3.7612                24.3109               182.1411

                     67                     68                     69
                      A                      A                      A
 Frequencies --   1617.5001              1673.0633              1752.6991
 Red. masses --      4.4160                 1.0917                 8.0341
 Frc consts  --      6.8072                 1.8004                14.5412
 IR Inten    --      7.5758                24.7864               169.4837

                     70                     71                     72
                      A                      A                      A
 Frequencies --   1876.7595              3029.6207              3036.9878
 Red. masses --     10.8222                 1.0595                 1.0741
 Frc consts  --     22.4586                 5.7298                 5.8367
 IR Inten    --    218.0810                 7.8221                26.4997

                     73                     74                     75
                      A                      A                      A
 Frequencies --   3044.8387              3051.0798              3072.5270
 Red. masses --      1.0794                 1.0695                 1.0991
 Frc consts  --      5.8959                 5.8660                 6.1134
 IR Inten    --     31.5331                31.6550                12.6169

                     76                     77                     78
                      A                      A                      A
 Frequencies --   3118.7475              3133.2997              3240.8155
 Red. masses --      1.1003                 1.0941                 1.0959
 Frc consts  --      6.3057                 6.3285                 6.7816
 IR Inten    --     17.8103                 3.4571                10.1167

                     79                     80                     81
                      A                      A                      A
 Frequencies --   3259.7107              3487.1875              3573.0673
 Red. masses --      1.0968                 1.0489                 1.0930
 Frc consts  --      6.8665                 7.5151                 8.2218
 IR Inten    --      2.0753                 0.6040                 0.0734

                     82                     83                     84
                      A                      A                      A
 Frequencies --   3585.4505              3624.9395              3800.8662
 Red. masses --      1.0832                 1.0770                 1.0657
 Frc consts  --      8.2041                 8.3381                 9.0712
 IR Inten    --    175.0855                24.5460                34.2547

 - Thermochemistry -
 -------------------
 Temperature   298.150 Kelvin.  Pressure   1.00000 Atm.
 Atom     1 has atomic number  8 and mass  15.99491

 Molecular mass:   226.10659 amu.
 Principal axes and moments of inertia in atomic units:
                           1         2         3
     Eigenvalues --  3481.804364267.254967224.92055
           X            0.93554  -0.21933   0.27688
           Y            0.13413   0.94573   0.29597
           Z           -0.32677  -0.23976   0.91419
 This molecule is an asymmetric top.
 Rotational symmetry number  1.
 Warning -- assumption of classical behavior for rotation
           may cause significant error
 Rotational temperatures (Kelvin)      0.02488     0.02030     0.01199
 Rotational constants (GHZ):           0.51834     0.42293     0.24979
 Zero-point vibrational energy     644180.8 (Joules/Mol)
                                  153.96291 (Kcal/Mol)
 Warning -- explicit consideration of  22 degrees of freedom as
           vibrations may cause significant error
 Vibrational temperatures:     23.39    38.99    75.32    94.44   109.42
          (Kelvin)            131.17   131.68   184.50   223.73   276.46
                              312.56   409.11   449.36   474.98   476.20
                              490.11   560.63   589.10   672.91   775.09
                              807.18   868.89   899.77   947.46   971.73
                             1007.21  1068.55  1093.44  1094.26  1131.97
                             1167.48  1205.91  1221.67  1246.05  1324.23
                             1329.48  1352.40  1410.36  1480.34  1491.64
                             1498.18  1585.01  1612.56  1621.82  1660.91
                             1665.39  1688.53  1742.82  1798.42  1830.41
                             1846.79  1870.00  1875.16  1890.41  1950.03
                             1977.28  2004.44  2011.24  2023.64  2025.74
                             2088.17  2120.95  2125.87  2174.98  2180.05
                             2241.03  2327.22  2407.16  2521.74  2700.23
                             4358.94  4369.54  4380.84  4389.82  4420.68
                             4487.18  4508.11  4662.80  4689.99  5017.28
                             5140.84  5158.66  5215.47  5468.59

 Zero-point correction=                           0.245356 (Hartree/Particle)
 Thermal correction to Energy=                    0.261435
 Thermal correction to Enthalpy=                  0.262379
 Thermal correction to Gibbs Free Energy=         0.198894
 Sum of electronic and zero-point Energies=           -795.855627
 Sum of electronic and thermal Energies=              -795.839548
 Sum of electronic and thermal Enthalpies=            -795.838603
 Sum of electronic and thermal Free Energies=         -795.902088

                     E (Thermal)             CV                S
                      KCal/Mol        Cal/Mol-Kelvin    Cal/Mol-Kelvin
 Total                  164.053             58.466            133.615
 Electronic               0.000              0.000              0.000
 Translational            0.889              2.981             42.150
 Rotational               0.889              2.981             33.040
 Vibrational            162.275             52.505             58.425
 Vibration     1          0.593              1.986              7.045
 Vibration     2          0.593              1.984              6.031
 Vibration     3          0.596              1.977              4.727
 Vibration     4          0.597              1.971              4.280
 Vibration     5          0.599              1.965              3.990
 Vibration     6          0.602              1.955              3.635
 Vibration     7          0.602              1.955              3.627
 Vibration     8          0.611              1.925              2.972
 Vibration     9          0.620              1.897              2.604
 Vibration    10          0.634              1.851              2.207
 Vibration    11          0.646              1.815              1.982
 Vibration    12          0.683              1.703              1.507
 Vibration    13          0.701              1.650              1.350
 Vibration    14          0.713              1.615              1.259
 Vibration    15          0.713              1.614              1.255
 Vibration    16          0.720              1.594              1.209
 Vibration    17          0.758              1.492              1.001
 Vibration    18          0.774              1.450              0.929
 Vibration    19          0.825              1.322              0.744
 Vibration    20          0.894              1.164              0.568
 Vibration    21          0.917              1.116              0.522
 Vibration    22          0.962              1.024              0.443

 Optimization completed.
    -- Stationary point found.
 Normal termination of Gaussian 09 at Wed Jul 28 22:49:51 2021.
