 Gaussian 09, Revision D.01,
 Gaussian 09:  ES64L-G09RevD.01 24-Apr-2013

 ----------------------------------------------------------------------
 # B3LYP/6-31G(d,p) opt=calcfc freq=noraman nosymm integral(ultrafinegr
 id)
 ----------------------------------------------------------------------

 ------------------------------------------------------------
 Candidate Structure: Conf:591 OPT and FREQ calc in gas phase
 ------------------------------------------------------------
 Symbolic Z-matrix:
 Charge =  0 Multiplicity = 1

 SCF Done:  E(RB3LYP) =  -796.108903490     A.U. after   14 cycles
 SCF Done:  E(RB3LYP) =  -796.111234731     A.U. after   14 cycles
 SCF Done:  E(RB3LYP) =  -796.111349504     A.U. after   15 cycles
 SCF Done:  E(RB3LYP) =  -796.111655351     A.U. after   14 cycles
 SCF Done:  E(RB3LYP) =  -796.111993755     A.U. after   12 cycles
 SCF Done:  E(RB3LYP) =  -796.112276539     A.U. after   14 cycles
 SCF Done:  E(RB3LYP) =  -796.114184328     A.U. after   15 cycles
 SCF Done:  E(RB3LYP) =  -796.115580577     A.U. after   12 cycles
 SCF Done:  E(RB3LYP) =  -796.116742422     A.U. after   12 cycles
 SCF Done:  E(RB3LYP) =  -796.116326958     A.U. after   14 cycles
 SCF Done:  E(RB3LYP) =  -796.115714394     A.U. after   15 cycles
 SCF Done:  E(RB3LYP) =  -796.117507292     A.U. after   11 cycles
 SCF Done:  E(RB3LYP) =  -796.117580900     A.U. after   12 cycles
 SCF Done:  E(RB3LYP) =  -796.117615553     A.U. after   10 cycles
 SCF Done:  E(RB3LYP) =  -796.117637591     A.U. after   11 cycles
 SCF Done:  E(RB3LYP) =  -796.117651815     A.U. after   11 cycles
 SCF Done:  E(RB3LYP) =  -796.117655802     A.U. after    9 cycles
 SCF Done:  E(RB3LYP) =  -796.117656080     A.U. after    7 cycles
 SCF Done:  E(RB3LYP) =  -796.117656095     A.U. after    6 cycles
 Optimization completed.
    -- Stationary point found.
 Normal termination of Gaussian 09 at Wed Jul 28 22:52:30 2021.

 ----------------------------------------------------------------------
 #N Geom=AllCheck Guess=TCheck SCRF=Check GenChk RB3LYP/6-31G(d,p) Freq
 ----------------------------------------------------------------------

 Structure from the checkpoint file:  "conf-591.chk"
 ------------------------------------------------------------
 Candidate Structure: Conf:591 OPT and FREQ calc in gas phase
 ------------------------------------------------------------
 Charge =  0 Multiplicity = 1

                          Input orientation:
 ---------------------------------------------------------------------
 Center     Atomic      Atomic             Coordinates (Angstroms)
 Number     Number       Type             X           Y           Z
 ---------------------------------------------------------------------
      1          8           0       -0.840215    0.134233   -1.014884
      2          6           0       -1.266589    0.028175    0.140505
      3          7           0       -0.460321   -0.248032    1.195357
      4          6           0        0.962408   -0.507968    1.063507
      5          6           0        1.392262   -1.239278    2.325744
      6          8           0        2.653749   -1.693145    2.232407
      7          8           0        0.697871   -1.385788    3.310468
      8          6           0        1.830486    0.791155    0.841720
      9          6           0        2.539546    0.839035   -0.471304
     10          6           0        3.864284    1.004478   -0.808647
     11          7           0        4.029469    1.004210   -2.174870
     12          6           0        2.815236    0.835389   -2.661026
     13          7           0        1.876694    0.734416   -1.678208
     14          6           0       -2.740560    0.214133    0.461919
     15          6           0       -3.642465   -0.549566   -0.517174
     16          7           0       -5.049171   -0.301336   -0.188418
     17          1           0       -0.849622   -0.401884    2.117498
     18          1           0        1.128627   -1.177945    0.213526
     19          1           0        2.863299   -2.123891    3.078706
     20          1           0        2.581561    0.879801    1.631256
     21          1           0        1.149584    1.642508    0.958763
     22          1           0        4.704589    1.125385   -0.137699
     23          1           0        2.560185    0.777863   -3.710491
     24          1           0        0.874760    0.561572   -1.753843
     25          1           0       -2.976471   -0.082751    1.488548
     26          1           0       -2.953904    1.288787    0.381589
     27          1           0       -3.457137   -1.624785   -0.408631
     28          1           0       -3.348199   -0.278385   -1.541622
     29          1           0       -5.643702   -0.900737   -0.755486
     30          1           0       -5.296233    0.654489   -0.438567
 ---------------------------------------------------------------------

 SCF Done:  E(RB3LYP) =  -796.117656095     A.U. after    1 cycles

 Alpha  occ. eigenvalues --  -19.22393 -19.16990 -19.13501 -14.37964 -14.36419
 Alpha  occ. eigenvalues --  -14.32152 -14.29335 -10.34908 -10.30709 -10.26205
 Alpha  occ. eigenvalues --  -10.22060 -10.21978 -10.21442 -10.20507 -10.20471
 Alpha  occ. eigenvalues --  -10.18109  -1.13532  -1.05241  -1.04459  -0.99240
 Alpha  occ. eigenvalues --   -0.94501  -0.88903  -0.85042  -0.80804  -0.76561
 Alpha  occ. eigenvalues --   -0.73668  -0.67751  -0.65388  -0.61467  -0.60161
 Alpha  occ. eigenvalues --   -0.59127  -0.57048  -0.53667  -0.53352  -0.51209
 Alpha  occ. eigenvalues --   -0.49737  -0.49418  -0.48327  -0.47569  -0.45934
 Alpha  occ. eigenvalues --   -0.45023  -0.44062  -0.42686  -0.42111  -0.41003
 Alpha  occ. eigenvalues --   -0.40021  -0.39049  -0.38822  -0.38622  -0.38075
 Alpha  occ. eigenvalues --   -0.37506  -0.35099  -0.34584  -0.30784  -0.28030
 Alpha  occ. eigenvalues --   -0.27553  -0.26009  -0.24839  -0.24197  -0.20864
 Alpha virt. eigenvalues --   -0.01921   0.00697   0.04091   0.05430   0.07408
 Alpha virt. eigenvalues --    0.07920   0.08446   0.11186   0.11656   0.12297
 Alpha virt. eigenvalues --    0.13178   0.14471   0.14775   0.15841   0.16764

 Mulliken charges:
               1
     1  O   -0.551501
     2  C    0.601690
     3  N   -0.538798
     4  C    0.023260
     5  C    0.560275
     6  O   -0.470035
     7  O   -0.470593
     8  C   -0.246331
     9  C    0.268932
    10  C   -0.014256
    11  N   -0.450068
    12  C    0.255176
    13  N   -0.532437
    14  C   -0.251992
    15  C   -0.055076
    16  N   -0.607604
    17  H    0.285436
    18  H    0.166028
    19  H    0.333703
    20  H    0.131263
    21  H    0.133398
    22  H    0.077845
    23  H    0.105143
    24  H    0.299306
    25  H    0.115831
    26  H    0.130606
    27  H    0.108766
    28  H    0.112532
    29  H    0.242069
    30  H    0.237432
 Sum of Mulliken charges =   0.00000

 Dipole moment (field-independent basis, Debye):
    X=             -3.6323    Y=             -1.1128    Z=              2.5101  Tot=              4.5533
 Quadrupole moment (field-independent basis, Debye-Ang):
   XX=           -101.9329   YY=            -90.4451   ZZ=            -94.2444
   XY=             -9.2128   XZ=             23.5228   YZ=              1.8349

  Exact polarizability: 157.353   3.555  83.532  -4.471 -11.756 135.297
 Approx polarizability: 209.616   2.807 123.308 -11.602 -10.552 212.055

                      1                      2                      3
                      A                      A                      A
 Frequencies --     25.1802                32.3435                57.1177
 Red. masses --      3.3060                 6.0162                 4.5225
 Frc consts  --      0.0012                 0.0037                 0.0087
 IR Inten    --      1.4715                 1.2883                 1.9337

                      4                      5                      6
                      A                      A                      A
 Frequencies --     61.5343                75.9715                80.8582
 Red. masses --      6.6962                 2.6364                 4.8754
 Frc consts  --      0.0149                 0.0090                 0.0188
 IR Inten    --      0.6624                 1.9351                 1.0247

                      7                      8                      9
                      A                      A                      A
 Frequencies --     91.1044               132.2905               136.8198
 Red. masses --      6.3488                 5.5998                 4.1767
 Frc consts  --      0.0310                 0.0577                 0.0461
 IR Inten    --      7.6538                 3.7454                 8.4224

                     10                     11                     12
                      A                      A                      A
 Frequencies --    190.5075               232.5398               250.2472
 Red. masses --      5.0982                 3.3280                 1.5684
 Frc consts  --      0.1090                 0.1060                 0.0579
 IR Inten    --      1.3450                12.0213                46.1676

                     13                     14                     15
                      A                      A                      A
 Frequencies --    281.3621               289.7523               316.5719
 Red. masses --      2.7892                 2.9021                 4.2228
 Frc consts  --      0.1301                 0.1436                 0.2493
 IR Inten    --     12.0544                10.7654                 5.3896

                     16                     17                     18
                      A                      A                      A
 Frequencies --    355.7398               395.2600               425.9035
 Red. masses --      6.5746                 4.2766                 3.4463
 Frc consts  --      0.4902                 0.3937                 0.3683
 IR Inten    --      0.5966                 6.2080                 3.9895

                     19                     20                     21
                      A                      A                      A
 Frequencies --    533.2330               565.5841               596.2155
 Red. masses --      2.5471                 1.6075                 1.6233
 Frc consts  --      0.4267                 0.3030                 0.3400
 IR Inten    --     68.9246                31.9179                70.8623

                     22                     23                     24
                      A                      A                      A
 Frequencies --    633.8198               644.1440               651.4991
 Red. masses --      3.6863                 3.5897                 1.9929
 Frc consts  --      0.8725                 0.8775                 0.4984
 IR Inten    --     30.6201                 9.8604                 4.2857

                     25                     26                     27
                      A                      A                      A
 Frequencies --    675.6834               714.9117               752.3014
 Red. masses --      3.7449                 3.1061                 4.9897
 Frc consts  --      1.0073                 0.9353                 1.6638
 IR Inten    --     43.7246                31.7284                15.7547

                     28                     29                     30
                      A                      A                      A
 Frequencies --    774.9333               780.2075               800.3765
 Red. masses --      3.3886                 1.1294                 1.2923
 Frc consts  --      1.1989                 0.4051                 0.4877
 IR Inten    --     20.8394                36.4739                 8.9293

                     31                     32                     33
                      A                      A                      A
 Frequencies --    811.9396               842.6387               868.0869
 Red. masses --      1.4016                 1.3251                 1.6302
 Frc consts  --      0.5444                 0.5543                 0.7238
 IR Inten    --     19.0486                24.7817                94.2689

                     34                     35                     36
                      A                      A                      A
 Frequencies --    868.8818               937.8486               942.9725
 Red. masses --      1.8398                 5.9919                 3.6339
 Frc consts  --      0.8184                 3.1051                 1.9038
 IR Inten    --     68.2703                20.3490                 6.5149

                     37                     38                     39
                      A                      A                      A
 Frequencies --    979.9071               990.6032              1023.5331
 Red. masses --      2.9606                 2.7314                 3.4047
 Frc consts  --      1.6749                 1.5792                 2.1015
 IR Inten    --      1.9109                 4.7047                 7.5971

                     40                     41                     42
                      A                      A                      A
 Frequencies --   1025.4426              1054.9089              1097.0306
 Red. masses --      3.4630                 2.3034                 2.4937
 Frc consts  --      2.1455                 1.5102                 1.7682
 IR Inten    --     21.2252                 3.6502                40.0883

                     43                     44                     45
                      A                      A                      A
 Frequencies --   1137.5305              1142.6696              1158.9806
 Red. masses --      2.7245                 1.9307                 1.7988
 Frc consts  --      2.0771                 1.4852                 1.4236
 IR Inten    --     38.8087                45.8685                 4.4811

                     46                     47                     48
                      A                      A                      A
 Frequencies --   1161.9958              1188.5815              1212.3025
 Red. masses --      1.3142                 2.3533                 1.2392
 Frc consts  --      1.0455                 1.9587                 1.0730
 IR Inten    --     14.3893               166.1120                11.6390

                     49                     50                     51
                      A                      A                      A
 Frequencies --   1239.9610              1272.5702              1281.8624
 Red. masses --      1.5450                 1.7543                 1.5713
 Frc consts  --      1.3995                 1.6739                 1.5212
 IR Inten    --     19.4723                 5.8307                 8.7641

                     52                     53                     54
                      A                      A                      A
 Frequencies --   1289.9752              1304.5670              1319.3677
 Red. masses --      1.4175                 1.3418                 1.2224
 Frc consts  --      1.3897                 1.3455                 1.2537
 IR Inten    --     20.5630                 4.2825                 0.4841

                     55                     56                     57
                      A                      A                      A
 Frequencies --   1335.5991              1364.5238              1372.2771
 Red. masses --      1.3535                 1.4552                 1.4485
 Frc consts  --      1.4226                 1.5964                 1.6072
 IR Inten    --      2.6594                33.2314                 8.7821

                     58                     59                     60
                      A                      A                      A
 Frequencies --   1396.8294              1424.7589              1435.9822
 Red. masses --      3.9023                 2.5325                 1.4789
 Frc consts  --      4.4860                 3.0289                 1.7968
 IR Inten    --     21.3403               103.6538                49.1042

                     61                     62                     63
                      A                      A                      A
 Frequencies --   1459.6543              1485.8485              1487.6137
 Red. masses --      2.4033                 1.1431                 1.1259
 Frc consts  --      3.0169                 1.4870                 1.4680
 IR Inten    --     68.4693                16.3485                 7.9423

                     64                     65                     66
                      A                      A                      A
 Frequencies --   1518.8888              1532.8850              1549.8415
 Red. masses --      3.5459                 1.0866                 2.4651
 Frc consts  --      4.8197                 1.5043                 3.4886
 IR Inten    --     23.4371                 1.5213               332.0913

                     67                     68                     69
                      A                      A                      A
 Frequencies --   1623.2384              1669.2357              1739.3404
 Red. masses --      4.1676                 1.0898                 8.9481
 Frc consts  --      6.4699                 1.7892                15.9496
 IR Inten    --     16.8660                24.8182               216.6279

                     70                     71                     72
                      A                      A                      A
 Frequencies --   1831.3847              3010.0634              3037.2737
 Red. masses --      9.8255                 1.0660                 1.0669
 Frc consts  --     19.4161                 5.6905                 5.7987
 IR Inten    --    259.7966                35.2959                 8.7106

                     73                     74                     75
                      A                      A                      A
 Frequencies --   3048.6440              3068.6627              3080.2937
 Red. masses --      1.0664                 1.0938                 1.0842
 Frc consts  --      5.8394                 6.0688                 6.0608
 IR Inten    --     20.7218                24.2237                 8.8697

                     76                     77                     78
                      A                      A                      A
 Frequencies --   3103.4640              3110.5076              3244.7360
 Red. masses --      1.1001                 1.0979                 1.0958
 Frc consts  --      6.2427                 6.2586                 6.7971
 IR Inten    --     26.4961                10.1358                11.3157

                     79                     80                     81
                      A                      A                      A
 Frequencies --   3256.9750              3485.5084              3488.2630
 Red. masses --      1.0968                 1.0504                 1.0855
 Frc consts  --      6.8549                 7.5188                 7.7821
 IR Inten    --      2.9666                 2.5713               474.3058

                     82                     83                     84
                      A                      A                      A
 Frequencies --   3571.4722              3598.9512              3753.2985
 Red. masses --      1.0918                 1.0779                 1.0643
 Frc consts  --      8.2052                 8.2259                 8.8336
 IR Inten    --      0.0876                84.5380                78.5493

 - Thermochemistry -
 -------------------
 Temperature   298.150 Kelvin.  Pressure   1.00000 Atm.
 Atom     1 has atomic number  8 and mass  15.99491

 Molecular mass:   226.10659 amu.
 Principal axes and moments of inertia in atomic units:
                           1         2         3
     Eigenvalues --  2757.904475869.748808246.20290
           X            0.98536   0.16129  -0.05521
           Y            0.11613  -0.39797   0.91002
           Z           -0.12480   0.90311   0.41088
 This molecule is an asymmetric top.
 Rotational symmetry number  1.
 Warning -- assumption of classical behavior for rotation
           may cause significant error
 Rotational temperatures (Kelvin)      0.03141     0.01476     0.01050
 Rotational constants (GHZ):           0.65439     0.30746     0.21886
 Zero-point vibrational energy     644752.4 (Joules/Mol)
                                  154.09952 (Kcal/Mol)
 Warning -- explicit consideration of  21 degrees of freedom as
           vibrations may cause significant error
 Vibrational temperatures:     36.23    46.54    82.18    88.53   109.31
          (Kelvin)            116.34   131.08   190.34   196.85   274.10
                              334.57   360.05   404.82   416.89   455.48
                              511.83   568.69   612.78   767.20   813.75
                              857.82   911.92   926.78   937.36   972.16
                             1028.60  1082.39  1114.95  1122.54  1151.56
                             1168.20  1212.37  1248.98  1250.13  1349.35
                             1356.73  1409.87  1425.26  1472.63  1475.38
                             1517.78  1578.38  1636.65  1644.04  1667.51
                             1671.85  1710.10  1744.23  1784.03  1830.94
                             1844.31  1855.98  1876.98  1898.27  1921.63
                             1963.24  1974.40  2009.72  2049.91  2066.06
                             2100.11  2137.80  2140.34  2185.34  2205.48
                             2229.87  2335.48  2401.65  2502.52  2634.95
                             4330.80  4369.95  4386.31  4415.12  4431.85
                             4465.19  4475.32  4668.45  4686.05  5014.86
                             5018.83  5138.55  5178.08  5400.15

 Zero-point correction=                           0.245573 (Hartree/Particle)
 Thermal correction to Energy=                    0.261603
 Thermal correction to Enthalpy=                  0.262548
 Thermal correction to Gibbs Free Energy=         0.199382
 Sum of electronic and zero-point Energies=           -795.872083
 Sum of electronic and thermal Energies=              -795.856053
 Sum of electronic and thermal Enthalpies=            -795.855108
 Sum of electronic and thermal Free Energies=         -795.918274

                     E (Thermal)             CV                S
                      KCal/Mol        Cal/Mol-Kelvin    Cal/Mol-Kelvin
 Total                  164.159             57.938            132.943
 Electronic               0.000              0.000              0.000
 Translational            0.889              2.981             42.150
 Rotational               0.889              2.981             33.256
 Vibrational            162.381             51.976             57.536
 Vibration     1          0.593              1.985              6.177
 Vibration     2          0.594              1.983              5.680
 Vibration     3          0.596              1.975              4.554
 Vibration     4          0.597              1.973              4.407
 Vibration     5          0.599              1.965              3.992
 Vibration     6          0.600              1.962              3.870
 Vibration     7          0.602              1.956              3.636
 Vibration     8          0.612              1.921              2.912
 Vibration     9          0.614              1.917              2.848
 Vibration    10          0.634              1.853              2.223
 Vibration    11          0.653              1.791              1.859
 Vibration    12          0.663              1.762              1.729
 Vibration    13          0.681              1.708              1.525
 Vibration    14          0.686              1.693              1.475
 Vibration    15          0.703              1.642              1.328
 Vibration    16          0.731              1.563              1.141
 Vibration    17          0.762              1.480              0.980
 Vibration    18          0.788              1.414              0.872
 Vibration    19          0.888              1.176              0.580
 Vibration    20          0.921              1.106              0.513
 Vibration    21          0.954              1.040              0.456

 Optimization completed.
    -- Stationary point found.
 Normal termination of Gaussian 09 at Wed Jul 28 23:11:21 2021.
