 Gaussian 09, Revision D.01,
 Gaussian 09:  ES64L-G09RevD.01 24-Apr-2013

 ----------------------------------------------------------------------
 # B3LYP/6-31G(d,p) opt=calcfc freq=noraman nosymm integral(ultrafinegr
 id)
 ----------------------------------------------------------------------

 ------------------------------------------------------------
 Candidate Structure: Conf:150 OPT and FREQ calc in gas phase
 ------------------------------------------------------------
 Symbolic Z-matrix:
 Charge =  0 Multiplicity = 1

 SCF Done:  E(RB3LYP) =  -796.111568573     A.U. after   14 cycles
 SCF Done:  E(RB3LYP) =  -796.113065990     A.U. after   14 cycles
 SCF Done:  E(RB3LYP) =  -796.108838434     A.U. after   14 cycles
 SCF Done:  E(RB3LYP) =  -796.113267763     A.U. after   10 cycles
 SCF Done:  E(RB3LYP) =  -796.113884556     A.U. after   12 cycles
 SCF Done:  E(RB3LYP) =  -796.113455777     A.U. after   12 cycles
 SCF Done:  E(RB3LYP) =  -796.113886772     A.U. after    8 cycles
 SCF Done:  E(RB3LYP) =  -796.113970394     A.U. after   11 cycles
 SCF Done:  E(RB3LYP) =  -796.114009899     A.U. after   11 cycles
 SCF Done:  E(RB3LYP) =  -796.114014383     A.U. after   10 cycles
 SCF Done:  E(RB3LYP) =  -796.114014742     A.U. after    8 cycles
 SCF Done:  E(RB3LYP) =  -796.114014802     A.U. after    7 cycles
 Optimization completed.
    -- Stationary point found.
 Normal termination of Gaussian 09 at Wed Jul 28 22:36:28 2021.

 ----------------------------------------------------------------------
 #N Geom=AllCheck Guess=TCheck SCRF=Check GenChk RB3LYP/6-31G(d,p) Freq
 ----------------------------------------------------------------------

 Structure from the checkpoint file:  "conf-150.chk"
 ------------------------------------------------------------
 Candidate Structure: Conf:150 OPT and FREQ calc in gas phase
 ------------------------------------------------------------
 Charge =  0 Multiplicity = 1

                          Input orientation:
 ---------------------------------------------------------------------
 Center     Atomic      Atomic             Coordinates (Angstroms)
 Number     Number       Type             X           Y           Z
 ---------------------------------------------------------------------
      1          8           0       -1.137542   -1.878698   -0.784034
      2          6           0       -1.295702   -0.737029   -0.363772
      3          7           0       -0.373406   -0.135529    0.454930
      4          6           0        0.722419   -0.905868    1.021397
      5          6           0        1.107574   -0.254573    2.340974
      6          8           0        2.099416   -0.920810    2.958811
      7          8           0        0.589416    0.744023    2.794525
      8          6           0        1.938899   -1.032723    0.062362
      9          6           0        2.638471    0.253945   -0.232334
     10          6           0        3.884259    0.727513    0.112411
     11          7           0        4.096764    1.992317   -0.389332
     12          6           0        2.990388    2.293444   -1.033413
     13          7           0        2.076735    1.278770   -0.974534
     14          6           0       -2.485437    0.129690   -0.759425
     15          6           0       -3.741142   -0.704324   -1.023000
     16          7           0       -4.795964    0.143422   -1.585447
     17          1           0       -0.619508    0.701117    0.971116
     18          1           0        0.369145   -1.924370    1.227725
     19          1           0        2.302681   -0.428665    3.772480
     20          1           0        1.560027   -1.507373   -0.849215
     21          1           0        2.657242   -1.723377    0.511327
     22          1           0        4.641506    0.214911    0.690274
     23          1           0        2.793536    3.218625   -1.557650
     24          1           0        1.143342    1.275620   -1.356385
     25          1           0       -2.233265    0.666520   -1.682945
     26          1           0       -2.676369    0.895463    0.003644
     27          1           0       -3.484923   -1.477352   -1.752159
     28          1           0       -4.025323   -1.232409   -0.096537
     29          1           0       -5.165983    0.762439   -0.866748
     30          1           0       -5.576947   -0.435110   -1.884510
 ---------------------------------------------------------------------

 SCF Done:  E(RB3LYP) =  -796.114014802     A.U. after    1 cycles

 Alpha  occ. eigenvalues --  -19.21927 -19.16425 -19.12479 -14.38715 -14.37104
 Alpha  occ. eigenvalues --  -14.31871 -14.30637 -10.34322 -10.29777 -10.25590
 Alpha  occ. eigenvalues --  -10.23501 -10.21695 -10.21440 -10.21075 -10.20183
 Alpha  occ. eigenvalues --  -10.19190  -1.12987  -1.04524  -1.03868  -1.00792
 Alpha  occ. eigenvalues --   -0.93637  -0.88559  -0.86496  -0.80873  -0.76406
 Alpha  occ. eigenvalues --   -0.73783  -0.68206  -0.64807  -0.61151  -0.60580
 Alpha  occ. eigenvalues --   -0.59383  -0.58384  -0.53284  -0.53068  -0.50830
 Alpha  occ. eigenvalues --   -0.49875  -0.49271  -0.48191  -0.46745  -0.45512
 Alpha  occ. eigenvalues --   -0.44892  -0.43675  -0.43113  -0.41990  -0.41610
 Alpha  occ. eigenvalues --   -0.40159  -0.40035  -0.39484  -0.38581  -0.38186
 Alpha  occ. eigenvalues --   -0.35852  -0.34949  -0.34086  -0.30150  -0.27642
 Alpha  occ. eigenvalues --   -0.27298  -0.26173  -0.26008  -0.24184  -0.22001
 Alpha virt. eigenvalues --   -0.01203   0.01196   0.02814   0.05877   0.06416
 Alpha virt. eigenvalues --    0.07223   0.07597   0.09475   0.12138   0.13429
 Alpha virt. eigenvalues --    0.13715   0.14362   0.14929   0.15535   0.15640

 Mulliken charges:
               1
     1  O   -0.519556
     2  C    0.581982
     3  N   -0.553306
     4  C    0.009559
     5  C    0.595364
     6  O   -0.479041
     7  O   -0.474424
     8  C   -0.246183
     9  C    0.274203
    10  C   -0.013316
    11  N   -0.442120
    12  C    0.261280
    13  N   -0.525397
    14  C   -0.255384
    15  C   -0.054013
    16  N   -0.607693
    17  H    0.280600
    18  H    0.157374
    19  H    0.333841
    20  H    0.146545
    21  H    0.134389
    22  H    0.086217
    23  H    0.110767
    24  H    0.263089
    25  H    0.142631
    26  H    0.095736
    27  H    0.135625
    28  H    0.084686
    29  H    0.234673
    30  H    0.241874
 Sum of Mulliken charges =   0.00000

 Dipole moment (field-independent basis, Debye):
    X=             -3.2847    Y=             -0.3648    Z=              1.6968  Tot=              3.7150
 Quadrupole moment (field-independent basis, Debye-Ang):
   XX=            -97.0218   YY=            -99.4138   ZZ=            -88.8786
   XY=            -10.4531   XZ=              2.8347   YZ=             -6.3435

  Exact polarizability: 145.494   6.558 119.082  20.941  -6.380 104.291
 Approx polarizability: 191.362   1.715 200.222  27.737  -0.999 151.613

                      1                      2                      3
                      A                      A                      A
 Frequencies --     23.7738                34.6851                47.9416
 Red. masses --      3.7800                 3.8738                 5.3144
 Frc consts  --      0.0013                 0.0027                 0.0072
 IR Inten    --      0.6705                 2.5363                 9.2224

                      4                      5                      6
                      A                      A                      A
 Frequencies --     52.1400                62.7354                70.6138
 Red. masses --      3.6335                 5.1832                 6.6630
 Frc consts  --      0.0058                 0.0120                 0.0196
 IR Inten    --      1.8699                 0.7236                 2.4467

                      7                      8                      9
                      A                      A                      A
 Frequencies --     76.0797               123.5374               129.8512
 Red. masses --      4.0617                 4.6447                 4.1564
 Frc consts  --      0.0139                 0.0418                 0.0413
 IR Inten    --      1.1876                 4.1441                 4.8940

                     10                     11                     12
                      A                      A                      A
 Frequencies --    188.2002               220.6028               252.0611
 Red. masses --      5.1936                 3.5520                 3.0002
 Frc consts  --      0.1084                 0.1018                 0.1123
 IR Inten    --      1.5054                16.2498                10.9495

                     13                     14                     15
                      A                      A                      A
 Frequencies --    269.3800               309.3369               330.2182
 Red. masses --      1.5714                 4.8290                 5.9416
 Frc consts  --      0.0672                 0.2723                 0.3817
 IR Inten    --     50.9255                 1.6569                 2.9571

                     16                     17                     18
                      A                      A                      A
 Frequencies --    366.7036               398.2151               474.6419
 Red. masses --      2.3672                 3.6103                 3.2176
 Frc consts  --      0.1876                 0.3373                 0.4271
 IR Inten    --      3.1813                 6.6407                14.4096

                     19                     20                     21
                      A                      A                      A
 Frequencies --    504.8519               541.6264               582.2678
 Red. masses --      1.3669                 3.3905                 1.7720
 Frc consts  --      0.2053                 0.5860                 0.3540
 IR Inten    --    125.1205                19.3514                16.5689

                     22                     23                     24
                      A                      A                      A
 Frequencies --    594.5766               620.7327               644.0124
 Red. masses --      3.6015                 2.0289                 1.9524
 Frc consts  --      0.7502                 0.4606                 0.4771
 IR Inten    --     33.3816                83.7774                 6.4698

                     25                     26                     27
                      A                      A                      A
 Frequencies --    659.3596               684.0888               704.6669
 Red. masses --      2.0693                 2.6504                 3.0156
 Frc consts  --      0.5301                 0.7308                 0.8823
 IR Inten    --     21.0594                 1.3031                59.4228

                     28                     29                     30
                      A                      A                      A
 Frequencies --    735.8991               779.0746               803.0772
 Red. masses --      4.1298                 2.6691                 1.3602
 Frc consts  --      1.3177                 0.9545                 0.5168
 IR Inten    --     15.3179                27.9123                 9.8199

                     31                     32                     33
                      A                      A                      A
 Frequencies --    808.1074               847.1941               863.3581
 Red. masses --      1.5101                 1.4214                 1.5366
 Frc consts  --      0.5810                 0.6011                 0.6748
 IR Inten    --     13.6572                17.7134               110.1876

                     34                     35                     36
                      A                      A                      A
 Frequencies --    875.6652               922.4951               934.0511
 Red. masses --      2.1862                 3.6666                 4.9185
 Frc consts  --      0.9877                 1.8384                 2.5283
 IR Inten    --     18.8924                 9.8278                14.8176

                     37                     38                     39
                      A                      A                      A
 Frequencies --    971.7516               989.1479              1022.8699
 Red. masses --      3.0647                 2.0775                 2.8020
 Frc consts  --      1.7051                 1.1976                 1.7273
 IR Inten    --      7.5030                 4.9832                25.3476

                     40                     41                     42
                      A                      A                      A
 Frequencies --   1028.7375              1066.9953              1099.8317
 Red. masses --      3.0544                 2.6769                 1.9868
 Frc consts  --      1.9045                 1.7956                 1.4160
 IR Inten    --      0.8615                21.2742                23.0310

                     43                     44                     45
                      A                      A                      A
 Frequencies --   1113.8067              1120.0266              1152.4801
 Red. masses --      1.5601                 2.3411                 1.9839
 Frc consts  --      1.1403                 1.7303                 1.5525
 IR Inten    --     18.6448                43.2599                11.1695

                     46                     47                     48
                      A                      A                      A
 Frequencies --   1163.2869              1189.8885              1213.1999
 Red. masses --      1.5414                 2.1556                 1.3792
 Frc consts  --      1.2290                 1.7981                 1.1960
 IR Inten    --     29.7171               189.6292                 1.3806

                     49                     50                     51
                      A                      A                      A
 Frequencies --   1235.7768              1257.2778              1267.8092
 Red. masses --      1.7501                 1.6055                 1.8901
 Frc consts  --      1.5747                 1.4953                 1.7900
 IR Inten    --     36.1255                 6.0977                 5.2754

                     52                     53                     54
                      A                      A                      A
 Frequencies --   1273.7996              1296.6304              1320.7017
 Red. masses --      1.5953                 1.3187                 1.4195
 Frc consts  --      1.5251                 1.3063                 1.4588
 IR Inten    --     21.5731                 8.4666                 3.9819

                     55                     56                     57
                      A                      A                      A
 Frequencies --   1342.9531              1368.9361              1384.0437
 Red. masses --      1.1180                 1.4975                 1.7190
 Frc consts  --      1.1880                 1.6534                 1.9402
 IR Inten    --      6.6919                 5.8475                 6.8847

                     58                     59                     60
                      A                      A                      A
 Frequencies --   1398.4658              1422.4379              1436.7325
 Red. masses --      2.3861                 2.5719                 1.6284
 Frc consts  --      2.7494                 3.0660                 1.9805
 IR Inten    --     25.6522               155.2923                48.3340

                     61                     62                     63
                      A                      A                      A
 Frequencies --   1440.5531              1481.7983              1493.3106
 Red. masses --      2.9257                 1.0945                 1.1460
 Frc consts  --      3.5772                 1.4159                 1.5056
 IR Inten    --     29.8630                 7.7517                14.0182

                     64                     65                     66
                      A                      A                      A
 Frequencies --   1515.3036              1526.2166              1529.1137
 Red. masses --      3.4949                 2.2157                 1.0866
 Frc consts  --      4.7281                 3.0409                 1.4969
 IR Inten    --    127.1390               199.3958                 0.5344

                     67                     68                     69
                      A                      A                      A
 Frequencies --   1622.2924              1671.6352              1768.0717
 Red. masses --      4.5946                 1.0905                 9.8344
 Frc consts  --      7.1245                 1.7954                18.1133
 IR Inten    --      8.4464                21.1061               204.7784

                     70                     71                     72
                      A                      A                      A
 Frequencies --   1834.9038              2965.2994              3034.6616
 Red. masses --      9.9900                 1.0741                 1.0606
 Frc consts  --     19.8172                 5.5648                 5.7547
 IR Inten    --    197.4826                68.7617                17.8461

                     73                     74                     75
                      A                      A                      A
 Frequencies --   3051.8368              3068.4485              3075.0151
 Red. masses --      1.0816                 1.0653                 1.0999
 Frc consts  --      5.9351                 5.9094                 6.1278
 IR Inten    --     10.4071                10.5572                12.2158

                     76                     77                     78
                      A                      A                      A
 Frequencies --   3112.6307              3124.7481              3250.2098
 Red. masses --      1.0906                 1.1007                 1.0956
 Frc consts  --      6.2257                 6.3324                 6.8192
 IR Inten    --     17.8239                 6.8014                 8.3735

                     79                     80                     81
                      A                      A                      A
 Frequencies --   3258.9198              3487.7556              3572.4454
 Red. masses --      1.0973                 1.0503                 1.0919
 Frc consts  --      6.8662                 7.5277                 8.2100
 IR Inten    --      1.4019                 1.5879                 0.0955

                     82                     83                     84
                      A                      A                      A
 Frequencies --   3588.7370              3667.9714              3754.0108
 Red. masses --      1.0774                 1.0811                 1.0643
 Frc consts  --      8.1752                 8.5700                 8.8369
 IR Inten    --     68.0700                50.2940                74.7058

 - Thermochemistry -
 -------------------
 Temperature   298.150 Kelvin.  Pressure   1.00000 Atm.
 Atom     1 has atomic number  8 and mass  15.99491

 Molecular mass:   226.10659 amu.
 Principal axes and moments of inertia in atomic units:
                           1         2         3
     Eigenvalues --  2270.949836450.847877528.76467
           X            0.95674  -0.10273  -0.27221
           Y            0.19103  -0.48387   0.85404
           Z            0.21945   0.86909   0.44332
 This molecule is an asymmetric top.
 Rotational symmetry number  1.
 Warning -- assumption of classical behavior for rotation
           may cause significant error
 Rotational temperatures (Kelvin)      0.03814     0.01343     0.01150
 Rotational constants (GHZ):           0.79471     0.27977     0.23971
 Zero-point vibrational energy     643407.3 (Joules/Mol)
                                  153.77803 (Kcal/Mol)
 Warning -- explicit consideration of  23 degrees of freedom as
           vibrations may cause significant error
 Vibrational temperatures:     34.21    49.90    68.98    75.02    90.26
          (Kelvin)            101.60   109.46   177.74   186.83   270.78
                              317.40   362.66   387.58   445.07   475.11
                              527.60   572.94   682.90   726.37   779.28
                              837.75   855.46   893.09   926.59   948.67
                              984.25  1013.86  1058.79  1120.91  1155.45
                             1162.68  1218.92  1242.18  1259.89  1327.26
                             1343.89  1398.13  1423.16  1471.68  1480.12
                             1535.17  1582.41  1602.52  1611.47  1658.16
                             1673.71  1711.98  1745.52  1778.00  1808.94
                             1824.09  1832.71  1865.56  1900.19  1932.21
                             1969.59  1991.33  2012.08  2046.57  2067.14
                             2072.63  2131.97  2148.54  2180.18  2195.88
                             2200.05  2334.11  2405.11  2543.86  2640.01
                             4266.40  4366.20  4390.91  4414.81  4424.26
                             4478.38  4495.81  4676.32  4688.85  5018.10
                             5139.95  5163.39  5277.39  5401.18

 Zero-point correction=                           0.245061 (Hartree/Particle)
 Thermal correction to Energy=                    0.261310
 Thermal correction to Enthalpy=                  0.262254
 Thermal correction to Gibbs Free Energy=         0.198183
 Sum of electronic and zero-point Energies=           -795.868954
 Sum of electronic and thermal Energies=              -795.852705
 Sum of electronic and thermal Enthalpies=            -795.851760
 Sum of electronic and thermal Free Energies=         -795.915832

                     E (Thermal)             CV                S
                      KCal/Mol        Cal/Mol-Kelvin    Cal/Mol-Kelvin
 Total                  163.975             58.450            134.850
 Electronic               0.000              0.000              0.000
 Translational            0.889              2.981             42.150
 Rotational               0.889              2.981             33.067
 Vibrational            162.197             52.488             59.633
 Vibration     1          0.593              1.985              6.291
 Vibration     2          0.594              1.983              5.542
 Vibration     3          0.595              1.978              4.901
 Vibration     4          0.596              1.977              4.735
 Vibration     5          0.597              1.972              4.369
 Vibration     6          0.598              1.968              4.136
 Vibration     7          0.599              1.965              3.990
 Vibration     8          0.610              1.929              3.044
 Vibration     9          0.612              1.923              2.948
 Vibration    10          0.633              1.856              2.245
 Vibration    11          0.647              1.810              1.954
 Vibration    12          0.664              1.759              1.716
 Vibration    13          0.674              1.730              1.600
 Vibration    14          0.699              1.656              1.366
 Vibration    15          0.713              1.615              1.259
 Vibration    16          0.740              1.541              1.094
 Vibration    17          0.764              1.474              0.969
 Vibration    18          0.831              1.306              0.725
 Vibration    19          0.860              1.239              0.646
 Vibration    20          0.897              1.158              0.562
 Vibration    21          0.939              1.070              0.481
 Vibration    22          0.952              1.043              0.459
 Vibration    23          0.981              0.988              0.415

 Normal termination of Gaussian 09 at Wed Jul 28 22:55:29 2021.
