 Gaussian 09, Revision D.01,
 Gaussian 09:  ES64L-G09RevD.01 24-Apr-2013

 ----------------------------------------------------------------------
 # B3LYP/6-31G(d,p) opt=calcfc freq=noraman nosymm integral(ultrafinegr
 id)
 ----------------------------------------------------------------------

 ------------------------------------------------------------
 Candidate Structure: Conf:273 OPT and FREQ calc in gas phase
 ------------------------------------------------------------
 Symbolic Z-matrix:
 Charge =  0 Multiplicity = 1

 SCF Done:  E(RB3LYP) =  -796.108649984     A.U. after   14 cycles
 SCF Done:  E(RB3LYP) =  -796.111317821     A.U. after   13 cycles
 SCF Done:  E(RB3LYP) =  -796.111809953     A.U. after   14 cycles
 SCF Done:  E(RB3LYP) =  -796.111937923     A.U. after   12 cycles
 SCF Done:  E(RB3LYP) =  -796.111480867     A.U. after   13 cycles
 SCF Done:  E(RB3LYP) =  -796.091025207     A.U. after   13 cycles
 SCF Done:  E(RB3LYP) =  -796.111963834     A.U. after    9 cycles
 SCF Done:  E(RB3LYP) =  -796.112002168     A.U. after   11 cycles
 SCF Done:  E(RB3LYP) =  -796.112003636     A.U. after    9 cycles
 SCF Done:  E(RB3LYP) =  -796.112003817     A.U. after    7 cycles
 SCF Done:  E(RB3LYP) =  -796.112003895     A.U. after    7 cycles
 Optimization completed.
    -- Stationary point found.
 Normal termination of Gaussian 09 at Wed Jul 28 22:34:23 2021.

 ----------------------------------------------------------------------
 #N Geom=AllCheck Guess=TCheck SCRF=Check GenChk RB3LYP/6-31G(d,p) Freq
 ----------------------------------------------------------------------

 Structure from the checkpoint file:  "conf-273.chk"
 ------------------------------------------------------------
 Candidate Structure: Conf:273 OPT and FREQ calc in gas phase
 ------------------------------------------------------------
 Charge =  0 Multiplicity = 1

                          Input orientation:
 ---------------------------------------------------------------------
 Center     Atomic      Atomic             Coordinates (Angstroms)
 Number     Number       Type             X           Y           Z
 ---------------------------------------------------------------------
      1          8           0        0.722502   -1.732124    1.593313
      2          6           0        0.896727   -0.673840    0.968924
      3          7           0        0.296429   -0.448888   -0.226363
      4          6           0       -0.800212   -1.284473   -0.741177
      5          6           0       -0.280630   -2.640493   -1.295017
      6          8           0        0.368634   -3.404130   -0.418612
      7          8           0       -0.480977   -2.985042   -2.438234
      8          6           0       -1.570764   -0.541975   -1.835155
      9          6           0       -2.164167    0.762400   -1.393759
     10          6           0       -2.353909    1.367069   -0.170380
     11          7           0       -2.992446    2.581578   -0.304415
     12          6           0       -3.194161    2.721361   -1.594413
     13          7           0       -2.710347    1.654479   -2.300970
     14          6           0        1.777621    0.435115    1.511227
     15          6           0        2.993838   -0.106350    2.270071
     16          7           0        3.714042    0.999925    2.903319
     17          1           0        0.396438    0.466861   -0.642424
     18          1           0       -1.466963   -1.514317    0.101669
     19          1           0        0.453485   -2.932946    0.453767
     20          1           0       -2.346183   -1.225527   -2.197846
     21          1           0       -0.898957   -0.396163   -2.691000
     22          1           0       -2.068890    0.993272    0.803154
     23          1           0       -3.675233    3.562065   -2.075212
     24          1           0       -2.759264    1.525497   -3.300674
     25          1           0        2.090166    1.105715    0.700984
     26          1           0        1.178331    1.038531    2.204533
     27          1           0        2.632417   -0.781423    3.050117
     28          1           0        3.604871   -0.718215    1.584376
     29          1           0        4.421135    0.632897    3.534839
     30          1           0        4.216432    1.539443    2.201397
 ---------------------------------------------------------------------

 SCF Done:  E(RB3LYP) =  -796.112003895     A.U. after    1 cycles

 Alpha  occ. eigenvalues --  -19.17346 -19.14909 -19.12974 -14.40168 -14.39268
 Alpha  occ. eigenvalues --  -14.32359 -14.31946 -10.31771 -10.31513 -10.26159
 Alpha  occ. eigenvalues --  -10.24817 -10.23383 -10.22230 -10.22179 -10.21184
 Alpha  occ. eigenvalues --  -10.20636  -1.09166  -1.06266  -1.02200  -1.00784
 Alpha  occ. eigenvalues --   -0.95391  -0.89150  -0.87919  -0.81819  -0.77421
 Alpha  occ. eigenvalues --   -0.74259  -0.68033  -0.64448  -0.62343  -0.61085
 Alpha  occ. eigenvalues --   -0.59850  -0.59284  -0.55835  -0.53095  -0.52694
 Alpha  occ. eigenvalues --   -0.51325  -0.49820  -0.47064  -0.45980  -0.45521
 Alpha  occ. eigenvalues --   -0.44151  -0.43961  -0.43190  -0.42466  -0.42260
 Alpha  occ. eigenvalues --   -0.41475  -0.41265  -0.39737  -0.38974  -0.37041
 Alpha  occ. eigenvalues --   -0.36733  -0.35867  -0.30546  -0.30133  -0.28950
 Alpha  occ. eigenvalues --   -0.28482  -0.27406  -0.25928  -0.24665  -0.23386
 Alpha virt. eigenvalues --   -0.00903   0.01059   0.01531   0.05720   0.06362
 Alpha virt. eigenvalues --    0.06502   0.07090   0.09507   0.10649   0.12585
 Alpha virt. eigenvalues --    0.13107   0.13746   0.14137   0.15432   0.16478

 Mulliken charges:
               1
     1  O   -0.561820
     2  C    0.610461
     3  N   -0.522066
     4  C   -0.051314
     5  C    0.624529
     6  O   -0.507575
     7  O   -0.461888
     8  C   -0.257405
     9  C    0.261247
    10  C   -0.020435
    11  N   -0.443538
    12  C    0.264929
    13  N   -0.535612
    14  C   -0.252781
    15  C   -0.058359
    16  N   -0.605777
    17  H    0.276604
    18  H    0.150454
    19  H    0.360028
    20  H    0.153455
    21  H    0.129599
    22  H    0.091424
    23  H    0.117212
    24  H    0.267758
    25  H    0.100374
    26  H    0.161120
    27  H    0.138535
    28  H    0.089409
    29  H    0.244797
    30  H    0.236634
 Sum of Mulliken charges =   0.00000

 Dipole moment (field-independent basis, Debye):
    X=              1.5072    Y=              3.7667    Z=             -2.0190  Tot=              4.5317
 Quadrupole moment (field-independent basis, Debye-Ang):
   XX=            -81.2983   YY=           -115.4743   ZZ=            -90.4383
   XY=              5.0395   XZ=             13.4736   YZ=            -18.1169

  Exact polarizability: 109.454 -14.926 129.452  26.945   2.512 130.600
 Approx polarizability: 140.383 -17.945 187.559  21.498   0.087 216.594

                      1                      2                      3
                      A                      A                      A
 Frequencies --     26.4007                31.5214                47.1062
 Red. masses --      4.7978                 3.1148                 3.1539
 Frc consts  --      0.0020                 0.0018                 0.0041
 IR Inten    --      0.7619                 1.7678                 6.0771

                      4                      5                      6
                      A                      A                      A
 Frequencies --     62.8880                69.5063                84.3779
 Red. masses --      5.6816                 3.7260                 4.9232
 Frc consts  --      0.0132                 0.0106                 0.0207
 IR Inten    --      5.7737                 8.8584                 0.4415

                      7                      8                      9
                      A                      A                      A
 Frequencies --     88.1199               155.0390               169.8271
 Red. masses --      4.4799                 4.7223                 3.9614
 Frc consts  --      0.0205                 0.0669                 0.0673
 IR Inten    --      1.4640                13.2010                 2.7182

                     10                     11                     12
                      A                      A                      A
 Frequencies --    216.2419               229.1555               247.2545
 Red. masses --      6.7863                 4.2104                 1.7655
 Frc consts  --      0.1870                 0.1303                 0.0636
 IR Inten    --      5.5931                12.3100                13.8110

                     13                     14                     15
                      A                      A                      A
 Frequencies --    265.0465               283.7443               313.4785
 Red. masses --      1.9438                 3.3631                 6.2834
 Frc consts  --      0.0805                 0.1595                 0.3638
 IR Inten    --     23.8309                26.9638                 6.9870

                     16                     17                     18
                      A                      A                      A
 Frequencies --    358.6324               386.5560               438.1735
 Red. masses --      5.8083                 4.5142                 2.9705
 Frc consts  --      0.4401                 0.3974                 0.3360
 IR Inten    --      1.9488                 1.9766                 5.4425

                     19                     20                     21
                      A                      A                      A
 Frequencies --    474.9507               522.0869               542.5498
 Red. masses --      1.3009                 1.4805                 4.4101
 Frc consts  --      0.1729                 0.2378                 0.7649
 IR Inten    --     92.2859                78.6716                18.2367

                     22                     23                     24
                      A                      A                      A
 Frequencies --    619.2320               623.3779               649.1756
 Red. masses --      5.3651                 2.7198                 2.4558
 Frc consts  --      1.2121                 0.6227                 0.6098
 IR Inten    --     13.4592                15.0833                18.3054

                     25                     26                     27
                      A                      A                      A
 Frequencies --    679.4064               727.1646               752.2072
 Red. masses --      3.1217                 4.6333                 3.9788
 Frc consts  --      0.8490                 1.4435                 1.3264
 IR Inten    --      2.1474                 2.4974                 8.0763

                     28                     29                     30
                      A                      A                      A
 Frequencies --    769.4759               802.6814               806.4469
 Red. masses --      4.6520                 1.4506                 1.3659
 Frc consts  --      1.6229                 0.5507                 0.5234
 IR Inten    --     28.6083                 8.5741                14.0633

                     31                     32                     33
                      A                      A                      A
 Frequencies --    840.1080               859.5946               873.6017
 Red. masses --      1.3172                 1.3401                 2.3842
 Frc consts  --      0.5477                 0.5834                 1.0721
 IR Inten    --     10.3884               114.1164                12.3548

                     34                     35                     36
                      A                      A                      A
 Frequencies --    902.9943               930.8432               943.8476
 Red. masses --      1.1438                 5.7200                 3.3564
 Frc consts  --      0.5495                 2.9201                 1.7617
 IR Inten    --     96.5071                13.5519                 4.0456

                     37                     38                     39
                      A                      A                      A
 Frequencies --    967.7170              1001.8303              1025.2640
 Red. masses --      2.7502                 2.5358                 3.8928
 Frc consts  --      1.5174                 1.4995                 2.4109
 IR Inten    --      5.2112                 2.6717                 7.7095

                     40                     41                     42
                      A                      A                      A
 Frequencies --   1067.9317              1084.1719              1104.8949
 Red. masses --      2.7444                 2.3983                 2.1903
 Frc consts  --      1.8441                 1.6609                 1.5754
 IR Inten    --     23.7241                 8.6669                21.9213

                     43                     44                     45
                      A                      A                      A
 Frequencies --   1115.7921              1118.4175              1156.2242
 Red. masses --      2.1778                 1.9626                 2.2194
 Frc consts  --      1.5975                 1.4464                 1.7481
 IR Inten    --     11.5181                12.8668                14.1333

                     46                     47                     48
                      A                      A                      A
 Frequencies --   1163.3526              1202.7974              1230.5808
 Red. masses --      1.3467                 1.5876                 2.0864
 Frc consts  --      1.0739                 1.3533                 1.8615
 IR Inten    --      3.7123                14.1078                 7.0897

                     49                     50                     51
                      A                      A                      A
 Frequencies --   1243.5068              1269.2622              1286.8580
 Red. masses --      1.6884                 1.5469                 1.4205
 Frc consts  --      1.5382                 1.4683                 1.3860
 IR Inten    --     26.5536                12.2832                36.6572

                     52                     53                     54
                      A                      A                      A
 Frequencies --   1288.3848              1322.2976              1345.4195
 Red. masses --      1.4686                 1.9181                 1.1251
 Frc consts  --      1.4363                 1.9759                 1.1999
 IR Inten    --      2.9133                20.0677                 5.1797

                     55                     56                     57
                      A                      A                      A
 Frequencies --   1360.8352              1374.0650              1387.4394
 Red. masses --      1.6917                 1.5903                 1.5593
 Frc consts  --      1.8458                 1.7691                 1.7685
 IR Inten    --      1.9507                 9.9964                14.3972

                     58                     59                     60
                      A                      A                      A
 Frequencies --   1424.0794              1437.3470              1439.6657
 Red. masses --      2.3338                 1.5104                 2.9151
 Frc consts  --      2.7886                 1.8385                 3.5598
 IR Inten    --     11.2630                29.4514                18.1167

                     61                     62                     63
                      A                      A                      A
 Frequencies --   1474.3301              1477.6306              1489.4125
 Red. masses --      1.3811                 1.0938                 1.1322
 Frc consts  --      1.7687                 1.4071                 1.4798
 IR Inten    --    280.6116                 8.0147                16.7783

                     64                     65                     66
                      A                      A                      A
 Frequencies --   1518.6456              1528.9956              1546.4006
 Red. masses --      3.8821                 1.0844                 2.2779
 Frc consts  --      5.2751                 1.4936                 3.2094
 IR Inten    --     20.9289                 0.9444               345.2983

                     67                     68                     69
                      A                      A                      A
 Frequencies --   1619.6246              1672.5317              1714.6780
 Red. masses --      4.3032                 1.0931                 7.8333
 Frc consts  --      6.6507                 1.8015                13.5694
 IR Inten    --     10.7511                19.7415               214.8930

                     70                     71                     72
                      A                      A                      A
 Frequencies --   1855.5474              2966.2552              3031.7919
 Red. masses --      9.0479                 1.0740                 1.0820
 Frc consts  --     18.3545                 5.5678                 5.8595
 IR Inten    --    315.4548                66.0185                 4.2880

                     73                     74                     75
                      A                      A                      A
 Frequencies --   3041.1839              3046.2877              3082.8727
 Red. masses --      1.0608                 1.0665                 1.0995
 Frc consts  --      5.7805                 5.8314                 6.1568
 IR Inten    --     14.5752                16.2157                 5.5617

                     76                     77                     78
                      A                      A                      A
 Frequencies --   3084.2854              3113.7776              3255.5796
 Red. masses --      1.0974                 1.0914                 1.0806
 Frc consts  --      6.1507                 6.2348                 6.7482
 IR Inten    --      7.9114                16.7268               483.5615

                     79                     80                     81
                      A                      A                      A
 Frequencies --   3256.0457              3261.3024              3491.5768
 Red. masses --      1.0882                 1.0980                 1.0504
 Frc consts  --      6.7971                 6.8806                 7.5448
 IR Inten    --    249.9401                 0.2690                 0.9690

                     82                     83                     84
                      A                      A                      A
 Frequencies --   3576.9468              3623.0200              3656.6745
 Red. masses --      1.0920                 1.0781                 1.0812
 Frc consts  --      8.2315                 8.3374                 8.5179
 IR Inten    --      0.0085                44.0351                49.8069

 - Thermochemistry -
 -------------------
 Temperature   298.150 Kelvin.  Pressure   1.00000 Atm.
 Atom     1 has atomic number  8 and mass  15.99491

 Molecular mass:   226.10659 amu.
 Principal axes and moments of inertia in atomic units:
                           1         2         3
     Eigenvalues --  3080.034175557.165508090.95936
           X            0.79055   0.04655  -0.61062
           Y           -0.29268   0.90458  -0.30996
           Z            0.53793   0.42376   0.72874
 This molecule is an asymmetric top.
 Rotational symmetry number  1.
 Warning -- assumption of classical behavior for rotation
           may cause significant error
 Rotational temperatures (Kelvin)      0.02812     0.01559     0.01071
 Rotational constants (GHZ):           0.58595     0.32476     0.22306
 Zero-point vibrational energy     643569.1 (Joules/Mol)
                                  153.81670 (Kcal/Mol)
 Warning -- explicit consideration of  22 degrees of freedom as
           vibrations may cause significant error
 Vibrational temperatures:     37.98    45.35    67.78    90.48   100.00
          (Kelvin)            121.40   126.78   223.07   244.34   311.12
                              329.70   355.74   381.34   408.24   451.03
                              515.99   556.17   630.43   683.35   751.17
                              780.61   890.94   896.90   934.02   977.51
                             1046.23  1082.26  1107.10  1154.88  1160.30
                             1208.73  1236.76  1256.92  1299.21  1339.27
                             1357.98  1392.33  1441.41  1475.12  1536.51
                             1559.88  1589.70  1605.37  1609.15  1663.55
                             1673.80  1730.55  1770.53  1789.13  1826.18
                             1851.50  1853.70  1902.49  1935.76  1957.94
                             1976.97  1996.21  2048.93  2068.02  2071.36
                             2121.23  2125.98  2142.93  2184.99  2199.88
                             2224.92  2330.28  2406.40  2467.04  2669.72
                             4267.77  4362.07  4375.58  4382.92  4435.56
                             4437.59  4480.03  4684.05  4684.72  4692.28
                             5023.59  5146.42  5212.71  5261.13

 Zero-point correction=                           0.245123 (Hartree/Particle)
 Thermal correction to Energy=                    0.261160
 Thermal correction to Enthalpy=                  0.262104
 Thermal correction to Gibbs Free Energy=         0.198938
 Sum of electronic and zero-point Energies=           -795.866881
 Sum of electronic and thermal Energies=              -795.850844
 Sum of electronic and thermal Enthalpies=            -795.849900
 Sum of electronic and thermal Free Energies=         -795.913066

                     E (Thermal)             CV                S
                      KCal/Mol        Cal/Mol-Kelvin    Cal/Mol-Kelvin
 Total                  163.880             58.006            132.945
 Electronic               0.000              0.000              0.000
 Translational            0.889              2.981             42.150
 Rotational               0.889              2.981             33.293
 Vibrational            162.103             52.045             57.502
 Vibration     1          0.593              1.985              6.083
 Vibration     2          0.594              1.983              5.731
 Vibration     3          0.595              1.979              4.935
 Vibration     4          0.597              1.972              4.364
 Vibration     5          0.598              1.969              4.167
 Vibration     6          0.601              1.960              3.786
 Vibration     7          0.601              1.958              3.701
 Vibration     8          0.620              1.897              2.609
 Vibration     9          0.625              1.880              2.437
 Vibration    10          0.645              1.816              1.990
 Vibration    11          0.652              1.797              1.886
 Vibration    12          0.661              1.767              1.750
 Vibration    13          0.671              1.737              1.628
 Vibration    14          0.682              1.704              1.511
 Vibration    15          0.701              1.648              1.344
 Vibration    16          0.733              1.558              1.128
 Vibration    17          0.755              1.499              1.013
 Vibration    18          0.798              1.387              0.832
 Vibration    19          0.832              1.306              0.724
 Vibration    20          0.877              1.201              0.605
 Vibration    21          0.898              1.156              0.560
 Vibration    22          0.979              0.991              0.418

 Normal termination of Gaussian 09 at Wed Jul 28 22:53:30 2021.
