 Gaussian 09, Revision D.01,
 Gaussian 09:  ES64L-G09RevD.01 24-Apr-2013

 ----------------------------------------------------------------------
 # B3LYP/6-31G(d,p) opt=calcfc freq=noraman nosymm integral(ultrafinegr
 id)
 ----------------------------------------------------------------------

 ------------------------------------------------------------
 Candidate Structure: Conf:683 OPT and FREQ calc in gas phase
 ------------------------------------------------------------
 Symbolic Z-matrix:
 Charge =  0 Multiplicity = 1

 SCF Done:  E(RB3LYP) =  -796.120399473     A.U. after   14 cycles
 SCF Done:  E(RB3LYP) =  -796.123051015     A.U. after   12 cycles
 SCF Done:  E(RB3LYP) =  -796.123509408     A.U. after   12 cycles
 SCF Done:  E(RB3LYP) =  -796.123500633     A.U. after   12 cycles
 SCF Done:  E(RB3LYP) =  -796.123607907     A.U. after   12 cycles
 SCF Done:  E(RB3LYP) =  -796.123633188     A.U. after   10 cycles
 SCF Done:  E(RB3LYP) =  -796.123634145     A.U. after    9 cycles
 SCF Done:  E(RB3LYP) =  -796.123634189     A.U. after    7 cycles
 Optimization completed.
    -- Stationary point found.
 Normal termination of Gaussian 09 at Wed Jul 28 22:31:57 2021.

 ----------------------------------------------------------------------
 #N Geom=AllCheck Guess=TCheck SCRF=Check GenChk RB3LYP/6-31G(d,p) Freq
 ----------------------------------------------------------------------

 Structure from the checkpoint file:  "conf-683.chk"
 ------------------------------------------------------------
 Candidate Structure: Conf:683 OPT and FREQ calc in gas phase
 ------------------------------------------------------------
 Charge =  0 Multiplicity = 1

                          Input orientation:
 ---------------------------------------------------------------------
 Center     Atomic      Atomic             Coordinates (Angstroms)
 Number     Number       Type             X           Y           Z
 ---------------------------------------------------------------------
      1          8           0       -0.566920    0.017831   -2.146737
      2          6           0        0.382877    0.323573   -1.413162
      3          7           0        0.242404    0.623359   -0.099368
      4          6           0       -1.057327    0.793823    0.513320
      5          6           0       -1.080410    2.123801    1.260843
      6          8           0       -2.333097    2.449707    1.648896
      7          8           0       -0.112514    2.807681    1.508649
      8          6           0       -1.473836   -0.348944    1.480684
      9          6           0       -1.470533   -1.727348    0.887571
     10          6           0       -1.400394   -2.961566    1.495129
     11          7           0       -1.519148   -3.977560    0.574028
     12          6           0       -1.654091   -3.364503   -0.584041
     13          7           0       -1.651002   -2.005437   -0.454524
     14          6           0        1.811111    0.342061   -1.954960
     15          6           0        2.744789    1.416355   -1.378273
     16          7           0        3.002524    1.185889    0.052474
     17          1           0        1.091108    0.908340    0.402897
     18          1           0       -1.792975    0.851654   -0.295565
     19          1           0       -2.262054    3.286968    2.138405
     20          1           0       -0.804262   -0.342435    2.349093
     21          1           0       -2.471867   -0.092789    1.857592
     22          1           0       -1.280507   -3.169221    2.550462
     23          1           0       -1.752905   -3.847544   -1.546606
     24          1           0       -1.568082   -1.326504   -1.213243
     25          1           0        2.244304   -0.654230   -1.788435
     26          1           0        1.722290    0.462458   -3.037462
     27          1           0        2.268565    2.398393   -1.471894
     28          1           0        3.661446    1.447435   -1.986954
     29          1           0        3.620796    0.387928    0.180152
     30          1           0        3.459807    1.990813    0.470816
 ---------------------------------------------------------------------

 SCF Done:  E(RB3LYP) =  -796.123634189     A.U. after    1 cycles

 Alpha  occ. eigenvalues --  -19.21378 -19.15714 -19.12254 -14.36189 -14.35910
 Alpha  occ. eigenvalues --  -14.34619 -14.29022 -10.33650 -10.29566 -10.25165
 Alpha  occ. eigenvalues --  -10.23568 -10.21556 -10.20843 -10.20583 -10.20314
 Alpha  occ. eigenvalues --  -10.17568  -1.12308  -1.03979  -1.03216  -0.98819
 Alpha  occ. eigenvalues --   -0.93252  -0.90680  -0.84625  -0.80234  -0.76655
 Alpha  occ. eigenvalues --   -0.73220  -0.66813  -0.65303  -0.61905  -0.59020
 Alpha  occ. eigenvalues --   -0.58056  -0.56588  -0.53944  -0.52058  -0.51076
 Alpha  occ. eigenvalues --   -0.50177  -0.48651  -0.47598  -0.46685  -0.46115
 Alpha  occ. eigenvalues --   -0.44895  -0.43898  -0.42283  -0.41418  -0.40338
 Alpha  occ. eigenvalues --   -0.40150  -0.39521  -0.38699  -0.38411  -0.37918
 Alpha  occ. eigenvalues --   -0.37244  -0.35193  -0.33526  -0.29444  -0.27224
 Alpha  occ. eigenvalues --   -0.26617  -0.25995  -0.25701  -0.24424  -0.20281
 Alpha virt. eigenvalues --   -0.00676   0.01328   0.04696   0.06038   0.06508
 Alpha virt. eigenvalues --    0.08346   0.10955   0.11115   0.11530   0.13170
 Alpha virt. eigenvalues --    0.14371   0.14668   0.15073   0.16293   0.16633

 Mulliken charges:
               1
     1  O   -0.555934
     2  C    0.579034
     3  N   -0.497469
     4  C   -0.029444
     5  C    0.578102
     6  O   -0.478080
     7  O   -0.465480
     8  C   -0.230986
     9  C    0.286320
    10  C   -0.024876
    11  N   -0.448792
    12  C    0.248265
    13  N   -0.544888
    14  C   -0.254817
    15  C   -0.079475
    16  N   -0.620213
    17  H    0.312947
    18  H    0.156142
    19  H    0.328103
    20  H    0.116728
    21  H    0.141440
    22  H    0.074875
    23  H    0.103809
    24  H    0.292719
    25  H    0.132874
    26  H    0.136420
    27  H    0.127796
    28  H    0.100293
    29  H    0.253220
    30  H    0.261365
 Sum of Mulliken charges =   0.00000

 Dipole moment (field-independent basis, Debye):
    X=              3.6720    Y=              5.1824    Z=              0.3432  Tot=              6.3607
 Quadrupole moment (field-independent basis, Debye-Ang):
   XX=            -79.8459   YY=           -108.5240   ZZ=            -90.2625
   XY=             -7.5134   XZ=             -5.4181   YZ=              6.6769

  Exact polarizability: 110.368  10.197 135.546  -7.241  10.552 124.077
 Approx polarizability: 158.858   9.576 191.244   8.455  13.045 197.208

                      1                      2                      3
                      A                      A                      A
 Frequencies --     25.4644                45.8227                56.1370
 Red. masses --      5.0696                10.1693                 3.8440
 Frc consts  --      0.0019                 0.0126                 0.0071
 IR Inten    --      4.2893                 2.1564                 1.9229

                      4                      5                      6
                      A                      A                      A
 Frequencies --     68.6260                86.5859               106.5544
 Red. masses --      4.0187                 4.1320                 5.1724
 Frc consts  --      0.0112                 0.0183                 0.0346
 IR Inten    --      0.8132                 1.8154                 1.3097

                      7                      8                      9
                      A                      A                      A
 Frequencies --    120.9190               146.9858               185.1281
 Red. masses --      3.9063                 6.1632                 6.5155
 Frc consts  --      0.0337                 0.0785                 0.1316
 IR Inten    --      7.0894                11.3154                 1.3273

                     10                     11                     12
                      A                      A                      A
 Frequencies --    204.7715               226.2226               264.1656
 Red. masses --      2.2442                 5.0924                 3.8611
 Frc consts  --      0.0554                 0.1535                 0.1587
 IR Inten    --      2.5898                11.5475                 0.7162

                     13                     14                     15
                      A                      A                      A
 Frequencies --    307.0632               310.7909               346.8546
 Red. masses --      3.4703                 1.6804                 4.4073
 Frc consts  --      0.1928                 0.0956                 0.3124
 IR Inten    --      1.8080                13.8711                 0.1315

                     16                     17                     18
                      A                      A                      A
 Frequencies --    356.3005               432.6404               484.8849
 Red. masses --      3.0155                 3.3168                 2.8909
 Frc consts  --      0.2256                 0.3658                 0.4005
 IR Inten    --      8.0359                15.6145                13.1446

                     19                     20                     21
                      A                      A                      A
 Frequencies --    514.0726               588.0786               604.8838
 Red. masses --      2.9973                 3.3230                 1.5114
 Frc consts  --      0.4667                 0.6771                 0.3258
 IR Inten    --     40.8693                 6.6392                71.6834

                     22                     23                     24
                      A                      A                      A
 Frequencies --    633.4027               644.3033               675.6233
 Red. masses --      3.8021                 4.5841                 3.8638
 Frc consts  --      0.8987                 1.1212                 1.0391
 IR Inten    --      9.5766                42.1645                25.9696

                     25                     26                     27
                      A                      A                      A
 Frequencies --    690.0771               698.7504               773.1961
 Red. masses --      3.3032                 2.9279                 2.2572
 Frc consts  --      0.9268                 0.8423                 0.7950
 IR Inten    --     40.1266                25.7758                30.4671

                     28                     29                     30
                      A                      A                      A
 Frequencies --    785.4714               803.4557               819.6162
 Red. masses --      1.5155                 1.3669                 1.2592
 Frc consts  --      0.5509                 0.5199                 0.4984
 IR Inten    --     85.1760                11.1411                66.8114

                     31                     32                     33
                      A                      A                      A
 Frequencies --    835.9485               851.3822               882.1958
 Red. masses --      1.3207                 1.4194                 2.5726
 Frc consts  --      0.5438                 0.6062                 1.1796
 IR Inten    --     25.7438                54.7999                 7.8922

                     34                     35                     36
                      A                      A                      A
 Frequencies --    901.2970               918.9271               938.6452
 Red. masses --      2.2868                 1.9276                 5.6940
 Frc consts  --      1.0945                 0.9590                 2.9558
 IR Inten    --     22.8927                40.5938                21.7673

                     37                     38                     39
                      A                      A                      A
 Frequencies --    962.6321               995.4030              1016.2881
 Red. masses --      2.4373                 2.3073                 2.6706
 Frc consts  --      1.3307                 1.3470                 1.6252
 IR Inten    --      3.5034                 3.8984                 6.2892

                     40                     41                     42
                      A                      A                      A
 Frequencies --   1029.0625              1054.7141              1088.9121
 Red. masses --      2.2125                 3.0096                 2.5795
 Frc consts  --      1.3805                 1.9725                 1.8020
 IR Inten    --     37.4468                 8.9062                 4.8180

                     43                     44                     45
                      A                      A                      A
 Frequencies --   1138.3372              1150.2169              1160.9168
 Red. masses --      2.8483                 2.0699                 1.4521
 Frc consts  --      2.1746                 1.6134                 1.1530
 IR Inten    --     88.0633                16.5699                52.6263

                     46                     47                     48
                      A                      A                      A
 Frequencies --   1167.2653              1185.9632              1237.8725
 Red. masses --      1.7346                 2.0991                 1.4499
 Frc consts  --      1.3925                 1.7395                 1.3090
 IR Inten    --     19.8569                98.2270                12.0804

                     49                     50                     51
                      A                      A                      A
 Frequencies --   1270.3601              1271.5527              1284.7406
 Red. masses --      1.3629                 1.6137                 1.6846
 Frc consts  --      1.2959                 1.5373                 1.6382
 IR Inten    --     26.0971                 1.0761                11.0349

                     52                     53                     54
                      A                      A                      A
 Frequencies --   1292.4997              1317.6879              1321.7044
 Red. masses --      1.5034                 1.6895                 1.3755
 Frc consts  --      1.4798                 1.7283                 1.4157
 IR Inten    --      6.5447                 8.5504                 2.6974

                     55                     56                     57
                      A                      A                      A
 Frequencies --   1352.0343              1373.5817              1380.4259
 Red. masses --      1.7633                 1.3987                 1.4736
 Frc consts  --      1.8991                 1.5548                 1.6545
 IR Inten    --      4.0840                11.3431                 8.6405

                     58                     59                     60
                      A                      A                      A
 Frequencies --   1402.6245              1409.1909              1431.0356
 Red. masses --      2.5610                 2.6393                 1.4316
 Frc consts  --      2.9686                 3.0880                 1.7273
 IR Inten    --     15.1028                96.5586                20.5750

                     61                     62                     63
                      A                      A                      A
 Frequencies --   1475.1544              1476.2295              1496.9415
 Red. masses --      1.0860                 2.1587                 1.1690
 Frc consts  --      1.3924                 2.7718                 1.5435
 IR Inten    --      7.3662                42.7513                13.9182

                     64                     65                     66
                      A                      A                      A
 Frequencies --   1513.8397              1521.6589              1597.1277
 Red. masses --      3.4443                 1.0866                 1.8912
 Frc consts  --      4.6506                 1.4823                 2.8422
 IR Inten    --     18.1327                 4.5137               303.0536

                     67                     68                     69
                      A                      A                      A
 Frequencies --   1621.5798              1662.9667              1729.5398
 Red. masses --      3.4781                 1.0920                 7.8029
 Frc consts  --      5.3885                 1.7792                13.7520
 IR Inten    --     16.3597                35.0187               279.5291

                     70                     71                     72
                      A                      A                      A
 Frequencies --   1843.7006              2996.4868              3037.9621
 Red. masses --     10.1520                 1.0717                 1.0706
 Frc consts  --     20.3321                 5.6694                 5.8214
 IR Inten    --    239.1028                84.1131                 6.8320

                     73                     74                     75
                      A                      A                      A
 Frequencies --   3038.6040              3071.7970              3085.0268
 Red. masses --      1.0600                 1.0986                 1.0925
 Frc consts  --      5.7665                 6.1074                 6.1263
 IR Inten    --     20.8842                 5.7620                21.5078

                     76                     77                     78
                      A                      A                      A
 Frequencies --   3090.2199              3123.1936              3241.7328
 Red. masses --      1.0878                 1.0935                 1.0956
 Frc consts  --      6.1201                 6.2842                 6.7837
 IR Inten    --     13.7255                 7.9352                11.9010

                     79                     80                     81
                      A                      A                      A
 Frequencies --   3257.1875              3353.1603              3442.7772
 Red. masses --      1.0965                 1.0829                 1.0870
 Frc consts  --      6.8542                 7.1741                 7.5908
 IR Inten    --      2.9889               429.1208               391.1870

                     82                     83                     84
                      A                      A                      A
 Frequencies --   3502.0140              3592.7062              3749.7189
 Red. masses --      1.0502                 1.0932                 1.0642
 Frc consts  --      7.5887                 8.3135                 8.8163
 IR Inten    --      0.4130                 2.9592                63.7865

 - Thermochemistry -
 -------------------
 Temperature   298.150 Kelvin.  Pressure   1.00000 Atm.
 Atom     1 has atomic number  8 and mass  15.99491

 Molecular mass:   226.10659 amu.
 Principal axes and moments of inertia in atomic units:
                           1         2         3
     Eigenvalues --  2955.461204576.202276272.79377
           X            0.51814  -0.61464   0.59477
           Y            0.84939   0.45133  -0.27355
           Z           -0.10031   0.64693   0.75592
 This molecule is an asymmetric top.
 Rotational symmetry number  1.
 Warning -- assumption of classical behavior for rotation
           may cause significant error
 Rotational temperatures (Kelvin)      0.02931     0.01893     0.01381
 Rotational constants (GHZ):           0.61065     0.39438     0.28771
 Zero-point vibrational energy     646890.2 (Joules/Mol)
                                  154.61046 (Kcal/Mol)
 Warning -- explicit consideration of  21 degrees of freedom as
           vibrations may cause significant error
 Vibrational temperatures:     36.64    65.93    80.77    98.74   124.58
          (Kelvin)            153.31   173.98   211.48   266.36   294.62
                              325.48   380.07   441.79   447.16   499.05
                              512.64   622.47   697.64   739.63   846.11
                              870.29   911.32   927.01   972.07   992.87
                             1005.34  1112.46  1130.12  1155.99  1179.24
                             1202.74  1224.95  1269.28  1296.76  1322.13
                             1350.50  1385.01  1432.16  1462.21  1480.59
                             1517.50  1566.70  1637.81  1654.90  1670.30
                             1679.43  1706.33  1781.02  1827.76  1829.48
                             1848.45  1859.62  1895.86  1901.64  1945.27
                             1976.28  1986.12  2018.06  2027.51  2058.94
                             2122.42  2123.96  2153.76  2178.07  2189.32
                             2297.91  2333.09  2392.64  2488.42  2652.67
                             4311.27  4370.94  4371.87  4419.63  4438.66
                             4446.13  4493.57  4664.12  4686.36  4824.44
                             4953.38  5038.61  5169.10  5395.00

 Zero-point correction=                           0.246387 (Hartree/Particle)
 Thermal correction to Energy=                    0.261874
 Thermal correction to Enthalpy=                  0.262818
 Thermal correction to Gibbs Free Energy=         0.201799
 Sum of electronic and zero-point Energies=           -795.877247
 Sum of electronic and thermal Energies=              -795.861761
 Sum of electronic and thermal Enthalpies=            -795.860816
 Sum of electronic and thermal Free Energies=         -795.921835

                     E (Thermal)             CV                S
                      KCal/Mol        Cal/Mol-Kelvin    Cal/Mol-Kelvin
 Total                  164.328             57.091            128.425
 Electronic               0.000              0.000              0.000
 Translational            0.889              2.981             42.150
 Rotational               0.889              2.981             32.806
 Vibrational            162.551             51.130             53.469
 Vibration     1          0.593              1.985              6.155
 Vibration     2          0.595              1.979              4.990
 Vibration     3          0.596              1.975              4.589
 Vibration     4          0.598              1.969              4.192
 Vibration     5          0.601              1.959              3.736
 Vibration     6          0.605              1.944              3.331
 Vibration     7          0.609              1.932              3.086
 Vibration     8          0.617              1.906              2.711
 Vibration     9          0.631              1.860              2.276
 Vibration    10          0.640              1.833              2.090
 Vibration    11          0.650              1.801              1.909
 Vibration    12          0.671              1.739              1.634
 Vibration    13          0.697              1.660              1.378
 Vibration    14          0.700              1.653              1.358
 Vibration    15          0.725              1.582              1.180
 Vibration    16          0.732              1.562              1.138
 Vibration    17          0.794              1.399              0.850
 Vibration    18          0.841              1.284              0.697
 Vibration    19          0.869              1.219              0.624
 Vibration    20          0.945              1.057              0.471
 Vibration    21          0.963              1.021              0.441

 Optimization completed.
    -- Stationary point found.
 Normal termination of Gaussian 09 at Wed Jul 28 22:52:28 2021.
