 Gaussian 09, Revision D.01,
 Gaussian 09:  ES64L-G09RevD.01 24-Apr-2013

 ----------------------------------------------------------------------
 # B3LYP/6-31G(d,p) opt=calcfc freq=noraman nosymm integral(ultrafinegr
 id)
 ----------------------------------------------------------------------

 ------------------------------------------------------------
 Candidate Structure: Conf:422 OPT and FREQ calc in gas phase
 ------------------------------------------------------------
 Symbolic Z-matrix:
 Charge =  0 Multiplicity = 1

 SCF Done:  E(RB3LYP) =  -796.106257323     A.U. after   14 cycles
 SCF Done:  E(RB3LYP) =  -796.108117819     A.U. after   12 cycles
 SCF Done:  E(RB3LYP) =  -796.108268153     A.U. after   12 cycles
 SCF Done:  E(RB3LYP) =  -796.108270971     A.U. after   10 cycles
 SCF Done:  E(RB3LYP) =  -796.108271657     A.U. after    9 cycles
 SCF Done:  E(RB3LYP) =  -796.108271688     A.U. after    7 cycles
 Optimization completed.
    -- Stationary point found.
 Normal termination of Gaussian 09 at Wed Jul 28 22:25:44 2021.

 ----------------------------------------------------------------------
 #N Geom=AllCheck Guess=TCheck SCRF=Check GenChk RB3LYP/6-31G(d,p) Freq
 ----------------------------------------------------------------------

 Structure from the checkpoint file:  "conf-422.chk"
 ------------------------------------------------------------
 Candidate Structure: Conf:422 OPT and FREQ calc in gas phase
 ------------------------------------------------------------
 Charge =  0 Multiplicity = 1

                          Input orientation:
 ---------------------------------------------------------------------
 Center     Atomic      Atomic             Coordinates (Angstroms)
 Number     Number       Type             X           Y           Z
 ---------------------------------------------------------------------
      1          8           0        0.784807    0.686803    1.509307
      2          6           0        1.135146    0.091013    0.495832
      3          7           0        0.312122   -0.791731   -0.160567
      4          6           0       -0.951567   -1.215762    0.402306
      5          6           0       -0.909662   -2.724690    0.630924
      6          8           0       -1.914451   -3.141976    1.428967
      7          8           0       -0.100084   -3.477202    0.134063
      8          6           0       -2.172952   -0.876855   -0.489228
      9          6           0       -2.407190    0.592116   -0.669230
     10          6           0       -1.974864    1.721238   -0.011963
     11          7           0       -2.538206    2.857499   -0.557498
     12          6           0       -3.305961    2.430331   -1.532687
     13          7           0       -3.264876    1.067483   -1.648519
     14          6           0        2.488014    0.320666   -0.163818
     15          6           0        3.544177    0.801583    0.832363
     16          7           0        4.778269    1.151346    0.122114
     17          1           0        0.725681   -1.419417   -0.836895
     18          1           0       -1.057224   -0.714822    1.368989
     19          1           0       -1.832047   -4.108607    1.499199
     20          1           0       -3.053931   -1.353773   -0.039782
     21          1           0       -2.025953   -1.357073   -1.467674
     22          1           0       -1.271797    1.776395    0.807062
     23          1           0       -3.908119    3.046629   -2.186489
     24          1           0       -3.769429    0.508626   -2.319684
     25          1           0        2.822310   -0.591391   -0.676371
     26          1           0        2.365291    1.085614   -0.940712
     27          1           0        3.672000    0.039862    1.620320
     28          1           0        3.159800    1.695967    1.329397
     29          1           0        5.241670    0.306069   -0.205820
     30          1           0        5.429051    1.593967    0.766089
 ---------------------------------------------------------------------

 SCF Done:  E(RB3LYP) =  -796.108271688     A.U. after    1 cycles

 Alpha  occ. eigenvalues --  -19.21756 -19.16116 -19.11717 -14.38559 -14.36385
 Alpha  occ. eigenvalues --  -14.31089 -14.30110 -10.33942 -10.29038 -10.25272
 Alpha  occ. eigenvalues --  -10.23106 -10.21859 -10.21558 -10.20538 -10.19211
 Alpha  occ. eigenvalues --  -10.18279  -1.12686  -1.03898  -1.03368  -1.00421
 Alpha  occ. eigenvalues --   -0.93169  -0.87741  -0.86139  -0.80794  -0.75694
 Alpha  occ. eigenvalues --   -0.73397  -0.67840  -0.64349  -0.60738  -0.60407
 Alpha  occ. eigenvalues --   -0.58760  -0.57417  -0.54018  -0.51741  -0.50680
 Alpha  occ. eigenvalues --   -0.49571  -0.47930  -0.47844  -0.46915  -0.45064
 Alpha  occ. eigenvalues --   -0.44354  -0.43460  -0.42629  -0.41630  -0.41015
 Alpha  occ. eigenvalues --   -0.40208  -0.39446  -0.39145  -0.38068  -0.37500
 Alpha  occ. eigenvalues --   -0.35158  -0.34120  -0.33886  -0.29790  -0.27082
 Alpha  occ. eigenvalues --   -0.26435  -0.25556  -0.25288  -0.23363  -0.21537
 Alpha virt. eigenvalues --   -0.01049   0.02014   0.03342   0.05947   0.07295
 Alpha virt. eigenvalues --    0.07824   0.08173   0.08724   0.11454   0.13315
 Alpha virt. eigenvalues --    0.14187   0.14446   0.14858   0.16021   0.16783

 Mulliken charges:
               1
     1  O   -0.521691
     2  C    0.605129
     3  N   -0.513708
     4  C   -0.017840
     5  C    0.575549
     6  O   -0.475613
     7  O   -0.468015
     8  C   -0.240378
     9  C    0.289736
    10  C   -0.025748
    11  N   -0.448768
    12  C    0.261052
    13  N   -0.541871
    14  C   -0.258464
    15  C   -0.054045
    16  N   -0.607499
    17  H    0.267471
    18  H    0.173487
    19  H    0.328951
    20  H    0.137701
    21  H    0.104381
    22  H    0.123822
    23  H    0.108420
    24  H    0.257739
    25  H    0.093373
    26  H    0.154919
    27  H    0.083821
    28  H    0.135343
    29  H    0.232596
    30  H    0.240148
 Sum of Mulliken charges =   0.00000

 Dipole moment (field-independent basis, Debye):
    X=             -1.1088    Y=             -5.2570    Z=             -2.3866  Tot=              5.8789
 Quadrupole moment (field-independent basis, Debye-Ang):
   XX=            -73.1416   YY=           -101.1224   ZZ=            -88.1337
   XY=              7.9545   XZ=             12.1615   YZ=             -4.1867

  Exact polarizability: 132.449   0.862 135.901  12.250  -1.737 100.899
 Approx polarizability: 169.873  -0.430 201.805  11.938  19.207 170.252

                      1                      2                      3
                      A                      A                      A
 Frequencies --     21.3467                35.0678                48.9072
 Red. masses --      4.0349                 2.6081                 9.2359
 Frc consts  --      0.0011                 0.0019                 0.0130
 IR Inten    --      1.1213                 2.3467                 2.4588

                      4                      5                      6
                      A                      A                      A
 Frequencies --     51.7512                64.2709                77.7298
 Red. masses --      4.0392                 3.4324                 7.5095
 Frc consts  --      0.0064                 0.0084                 0.0267
 IR Inten    --      2.6034                 5.2644                 7.0367

                      7                      8                      9
                      A                      A                      A
 Frequencies --     92.8867               102.7035               137.8175
 Red. masses --      5.3008                 3.6378                 4.0085
 Frc consts  --      0.0269                 0.0226                 0.0449
 IR Inten    --      0.7599                 3.7618                 3.6118

                     10                     11                     12
                      A                      A                      A
 Frequencies --    180.3844               222.5148               244.7927
 Red. masses --      6.4545                 3.6993                 3.3184
 Frc consts  --      0.1237                 0.1079                 0.1172
 IR Inten    --      2.2833                10.0019                 3.4558

                     13                     14                     15
                      A                      A                      A
 Frequencies --    263.5103               281.3790               311.3965
 Red. masses --      1.3715                 3.0690                 4.4354
 Frc consts  --      0.0561                 0.1432                 0.2534
 IR Inten    --     52.4808                 2.3075                 6.8827

                     16                     17                     18
                      A                      A                      A
 Frequencies --    350.3086               398.1948               446.5622
 Red. masses --      4.6028                 3.9108                 3.4278
 Frc consts  --      0.3328                 0.3653                 0.4027
 IR Inten    --      3.3822                14.4907                16.6414

                     19                     20                     21
                      A                      A                      A
 Frequencies --    491.3245               506.2710               531.1426
 Red. masses --      1.4440                 1.5352                 3.1591
 Frc consts  --      0.2054                 0.2318                 0.5251
 IR Inten    --     73.9650                80.2455                12.6078

                     22                     23                     24
                      A                      A                      A
 Frequencies --    604.5274               616.2448               647.1614
 Red. masses --      1.4805                 2.3096                 3.2727
 Frc consts  --      0.3188                 0.5168                 0.8076
 IR Inten    --     82.1516                 7.5524                52.3415

                     25                     26                     27
                      A                      A                      A
 Frequencies --    651.0091               679.9978               696.3826
 Red. masses --      3.2814                 3.4861                 2.8448
 Frc consts  --      0.8194                 0.9497                 0.8128
 IR Inten    --     22.5907                 5.5352                34.7119

                     28                     29                     30
                      A                      A                      A
 Frequencies --    731.6909               781.5363               795.5246
 Red. masses --      4.3464                 4.0827                 1.3606
 Frc consts  --      1.3710                 1.4693                 0.5073
 IR Inten    --      9.8669                22.2166                12.4835

                     31                     32                     33
                      A                      A                      A
 Frequencies --    802.9124               865.0113               880.7262
 Red. masses --      1.3372                 1.3450                 1.4850
 Frc consts  --      0.5079                 0.5930                 0.6787
 IR Inten    --     14.6905               129.1913                12.0574

                     34                     35                     36
                      A                      A                      A
 Frequencies --    906.2789               920.0464               933.4209
 Red. masses --      1.7320                 3.9536                 5.7320
 Frc consts  --      0.8381                 1.9718                 2.9424
 IR Inten    --     16.4412                11.0224                 9.1815

                     37                     38                     39
                      A                      A                      A
 Frequencies --    980.8587               999.5285              1026.5860
 Red. masses --      2.6444                 2.5258                 3.7770
 Frc consts  --      1.4990                 1.4867                 2.3452
 IR Inten    --      6.7592                11.1529                 9.8606

                     40                     41                     42
                      A                      A                      A
 Frequencies --   1062.6968              1067.2793              1102.7226
 Red. masses --      3.0455                 2.7931                 2.0012
 Frc consts  --      2.0264                 1.8745                 1.4338
 IR Inten    --     15.1734                14.9298                26.1535

                     43                     44                     45
                      A                      A                      A
 Frequencies --   1115.4404              1125.5365              1151.4854
 Red. masses --      1.6142                 2.3969                 2.3127
 Frc consts  --      1.1833                 1.7891                 1.8067
 IR Inten    --     15.3146                56.1070                21.7661

                     46                     47                     48
                      A                      A                      A
 Frequencies --   1163.6007              1183.5988              1209.6472
 Red. masses --      1.6069                 2.0439                 1.8833
 Frc consts  --      1.2819                 1.6871                 1.6237
 IR Inten    --     83.6944               102.7995                47.6974

                     49                     50                     51
                      A                      A                      A
 Frequencies --   1230.1171              1257.4758              1270.4620
 Red. masses --      1.6513                 1.4005                 1.4466
 Frc consts  --      1.4722                 1.3048                 1.3757
 IR Inten    --     28.9251                25.7708                17.8143

                     52                     53                     54
                      A                      A                      A
 Frequencies --   1285.6537              1301.3900              1341.9379
 Red. masses --      1.3530                 1.4574                 1.1140
 Frc consts  --      1.3176                 1.4543                 1.1819
 IR Inten    --     22.9260                 2.6810                 4.7487

                     55                     56                     57
                      A                      A                      A
 Frequencies --   1346.4021              1362.1875              1377.9363
 Red. masses --      1.4396                 1.8231                 1.6150
 Frc consts  --      1.5375                 1.9931                 1.8067
 IR Inten    --      1.2137                 3.8884                 9.9782

                     58                     59                     60
                      A                      A                      A
 Frequencies --   1405.4530              1416.5837              1438.7792
 Red. masses --      2.5346                 2.2276                 1.5559
 Frc consts  --      2.9498                 2.6337                 1.8977
 IR Inten    --    119.4729                32.8064                41.5643

                     61                     62                     63
                      A                      A                      A
 Frequencies --   1441.1791              1479.6454              1496.7370
 Red. masses --      2.8797                 1.0901                 1.2411
 Frc consts  --      3.5240                 1.4062                 1.6382
 IR Inten    --     18.8414                 6.6735                19.8157

                     64                     65                     66
                      A                      A                      A
 Frequencies --   1519.5395              1527.6160              1543.2291
 Red. masses --      3.1696                 1.0844                 1.8821
 Frc consts  --      4.3120                 1.4910                 2.6408
 IR Inten    --      8.9317                 0.9068               250.4790

                     67                     68                     69
                      A                      A                      A
 Frequencies --   1621.3827              1670.8615              1769.3646
 Red. masses --      4.2578                 1.0905                 9.2840
 Frc consts  --      6.5948                 1.7937                17.1246
 IR Inten    --     15.5714                20.4214               176.1034

                     70                     71                     72
                      A                      A                      A
 Frequencies --   1839.2744              2967.8894              3012.0905
 Red. masses --     10.0908                 1.0742                 1.0627
 Frc consts  --     20.1126                 5.5750                 5.6807
 IR Inten    --    237.7283                70.0239                33.6057

                     73                     74                     75
                      A                      A                      A
 Frequencies --   3032.6342              3052.1979              3078.5932
 Red. masses --      1.0632                 1.0985                 1.0969
 Frc consts  --      5.7612                 6.0292                 6.1251
 IR Inten    --     19.2206                14.7502                 8.3729

                     76                     77                     78
                      A                      A                      A
 Frequencies --   3105.8244              3113.2353              3255.7687
 Red. masses --      1.0840                 1.0907                 1.0956
 Frc consts  --      6.1605                 6.2287                 6.8425
 IR Inten    --     10.7637                17.3092                 3.5971

                     79                     80                     81
                      A                      A                      A
 Frequencies --   3266.4529              3486.1678              3571.1863
 Red. masses --      1.0986                 1.0503                 1.0918
 Frc consts  --      6.9060                 7.5208                 8.2037
 IR Inten    --      2.4198                 2.1159                 0.1668

                     82                     83                     84
                      A                      A                      A
 Frequencies --   3620.8052              3660.1009              3746.5249
 Red. masses --      1.0767                 1.0809                 1.0642
 Frc consts  --      8.3169                 8.5318                 8.8011
 IR Inten    --     35.2080                38.8755                62.9953

 - Thermochemistry -
 -------------------
 Temperature   298.150 Kelvin.  Pressure   1.00000 Atm.
 Atom     1 has atomic number  8 and mass  15.99491

 Molecular mass:   226.10659 amu.
 Principal axes and moments of inertia in atomic units:
                           1         2         3
     Eigenvalues --  3353.688915223.157407828.25967
           X            0.97821   0.10917  -0.17659
           Y           -0.06419   0.96795   0.24281
           Z            0.19743  -0.22618   0.95387
 This molecule is an asymmetric top.
 Rotational symmetry number  1.
 Warning -- assumption of classical behavior for rotation
           may cause significant error
 Rotational temperatures (Kelvin)      0.02583     0.01658     0.01106
 Rotational constants (GHZ):           0.53814     0.34553     0.23054
 Zero-point vibrational energy     642839.6 (Joules/Mol)
                                  153.64236 (Kcal/Mol)
 Warning -- explicit consideration of  23 degrees of freedom as
           vibrations may cause significant error
 Vibrational temperatures:     30.71    50.45    70.37    74.46    92.47
          (Kelvin)            111.84   133.64   147.77   198.29   259.53
                              320.15   352.20   379.13   404.84   448.03
                              504.02   572.91   642.50   706.91   728.41
                              764.19   869.78   886.64   931.12   936.66
                              978.36  1001.94  1052.74  1124.46  1144.58
                             1155.21  1244.56  1267.17  1303.93  1323.74
                             1342.98  1411.24  1438.10  1477.03  1528.98
                             1535.57  1586.57  1604.87  1619.39  1656.73
                             1674.16  1702.93  1740.41  1769.86  1809.22
                             1827.91  1849.77  1872.41  1930.75  1937.17
                             1959.88  1982.54  2022.13  2038.15  2070.08
                             2073.53  2128.88  2153.47  2186.28  2197.90
                             2220.36  2332.81  2403.99  2545.72  2646.30
                             4270.13  4333.72  4363.28  4391.43  4429.40
                             4468.58  4479.25  4684.32  4699.69  5015.81
                             5138.13  5209.52  5266.06  5390.41

 Zero-point correction=                           0.244845 (Hartree/Particle)
 Thermal correction to Energy=                    0.261250
 Thermal correction to Enthalpy=                  0.262194
 Thermal correction to Gibbs Free Energy=         0.197770
 Sum of electronic and zero-point Energies=           -795.863427
 Sum of electronic and thermal Energies=              -795.847022
 Sum of electronic and thermal Enthalpies=            -795.846078
 Sum of electronic and thermal Free Energies=         -795.910501

                     E (Thermal)             CV                S
                      KCal/Mol        Cal/Mol-Kelvin    Cal/Mol-Kelvin
 Total                  163.937             58.755            135.591
 Electronic               0.000              0.000              0.000
 Translational            0.889              2.981             42.150
 Rotational               0.889              2.981             33.283
 Vibrational            162.159             52.794             60.158
 Vibration     1          0.593              1.985              6.505
 Vibration     2          0.594              1.982              5.520
 Vibration     3          0.595              1.978              4.861
 Vibration     4          0.596              1.977              4.749
 Vibration     5          0.597              1.971              4.322
 Vibration     6          0.599              1.964              3.947
 Vibration     7          0.602              1.954              3.598
 Vibration     8          0.605              1.947              3.402
 Vibration     9          0.614              1.916              2.834
 Vibration    10          0.629              1.866              2.324
 Vibration    11          0.648              1.807              1.939
 Vibration    12          0.660              1.771              1.768
 Vibration    13          0.670              1.740              1.638
 Vibration    14          0.681              1.708              1.525
 Vibration    15          0.700              1.652              1.355
 Vibration    16          0.727              1.575              1.165
 Vibration    17          0.764              1.474              0.969
 Vibration    18          0.806              1.368              0.806
 Vibration    19          0.847              1.269              0.680
 Vibration    20          0.861              1.236              0.643
 Vibration    21          0.886              1.181              0.585
 Vibration    22          0.963              1.022              0.442
 Vibration    23          0.976              0.998              0.423

 Optimization completed.
    -- Stationary point found.
 Normal termination of Gaussian 09 at Wed Jul 28 22:44:29 2021.
