 Gaussian 09, Revision D.01,
 Gaussian 09:  ES64L-G09RevD.01 24-Apr-2013

 ----------------------------------------------------------------------
 # B3LYP/6-31G(d,p) opt=calcfc freq=noraman nosymm integral(ultrafinegr
 id)
 ----------------------------------------------------------------------

 ------------------------------------------------------------
 Candidate Structure: Conf:340 OPT and FREQ calc in gas phase
 ------------------------------------------------------------
 Symbolic Z-matrix:
 Charge =  0 Multiplicity = 1

 SCF Done:  E(RB3LYP) =  -796.110854631     A.U. after   14 cycles
 SCF Done:  E(RB3LYP) =  -796.113416377     A.U. after   12 cycles
 SCF Done:  E(RB3LYP) =  -796.113696745     A.U. after   12 cycles
 SCF Done:  E(RB3LYP) =  -796.113710279     A.U. after   11 cycles
 SCF Done:  E(RB3LYP) =  -796.113725673     A.U. after   11 cycles
 SCF Done:  E(RB3LYP) =  -796.113742858     A.U. after   11 cycles
 SCF Done:  E(RB3LYP) =  -796.113743706     A.U. after    8 cycles
 SCF Done:  E(RB3LYP) =  -796.113743738     A.U. after    7 cycles
 Optimization completed.
    -- Stationary point found.
 Normal termination of Gaussian 09 at Wed Jul 28 22:29:39 2021.

 ----------------------------------------------------------------------
 #N Geom=AllCheck Guess=TCheck SCRF=Check GenChk RB3LYP/6-31G(d,p) Freq
 ----------------------------------------------------------------------

 Structure from the checkpoint file:  "conf-340.chk"
 ------------------------------------------------------------
 Candidate Structure: Conf:340 OPT and FREQ calc in gas phase
 ------------------------------------------------------------
 Charge =  0 Multiplicity = 1

                          Input orientation:
 ---------------------------------------------------------------------
 Center     Atomic      Atomic             Coordinates (Angstroms)
 Number     Number       Type             X           Y           Z
 ---------------------------------------------------------------------
      1          8           0        0.599107   -1.003757   -0.698134
      2          6           0        1.374381   -0.194354   -0.175481
      3          7           0        0.927328    0.979249    0.346624
      4          6           0       -0.455688    1.356187    0.169323
      5          6           0       -0.605389    2.854013    0.410614
      6          8           0       -1.851309    3.334224    0.233024
      7          8           0        0.307061    3.571208    0.747826
      8          6           0       -1.443203    0.534942    1.075246
      9          6           0       -2.625689    0.066809    0.296461
     10          6           0       -3.970039    0.373853    0.296110
     11          7           0       -4.631694   -0.322878   -0.692782
     12          6           0       -3.700083   -1.038184   -1.287983
     13          7           0       -2.468848   -0.840923   -0.733034
     14          6           0        2.870124   -0.445284   -0.090966
     15          6           0        3.196827   -1.919374    0.166518
     16          7           0        4.641223   -2.135675    0.060332
     17          1           0        1.555994    1.702478    0.674946
     18          1           0       -0.730181    1.158831   -0.874578
     19          1           0       -2.464895    2.624911   -0.032111
     20          1           0       -0.885928   -0.318758    1.469900
     21          1           0       -1.770362    1.127488    1.934717
     22          1           0       -4.499154    1.031325    0.974015
     23          1           0       -3.859146   -1.713324   -2.117626
     24          1           0       -1.567995   -1.228676   -1.000699
     25          1           0        3.319351   -0.157327   -1.049540
     26          1           0        3.322719    0.195265    0.676083
     27          1           0        2.696004   -2.514794   -0.601508
     28          1           0        2.759117   -2.222982    1.133680
     29          1           0        4.843598   -3.131440    0.096584
     30          1           0        5.116646   -1.722943    0.860302
 ---------------------------------------------------------------------

 SCF Done:  E(RB3LYP) =  -796.113743738     A.U. after    1 cycles

 Alpha  occ. eigenvalues --  -19.21130 -19.15667 -19.13795 -14.38892 -14.38066
 Alpha  occ. eigenvalues --  -14.32282 -14.31498 -10.33960 -10.30865 -10.26283
 Alpha  occ. eigenvalues --  -10.24336 -10.22838 -10.22378 -10.22044 -10.20664
 Alpha  occ. eigenvalues --  -10.20559  -1.11864  -1.05443  -1.03844  -1.01551
 Alpha  occ. eigenvalues --   -0.94590  -0.89033  -0.87289  -0.81464  -0.77228
 Alpha  occ. eigenvalues --   -0.74000  -0.68572  -0.64431  -0.62318  -0.61491
 Alpha  occ. eigenvalues --   -0.60294  -0.59276  -0.56106  -0.54800  -0.50966
 Alpha  occ. eigenvalues --   -0.50019  -0.49282  -0.47975  -0.47002  -0.45863
 Alpha  occ. eigenvalues --   -0.45543  -0.43815  -0.43380  -0.42490  -0.41891
 Alpha  occ. eigenvalues --   -0.41148  -0.40604  -0.40020  -0.39583  -0.39047
 Alpha  occ. eigenvalues --   -0.36230  -0.35628  -0.33378  -0.29728  -0.28325
 Alpha  occ. eigenvalues --   -0.28065  -0.27517  -0.26826  -0.24593  -0.23281
 Alpha virt. eigenvalues --   -0.01205   0.00512   0.01858   0.05373   0.07059
 Alpha virt. eigenvalues --    0.07620   0.07859   0.10499   0.10702   0.11283
 Alpha virt. eigenvalues --    0.13107   0.13315   0.14162   0.15093   0.15508

 Mulliken charges:
               1
     1  O   -0.556728
     2  C    0.606999
     3  N   -0.541950
     4  C   -0.014075
     5  C    0.597446
     6  O   -0.478845
     7  O   -0.455040
     8  C   -0.263072
     9  C    0.241548
    10  C   -0.032119
    11  N   -0.440312
    12  C    0.263805
    13  N   -0.516620
    14  C   -0.255331
    15  C   -0.055386
    16  N   -0.605414
    17  H    0.284583
    18  H    0.153776
    19  H    0.325509
    20  H    0.149078
    21  H    0.133934
    22  H    0.095881
    23  H    0.117793
    24  H    0.296410
    25  H    0.153648
    26  H    0.099215
    27  H    0.133681
    28  H    0.082625
    29  H    0.242673
    30  H    0.236287
 Sum of Mulliken charges =   0.00000

 Dipole moment (field-independent basis, Debye):
    X=              3.2972    Y=             -2.4992    Z=              1.3115  Tot=              4.3402
 Quadrupole moment (field-independent basis, Debye-Ang):
   XX=           -106.3962   YY=           -103.5766   ZZ=            -89.7615
   XY=             -4.5126   XZ=              4.7766   YZ=             -3.0455

  Exact polarizability: 160.229  -4.718 121.340  10.629  21.228  92.877
 Approx polarizability: 218.855   3.445 180.472  17.041  39.670 150.239

                      1                      2                      3
                      A                      A                      A
 Frequencies --     28.8143                37.7678                62.9725
 Red. masses --      3.5953                 5.6491                 2.5043
 Frc consts  --      0.0018                 0.0047                 0.0059
 IR Inten    --      0.9209                 2.7733                 4.2909

                      4                      5                      6
                      A                      A                      A
 Frequencies --     76.1611                85.6865                89.8770
 Red. masses --      4.7368                 6.7756                 4.4828
 Frc consts  --      0.0162                 0.0293                 0.0213
 IR Inten    --      2.9832                 1.5170                 2.1066

                      7                      8                      9
                      A                      A                      A
 Frequencies --    100.3802               117.0655               166.2286
 Red. masses --      6.2963                 5.6006                 4.3099
 Frc consts  --      0.0374                 0.0452                 0.0702
 IR Inten    --      7.6408                 5.9709                 6.0696

                     10                     11                     12
                      A                      A                      A
 Frequencies --    193.7650               207.5670               259.5860
 Red. masses --      5.4136                 3.8961                 1.4294
 Frc consts  --      0.1198                 0.0989                 0.0567
 IR Inten    --      9.6849                11.4742                42.4238

                     13                     14                     15
                      A                      A                      A
 Frequencies --    277.2464               318.8543               339.2732
 Red. masses --      3.2963                 4.9183                 2.5403
 Frc consts  --      0.1493                 0.2946                 0.1723
 IR Inten    --     12.3344                 3.3543                 6.1508

                     16                     17                     18
                      A                      A                      A
 Frequencies --    358.0470               396.2043               411.9816
 Red. masses --      5.9405                 3.9464                 3.8726
 Frc consts  --      0.4487                 0.3650                 0.3873
 IR Inten    --      9.1048                 7.6762                 7.8306

                     19                     20                     21
                      A                      A                      A
 Frequencies --    530.2293               553.4657               604.4111
 Red. masses --      1.5441                 2.4268                 1.8009
 Frc consts  --      0.2558                 0.4380                 0.3876
 IR Inten    --     58.3427                13.6296                59.0728

                     22                     23                     24
                      A                      A                      A
 Frequencies --    631.8554               643.6602               658.0360
 Red. masses --      2.1307                 3.3845                 2.8883
 Frc consts  --      0.5012                 0.8261                 0.7369
 IR Inten    --     76.7730                 6.0052                 3.6296

                     25                     26                     27
                      A                      A                      A
 Frequencies --    678.1419               710.1836               747.4936
 Red. masses --      3.9506                 3.4126                 1.4265
 Frc consts  --      1.0704                 1.0141                 0.4696
 IR Inten    --     13.0471                 5.3549                53.6695

                     28                     29                     30
                      A                      A                      A
 Frequencies --    753.4515               770.6223               806.2571
 Red. masses --      2.2007                 4.1028                 1.4009
 Frc consts  --      0.7361                 1.4355                 0.5365
 IR Inten    --     17.0612                 2.7466                11.6495

                     31                     32                     33
                      A                      A                      A
 Frequencies --    826.0249               843.9993               859.0809
 Red. masses --      1.3869                 1.3383                 1.8402
 Frc consts  --      0.5575                 0.5617                 0.8002
 IR Inten    --     18.2085                20.3852                54.1809

                     34                     35                     36
                      A                      A                      A
 Frequencies --    864.5430               936.0056               949.6044
 Red. masses --      1.7085                 6.0178                 2.8644
 Frc consts  --      0.7524                 3.1063                 1.5219
 IR Inten    --     83.0025                14.7823                10.7280

                     37                     38                     39
                      A                      A                      A
 Frequencies --    987.2587               990.1141              1020.8378
 Red. masses --      2.1710                 5.3610                 3.5419
 Frc consts  --      1.2467                 3.0965                 2.1747
 IR Inten    --      3.1375                 1.9157                15.5288

                     40                     41                     42
                      A                      A                      A
 Frequencies --   1032.3059              1069.6541              1103.3196
 Red. masses --      3.1344                 2.6977                 2.0905
 Frc consts  --      1.9680                 1.8185                 1.4994
 IR Inten    --      3.0268                20.9848                19.0604

                     43                     44                     45
                      A                      A                      A
 Frequencies --   1124.6888              1139.3769              1150.7626
 Red. masses --      1.6709                 1.7858                 2.0077
 Frc consts  --      1.2452                 1.3659                 1.5665
 IR Inten    --     44.7086                 6.5611                 4.9700

                     46                     47                     48
                      A                      A                      A
 Frequencies --   1170.5180              1198.0970              1212.0936
 Red. masses --      1.4434                 1.6581                 1.9558
 Frc consts  --      1.1652                 1.4023                 1.6930
 IR Inten    --      3.2403                12.4172                18.6191

                     49                     50                     51
                      A                      A                      A
 Frequencies --   1229.9809              1266.4133              1267.7047
 Red. masses --      1.5617                 1.9490                 1.5244
 Frc consts  --      1.3920                 1.8417                 1.4434
 IR Inten    --     24.6957                29.4438                 0.1430

                     52                     53                     54
                      A                      A                      A
 Frequencies --   1285.2852              1307.2451              1335.6573
 Red. masses --      1.3551                 1.3678                 1.3745
 Frc consts  --      1.3189                 1.3772                 1.4447
 IR Inten    --      6.2601                40.3843                 6.1779

                     55                     56                     57
                      A                      A                      A
 Frequencies --   1343.1461              1358.9146              1375.3985
 Red. masses --      1.1406                 1.7807                 1.4660
 Frc consts  --      1.2124                 1.9375                 1.6340
 IR Inten    --     41.9729               226.4589                11.3842

                     58                     59                     60
                      A                      A                      A
 Frequencies --   1392.8191              1417.5711              1436.6766
 Red. masses --      3.0413                 1.8198                 1.5395
 Frc consts  --      3.4761                 2.1545                 1.8722
 IR Inten    --     10.2279                72.6637                45.3377

                     61                     62                     63
                      A                      A                      A
 Frequencies --   1448.3221              1481.9386              1494.0357
 Red. masses --      2.6885                 1.0961                 1.1173
 Frc consts  --      3.3227                 1.4183                 1.4694
 IR Inten    --     69.1250                 7.2336                13.0268

                     64                     65                     66
                      A                      A                      A
 Frequencies --   1519.8074              1530.0327              1532.0134
 Red. masses --      3.7310                 1.0847                 2.6705
 Frc consts  --      5.0775                 1.4961                 3.6930
 IR Inten    --     48.5783                 0.9510               282.4046

                     67                     68                     69
                      A                      A                      A
 Frequencies --   1620.6521              1671.8096              1729.9153
 Red. masses --      4.4414                 1.0918                 9.0833
 Frc consts  --      6.8730                 1.7978                16.0156
 IR Inten    --     11.8974                20.1357               182.1549

                     70                     71                     72
                      A                      A                      A
 Frequencies --   1864.7134              2958.6017              3042.1987
 Red. masses --      9.9473                 1.0741                 1.0606
 Frc consts  --     20.3788                 5.5394                 5.7833
 IR Inten    --    282.5510                73.4796                14.6444

                     73                     74                     75
                      A                      A                      A
 Frequencies --   3044.1813              3075.1934              3084.0809
 Red. masses --      1.0823                 1.0609                 1.0995
 Frc consts  --      5.9096                 5.9111                 6.1616
 IR Inten    --      9.8708                15.4189                 6.7071

                     76                     77                     78
                      A                      A                      A
 Frequencies --   3111.1650              3120.6424              3242.8098
 Red. masses --      1.0915                 1.1055                 1.0959
 Frc consts  --      6.2246                 6.3428                 6.7898
 IR Inten    --     20.2288                 7.6715                 5.5187

                     79                     80                     81
                      A                      A                      A
 Frequencies --   3261.5643              3489.8846              3554.9366
 Red. masses --      1.0970                 1.0503                 1.0838
 Frc consts  --      6.8759                 7.5365                 8.0700
 IR Inten    --      1.8052                 1.2945               213.0435

                     82                     83                     84
                      A                      A                      A
 Frequencies --   3574.8421              3600.0868              3677.5565
 Red. masses --      1.0920                 1.0782                 1.0672
 Frc consts  --      8.2222                 8.2335                 8.5036
 IR Inten    --      0.0207                80.4269               199.5524

 - Thermochemistry -
 -------------------
 Temperature   298.150 Kelvin.  Pressure   1.00000 Atm.
 Atom     1 has atomic number  8 and mass  15.99491

 Molecular mass:   226.10659 amu.
 Principal axes and moments of inertia in atomic units:
                           1         2         3
     Eigenvalues --  2488.021516097.218808216.76811
           X            0.96150   0.25637  -0.09898
           Y           -0.27281   0.93386  -0.23127
           Z            0.03315   0.24937   0.96784
 This molecule is an asymmetric top.
 Rotational symmetry number  1.
 Warning -- assumption of classical behavior for rotation
           may cause significant error
 Rotational temperatures (Kelvin)      0.03481     0.01421     0.01054
 Rotational constants (GHZ):           0.72537     0.29599     0.21964
 Zero-point vibrational energy     645034.6 (Joules/Mol)
                                  154.16697 (Kcal/Mol)
 Warning -- explicit consideration of  21 degrees of freedom as
           vibrations may cause significant error
 Vibrational temperatures:     41.46    54.34    90.60   109.58   123.28
          (Kelvin)            129.31   144.42   168.43   239.17   278.78
                              298.64   373.49   398.90   458.76   488.14
                              515.15   570.05   592.75   762.88   796.31
                              869.61   909.10   926.08   946.77   975.69
                             1021.79  1075.48  1084.05  1108.75  1160.02
                             1188.46  1214.33  1236.02  1243.88  1346.70
                             1366.27  1420.44  1424.55  1468.76  1485.26
                             1538.99  1587.43  1618.17  1639.31  1655.69
                             1684.11  1723.79  1743.93  1769.67  1822.08
                             1823.94  1849.24  1880.83  1921.71  1932.49
                             1955.17  1978.89  2003.95  2039.57  2067.05
                             2083.81  2132.18  2149.58  2186.66  2201.37
                             2204.22  2331.75  2405.36  2488.96  2682.90
                             4256.76  4377.04  4379.89  4424.51  4437.30
                             4476.27  4489.90  4665.67  4692.66  5021.16
                             5114.75  5143.39  5179.72  5291.18

 Zero-point correction=                           0.245681 (Hartree/Particle)
 Thermal correction to Energy=                    0.261554
 Thermal correction to Enthalpy=                  0.262498
 Thermal correction to Gibbs Free Energy=         0.200327
 Sum of electronic and zero-point Energies=           -795.868063
 Sum of electronic and thermal Energies=              -795.852190
 Sum of electronic and thermal Enthalpies=            -795.851246
 Sum of electronic and thermal Free Energies=         -795.913417

                     E (Thermal)             CV                S
                      KCal/Mol        Cal/Mol-Kelvin    Cal/Mol-Kelvin
 Total                  164.128             57.883            130.850
 Electronic               0.000              0.000              0.000
 Translational            0.889              2.981             42.150
 Rotational               0.889              2.981             33.188
 Vibrational            162.350             51.922             55.512
 Vibration     1          0.593              1.984              5.909
 Vibration     2          0.594              1.982              5.373
 Vibration     3          0.597              1.972              4.362
 Vibration     4          0.599              1.965              3.987
 Vibration     5          0.601              1.959              3.756
 Vibration     6          0.602              1.956              3.663
 Vibration     7          0.604              1.949              3.447
 Vibration     8          0.608              1.935              3.148
 Vibration     9          0.624              1.884              2.478
 Vibration    10          0.635              1.849              2.192
 Vibration    11          0.641              1.829              2.065
 Vibration    12          0.668              1.747              1.665
 Vibration    13          0.678              1.716              1.551
 Vibration    14          0.705              1.638              1.316
 Vibration    15          0.719              1.597              1.216
 Vibration    16          0.733              1.559              1.131
 Vibration    17          0.763              1.478              0.977
 Vibration    18          0.776              1.444              0.920
 Vibration    19          0.885              1.183              0.587
 Vibration    20          0.909              1.132              0.537
 Vibration    21          0.963              1.022              0.442

 Optimization completed.
    -- Stationary point found.
 Normal termination of Gaussian 09 at Wed Jul 28 22:48:49 2021.
