 Gaussian 09, Revision D.01,
 Gaussian 09:  ES64L-G09RevD.01 24-Apr-2013

 ----------------------------------------------------------------------
 # B3LYP/6-31G(d,p) opt=calcfc freq=noraman nosymm integral(ultrafinegr
 id)
 ----------------------------------------------------------------------

 ------------------------------------------------------------
 Candidate Structure: Conf:609 OPT and FREQ calc in gas phase
 ------------------------------------------------------------
 Symbolic Z-matrix:
 Charge =  0 Multiplicity = 1

 SCF Done:  E(RB3LYP) =  -796.104338395     A.U. after   14 cycles
 SCF Done:  E(RB3LYP) =  -796.106820451     A.U. after   14 cycles
 SCF Done:  E(RB3LYP) =  -796.107013906     A.U. after   14 cycles
 SCF Done:  E(RB3LYP) =  -796.107249793     A.U. after   12 cycles
 SCF Done:  E(RB3LYP) =  -796.107336437     A.U. after   12 cycles
 SCF Done:  E(RB3LYP) =  -796.107389177     A.U. after   12 cycles
 SCF Done:  E(RB3LYP) =  -796.107396156     A.U. after   10 cycles
 SCF Done:  E(RB3LYP) =  -796.107399027     A.U. after   10 cycles
 SCF Done:  E(RB3LYP) =  -796.107399592     A.U. after    8 cycles
 SCF Done:  E(RB3LYP) =  -796.107399760     A.U. after    9 cycles
 Optimization completed.
    -- Stationary point found.
 Normal termination of Gaussian 09 at Wed Jul 28 22:32:29 2021.

 ----------------------------------------------------------------------
 #N Geom=AllCheck Guess=TCheck SCRF=Check GenChk RB3LYP/6-31G(d,p) Freq
 ----------------------------------------------------------------------

 Structure from the checkpoint file:  "conf-609.chk"
 ------------------------------------------------------------
 Candidate Structure: Conf:609 OPT and FREQ calc in gas phase
 ------------------------------------------------------------
 Charge =  0 Multiplicity = 1

                          Input orientation:
 ---------------------------------------------------------------------
 Center     Atomic      Atomic             Coordinates (Angstroms)
 Number     Number       Type             X           Y           Z
 ---------------------------------------------------------------------
      1          8           0        1.416001    1.082069   -0.577927
      2          6           0        1.622832    0.242997    0.293174
      3          7           0        0.608874   -0.542129    0.780452
      4          6           0       -0.699928   -0.521291    0.137251
      5          6           0       -0.518638   -0.893350   -1.345841
      6          8           0       -1.390324   -0.270352   -2.182058
      7          8           0        0.281772   -1.703649   -1.745781
      8          6           0       -1.476212    0.796569    0.417902
      9          6           0       -2.966833    0.663113    0.442148
     10          6           0       -3.867415    0.699432    1.483925
     11          7           0       -5.159651    0.541828    1.036080
     12          6           0       -5.051185    0.408768   -0.268948
     13          7           0       -3.751617    0.477621   -0.681019
     14          6           0        3.002775    0.015959    0.888132
     15          6           0        4.046364   -0.265546   -0.219331
     16          7           0        5.427205   -0.401578    0.232128
     17          1           0        0.853063   -1.358922    1.319522
     18          1           0       -1.273036   -1.345936    0.576546
     19          1           0       -1.169923   -0.590899   -3.073783
     20          1           0       -1.164496    1.128174    1.411815
     21          1           0       -1.142145    1.562284   -0.286614
     22          1           0       -3.648754    0.843126    2.533903
     23          1           0       -5.870059    0.262468   -0.960184
     24          1           0       -3.386431    0.372596   -1.616005
     25          1           0        3.284188    0.933485    1.419628
     26          1           0        2.997847   -0.797367    1.624641
     27          1           0        3.766446   -1.181939   -0.751528
     28          1           0        3.991476    0.546162   -0.950097
     29          1           0        5.507571   -1.152330    0.914293
     30          1           0        5.730302    0.448646    0.702027
 ---------------------------------------------------------------------

 SCF Done:  E(RB3LYP) =  -796.107399760     A.U. after    1 cycles

 Alpha  occ. eigenvalues --  -19.22102 -19.15530 -19.12510 -14.38079 -14.37571
 Alpha  occ. eigenvalues --  -14.31835 -14.30329 -10.33930 -10.29740 -10.26155
 Alpha  occ. eigenvalues --  -10.23133 -10.21440 -10.21373 -10.20626 -10.20220
 Alpha  occ. eigenvalues --  -10.18887  -1.12628  -1.04619  -1.03296  -1.00399
 Alpha  occ. eigenvalues --   -0.93798  -0.88566  -0.86129  -0.80565  -0.76208
 Alpha  occ. eigenvalues --   -0.73294  -0.67636  -0.65011  -0.61866  -0.60622
 Alpha  occ. eigenvalues --   -0.58765  -0.58006  -0.54341  -0.52097  -0.51055
 Alpha  occ. eigenvalues --   -0.50319  -0.49980  -0.47840  -0.46038  -0.44909
 Alpha  occ. eigenvalues --   -0.44333  -0.43025  -0.42570  -0.41874  -0.41223
 Alpha  occ. eigenvalues --   -0.40339  -0.39811  -0.39044  -0.38684  -0.38103
 Alpha  occ. eigenvalues --   -0.37011  -0.34732  -0.33499  -0.29315  -0.27720
 Alpha  occ. eigenvalues --   -0.27102  -0.26617  -0.25760  -0.23708  -0.21691
 Alpha virt. eigenvalues --   -0.01140   0.01203   0.03262   0.05519   0.05828
 Alpha virt. eigenvalues --    0.07495   0.07817   0.11338   0.12137   0.12491
 Alpha virt. eigenvalues --    0.12587   0.14852   0.14994   0.15356   0.15847

 Mulliken charges:
               1
     1  O   -0.526980
     2  C    0.606370
     3  N   -0.520170
     4  C   -0.012344
     5  C    0.618606
     6  O   -0.502675
     7  O   -0.462135
     8  C   -0.234583
     9  C    0.261505
    10  C   -0.016031
    11  N   -0.443805
    12  C    0.256801
    13  N   -0.524963
    14  C   -0.269393
    15  C   -0.059150
    16  N   -0.591567
    17  H    0.267381
    18  H    0.144601
    19  H    0.331613
    20  H    0.125377
    21  H    0.153647
    22  H    0.081508
    23  H    0.107200
    24  H    0.270836
    25  H    0.127984
    26  H    0.082157
    27  H    0.120233
    28  H    0.138180
    29  H    0.233380
    30  H    0.236415
 Sum of Mulliken charges =   0.00000

 Dipole moment (field-independent basis, Debye):
    X=              1.6401    Y=             -1.6777    Z=              0.2820  Tot=              2.3631
 Quadrupole moment (field-independent basis, Debye-Ang):
   XX=           -115.2937   YY=            -95.6506   ZZ=            -83.0743
   XY=              4.3595   XZ=             27.8554   YZ=             -3.0281

  Exact polarizability: 170.494  -4.233  87.973   3.682   2.426 116.565
 Approx polarizability: 211.089  -3.421 145.197  -0.610  -5.989 188.990

                      1                      2                      3
                      A                      A                      A
 Frequencies --     17.5692                27.2257                40.7061
 Red. masses --      5.0787                 5.0701                 5.0191
 Frc consts  --      0.0009                 0.0022                 0.0049
 IR Inten    --      0.5156                10.0519                 5.4994

                      4                      5                      6
                      A                      A                      A
 Frequencies --     56.4767                73.3905                91.9767
 Red. masses --      4.4038                 2.7801                 8.8261
 Frc consts  --      0.0083                 0.0088                 0.0440
 IR Inten    --      2.9262                 2.5485                 2.5893

                      7                      8                      9
                      A                      A                      A
 Frequencies --     95.7755               126.0911               146.0694
 Red. masses --      2.7220                 5.8613                 6.1612
 Frc consts  --      0.0147                 0.0549                 0.0775
 IR Inten    --      2.5088                 1.9063                 5.5491

                     10                     11                     12
                      A                      A                      A
 Frequencies --    189.2806               224.0364               280.3279
 Red. masses --      4.3581                 5.3367                 4.2818
 Frc consts  --      0.0920                 0.1578                 0.1982
 IR Inten    --      9.8537                 3.6258                 6.9420

                     13                     14                     15
                      A                      A                      A
 Frequencies --    307.1110               316.0221               336.3308
 Red. masses --      3.2186                 1.1154                 3.9320
 Frc consts  --      0.1789                 0.0656                 0.2621
 IR Inten    --      7.9152                47.3466                 2.4936

                     16                     17                     18
                      A                      A                      A
 Frequencies --    366.0644               388.1663               422.5191
 Red. masses --      3.5313                 3.4938                 1.3093
 Frc consts  --      0.2788                 0.3102                 0.1377
 IR Inten    --      2.8108                12.6527                62.7237

                     19                     20                     21
                      A                      A                      A
 Frequencies --    438.3297               519.9244               548.1671
 Red. masses --      4.5903                 3.6364                 3.0901
 Frc consts  --      0.5196                 0.5792                 0.5471
 IR Inten    --      8.5789                31.9724                26.5831

                     22                     23                     24
                      A                      A                      A
 Frequencies --    587.5914               612.7946               670.0468
 Red. masses --      1.5763                 2.0556                 2.4790
 Frc consts  --      0.3207                 0.4548                 0.6557
 IR Inten    --     41.1126                74.2766                52.3256

                     25                     26                     27
                      A                      A                      A
 Frequencies --    679.6860               692.0157               727.1334
 Red. masses --      3.0280                 2.0321                 3.4063
 Frc consts  --      0.8242                 0.5734                 1.0611
 IR Inten    --     34.8363                 5.6942                40.4514

                     28                     29                     30
                      A                      A                      A
 Frequencies --    736.2694               769.2982               778.6006
 Red. masses --      4.6283                 1.5367                 2.2076
 Frc consts  --      1.4782                 0.5358                 0.7885
 IR Inten    --      2.5872                 3.6826                 2.8015

                     31                     32                     33
                      A                      A                      A
 Frequencies --    802.7530               838.3740               847.6123
 Red. masses --      1.3787                 2.0088                 1.4362
 Frc consts  --      0.5235                 0.8319                 0.6079
 IR Inten    --     14.5468                78.6273                61.0375

                     34                     35                     36
                      A                      A                      A
 Frequencies --    859.3353               916.4154               934.7099
 Red. masses --      2.1157                 2.6395                 5.9234
 Frc consts  --      0.9205                 1.3060                 3.0491
 IR Inten    --    129.6514                 1.0630                14.4542

                     37                     38                     39
                      A                      A                      A
 Frequencies --    970.9155               989.0239              1022.5448
 Red. masses --      1.7367                 2.0655                 4.6701
 Frc consts  --      0.9646                 1.1904                 2.8770
 IR Inten    --      7.0389                10.8301                80.7093

                     40                     41                     42
                      A                      A                      A
 Frequencies --   1029.6171              1049.6996              1091.0184
 Red. masses --      3.7711                 4.5316                 1.9209
 Frc consts  --      2.3554                 2.9419                 1.3472
 IR Inten    --     20.7359                 5.1456                10.1176

                     43                     44                     45
                      A                      A                      A
 Frequencies --   1112.7163              1120.7189              1140.6162
 Red. masses --      3.1891                 1.5387                 1.5976
 Frc consts  --      2.3264                 1.1387                 1.2246
 IR Inten    --     16.8424                47.7474                35.6914

                     46                     47                     48
                      A                      A                      A
 Frequencies --   1154.3609              1168.9672              1200.5859
 Red. masses --      2.0361                 2.0854                 1.5457
 Frc consts  --      1.5986                 1.6790                 1.3127
 IR Inten    --     21.2065               165.7743                64.6296

                     49                     50                     51
                      A                      A                      A
 Frequencies --   1249.8971              1270.4246              1280.2224
 Red. masses --      1.7503                 2.3094                 1.3817
 Frc consts  --      1.6111                 2.1961                 1.3342
 IR Inten    --     75.0187                19.1173                 4.3967

                     52                     53                     54
                      A                      A                      A
 Frequencies --   1296.5698              1306.2953              1332.8611
 Red. masses --      1.3165                 1.2813                 1.4073
 Frc consts  --      1.3039                 1.2882                 1.4730
 IR Inten    --      2.6497                 1.8063                13.3453

                     55                     56                     57
                      A                      A                      A
 Frequencies --   1342.5039              1358.2978              1386.3036
 Red. masses --      1.4306                 1.8564                 1.8661
 Frc consts  --      1.5191                 2.0179                 2.1130
 IR Inten    --     28.1695                10.7268                 8.1621

                     58                     59                     60
                      A                      A                      A
 Frequencies --   1390.9600              1399.0839              1402.2028
 Red. masses --      1.2447                 1.2668                 2.9923
 Frc consts  --      1.4189                 1.4610                 3.4664
 IR Inten    --      6.6794                19.7888                16.3137

                     61                     62                     63
                      A                      A                      A
 Frequencies --   1442.3283              1487.4235              1495.0344
 Red. masses --      3.0061                 1.1038                 1.1231
 Frc consts  --      3.6846                 1.4388                 1.4790
 IR Inten    --     26.2013                 2.2475                 8.9610

                     64                     65                     66
                      A                      A                      A
 Frequencies --   1512.9079              1516.3361              1529.3300
 Red. masses --      1.0896                 3.6195                 1.9905
 Frc consts  --      1.4694                 4.9033                 2.7429
 IR Inten    --      3.2690                39.3104               214.0987

                     67                     68                     69
                      A                      A                      A
 Frequencies --   1618.5222              1672.6410              1767.2100
 Red. masses --      4.4325                 1.0911                 9.5503
 Frc consts  --      6.8413                 1.7985                17.5729
 IR Inten    --      8.2309                22.3818               158.5580

                     70                     71                     72
                      A                      A                      A
 Frequencies --   1852.2756              3034.8724              3058.9368
 Red. masses --     10.3584                 1.0593                 1.0674
 Frc consts  --     20.9389                 5.7485                 5.8844
 IR Inten    --    254.7323                15.8512                23.9468

                     73                     74                     75
                      A                      A                      A
 Frequencies --   3067.3649              3079.9921              3084.4198
 Red. masses --      1.0829                 1.0996                 1.0620
 Frc consts  --      6.0032                 6.1457                 5.9528
 IR Inten    --      4.1428                13.2282                11.6585

                     76                     77                     78
                      A                      A                      A
 Frequencies --   3118.6585              3130.8712              3245.2826
 Red. masses --      1.1037                 1.1038                 1.0957
 Frc consts  --      6.3246                 6.3750                 6.7991
 IR Inten    --     20.6579                 3.7098                 9.9641

                     79                     80                     81
                      A                      A                      A
 Frequencies --   3256.8206              3486.1031              3572.0043
 Red. masses --      1.0969                 1.0488                 1.0930
 Frc consts  --      6.8552                 7.5100                 8.2166
 IR Inten    --      2.5780                 0.7528                 0.1575

                     82                     83                     84
                      A                      A                      A
 Frequencies --   3648.7480              3659.9530              3743.5387
 Red. masses --      1.0784                 1.0811                 1.0641
 Frc consts  --      8.4592                 8.5326                 8.7862
 IR Inten    --     25.9961               109.6342                67.1645

 - Thermochemistry -
 -------------------
 Temperature   298.150 Kelvin.  Pressure   1.00000 Atm.
 Atom     1 has atomic number  8 and mass  15.99491

 Molecular mass:   226.10659 amu.
 Principal axes and moments of inertia in atomic units:
                           1         2         3
     Eigenvalues --  1304.995268029.347788768.67633
           X            0.99585   0.05065   0.07563
           Y           -0.08957   0.39724   0.91333
           Z           -0.01622   0.91632  -0.40013
 This molecule is an asymmetric top.
 Rotational symmetry number  1.
 Warning -- assumption of classical behavior for rotation
           may cause significant error
 Rotational temperatures (Kelvin)      0.06637     0.01079     0.00988
 Rotational constants (GHZ):           1.38295     0.22477     0.20582
 Zero-point vibrational energy     643663.8 (Joules/Mol)
                                  153.83933 (Kcal/Mol)
 Warning -- explicit consideration of  23 degrees of freedom as
           vibrations may cause significant error
 Vibrational temperatures:     25.28    39.17    58.57    81.26   105.59
          (Kelvin)            132.33   137.80   181.42   210.16   272.33
                              322.34   403.33   441.86   454.68   483.90
                              526.68   558.48   607.91   630.66   748.05
                              788.69   845.41   881.67   964.05   977.92
                              995.65  1046.18  1059.33  1106.85  1120.23
                             1154.98  1206.23  1219.52  1236.39  1318.52
                             1344.84  1396.93  1422.98  1471.21  1481.39
                             1510.28  1569.73  1600.95  1612.46  1641.09
                             1660.87  1681.88  1727.37  1798.32  1827.86
                             1841.95  1865.47  1879.47  1917.69  1931.56
                             1954.29  1994.58  2001.28  2012.97  2017.45
                             2075.19  2140.07  2151.02  2176.73  2181.67
                             2200.36  2328.69  2406.55  2542.62  2665.01
                             4366.50  4401.12  4413.25  4431.42  4437.79
                             4487.05  4504.62  4669.23  4685.83  5015.72
                             5139.31  5249.73  5265.85  5386.11

 Zero-point correction=                           0.245159 (Hartree/Particle)
 Thermal correction to Energy=                    0.261346
 Thermal correction to Enthalpy=                  0.262290
 Thermal correction to Gibbs Free Energy=         0.198449
 Sum of electronic and zero-point Energies=           -795.862241
 Sum of electronic and thermal Energies=              -795.846054
 Sum of electronic and thermal Enthalpies=            -795.845110
 Sum of electronic and thermal Free Energies=         -795.908951

                     E (Thermal)             CV                S
                      KCal/Mol        Cal/Mol-Kelvin    Cal/Mol-Kelvin
 Total                  163.997             58.719            134.365
 Electronic               0.000              0.000              0.000
 Translational            0.889              2.981             42.150
 Rotational               0.889              2.981             32.885
 Vibrational            162.220             52.758             59.330
 Vibration     1          0.593              1.986              6.892
 Vibration     2          0.593              1.984              6.022
 Vibration     3          0.594              1.981              5.224
 Vibration     4          0.596              1.975              4.577
 Vibration     5          0.599              1.967              4.060
 Vibration     6          0.602              1.955              3.618
 Vibration     7          0.603              1.952              3.539
 Vibration     8          0.611              1.927              3.005
 Vibration     9          0.617              1.907              2.723
 Vibration    10          0.633              1.855              2.235
 Vibration    11          0.649              1.804              1.926
 Vibration    12          0.680              1.710              1.532
 Vibration    13          0.697              1.660              1.378
 Vibration    14          0.703              1.643              1.331
 Vibration    15          0.717              1.603              1.230
 Vibration    16          0.739              1.542              1.096
 Vibration    17          0.756              1.495              1.007
 Vibration    18          0.785              1.421              0.883
 Vibration    19          0.799              1.387              0.832
 Vibration    20          0.875              1.206              0.610
 Vibration    21          0.903              1.144              0.548
 Vibration    22          0.945              1.058              0.471
 Vibration    23          0.972              1.005              0.428

 Optimization completed.
    -- Stationary point found.
 Normal termination of Gaussian 09 at Wed Jul 28 22:51:05 2021.
