 Gaussian 09, Revision D.01,
 Gaussian 09:  ES64L-G09RevD.01 24-Apr-2013

 ----------------------------------------------------------------------
 # B3LYP/6-31G(d,p) opt=calcfc freq=noraman nosymm integral(ultrafinegr
 id)
 ----------------------------------------------------------------------

 ------------------------------------------------------------
 Candidate Structure: Conf:640 OPT and FREQ calc in gas phase
 ------------------------------------------------------------
 Symbolic Z-matrix:
 Charge =  0 Multiplicity = 1

 SCF Done:  E(RB3LYP) =  -796.114422870     A.U. after   14 cycles
 SCF Done:  E(RB3LYP) =  -796.116694745     A.U. after   12 cycles
 SCF Done:  E(RB3LYP) =  -796.116944591     A.U. after   12 cycles
 SCF Done:  E(RB3LYP) =  -796.116954212     A.U. after   10 cycles
 SCF Done:  E(RB3LYP) =  -796.116954424     A.U. after   10 cycles
 SCF Done:  E(RB3LYP) =  -796.116955205     A.U. after    9 cycles
 SCF Done:  E(RB3LYP) =  -796.116955210     A.U. after    7 cycles
 Optimization completed.
    -- Stationary point found.
 Normal termination of Gaussian 09 at Wed Jul 28 22:28:44 2021.

 ----------------------------------------------------------------------
 #N Geom=AllCheck Guess=TCheck SCRF=Check GenChk RB3LYP/6-31G(d,p) Freq
 ----------------------------------------------------------------------

 Structure from the checkpoint file:  "conf-640.chk"
 ------------------------------------------------------------
 Candidate Structure: Conf:640 OPT and FREQ calc in gas phase
 ------------------------------------------------------------
 Charge =  0 Multiplicity = 1

                          Input orientation:
 ---------------------------------------------------------------------
 Center     Atomic      Atomic             Coordinates (Angstroms)
 Number     Number       Type             X           Y           Z
 ---------------------------------------------------------------------
      1          8           0        0.920094   -1.280408   -0.901395
      2          6           0        1.171277   -0.124712   -0.542521
      3          7           0        0.256192    0.880511   -0.635335
      4          6           0       -0.984153    0.728527   -1.373945
      5          6           0       -1.117664    1.920062   -2.315707
      6          8           0       -2.078972    1.726028   -3.237965
      7          8           0       -0.467125    2.939631   -2.230815
      8          6           0       -2.262879    0.635064   -0.494584
      9          6           0       -2.253613   -0.429013    0.562013
     10          6           0       -2.968610   -0.523517    1.735331
     11          7           0       -2.727364   -1.720574    2.369721
     12          6           0       -1.867834   -2.345089    1.591671
     13          7           0       -1.560499   -1.622100    0.474631
     14          6           0        2.517433    0.241747    0.057086
     15          6           0        2.924347   -0.730143    1.190046
     16          7           0        4.250946   -0.517142    1.756792
     17          1           0        0.554047    1.834182   -0.474347
     18          1           0       -0.897424   -0.183677   -1.972445
     19          1           0       -2.129226    2.539294   -3.769429
     20          1           0       -3.102249    0.489266   -1.186597
     21          1           0       -2.429754    1.602335   -0.006010
     22          1           0       -3.652812    0.205719    2.149093
     23          1           0       -1.429859   -3.314859    1.784576
     24          1           0       -0.797309   -1.811398   -0.174416
     25          1           0        2.522550    1.276282    0.420900
     26          1           0        3.258052    0.176422   -0.750560
     27          1           0        2.190847   -0.663007    2.001784
     28          1           0        2.865595   -1.750288    0.800718
     29          1           0        4.332396    0.423411    2.135948
     30          1           0        4.963650   -0.602684    1.035710
 ---------------------------------------------------------------------

 SCF Done:  E(RB3LYP) =  -796.116955210     A.U. after    1 cycles

 Alpha  occ. eigenvalues --  -19.22687 -19.17088 -19.13707 -14.38307 -14.36923
 Alpha  occ. eigenvalues --  -14.32118 -14.29620 -10.35009 -10.30975 -10.26463
 Alpha  occ. eigenvalues --  -10.22202 -10.21861 -10.21826 -10.21024 -10.20796
 Alpha  occ. eigenvalues --  -10.18241  -1.13683  -1.05538  -1.04624  -0.99513
 Alpha  occ. eigenvalues --   -0.94796  -0.88909  -0.85333  -0.81303  -0.76641
 Alpha  occ. eigenvalues --   -0.73932  -0.67725  -0.65503  -0.61985  -0.60815
 Alpha  occ. eigenvalues --   -0.59116  -0.57363  -0.54408  -0.51902  -0.51659
 Alpha  occ. eigenvalues --   -0.50992  -0.49582  -0.48761  -0.47703  -0.46130
 Alpha  occ. eigenvalues --   -0.44531  -0.43934  -0.42801  -0.41999  -0.41691
 Alpha  occ. eigenvalues --   -0.40827  -0.40034  -0.39264  -0.38802  -0.38365
 Alpha  occ. eigenvalues --   -0.36993  -0.35095  -0.34797  -0.30947  -0.28413
 Alpha  occ. eigenvalues --   -0.27802  -0.26402  -0.25078  -0.24080  -0.20970
 Alpha virt. eigenvalues --   -0.01942   0.00021   0.03929   0.05427   0.06881
 Alpha virt. eigenvalues --    0.07715   0.08013   0.10180   0.12100   0.12303
 Alpha virt. eigenvalues --    0.13697   0.14547   0.15066   0.15242   0.16895

 Mulliken charges:
               1
     1  O   -0.549593
     2  C    0.602027
     3  N   -0.503847
     4  C   -0.030696
     5  C    0.582012
     6  O   -0.473651
     7  O   -0.467933
     8  C   -0.230667
     9  C    0.284848
    10  C   -0.021119
    11  N   -0.445682
    12  C    0.250696
    13  N   -0.545340
    14  C   -0.265016
    15  C   -0.060062
    16  N   -0.590503
    17  H    0.278798
    18  H    0.160397
    19  H    0.332881
    20  H    0.143207
    21  H    0.118533
    22  H    0.078106
    23  H    0.107864
    24  H    0.291637
    25  H    0.092805
    26  H    0.130841
    27  H    0.120187
    28  H    0.136455
    29  H    0.235884
    30  H    0.236933
 Sum of Mulliken charges =   0.00000

 Dipole moment (field-independent basis, Debye):
    X=              1.8072    Y=              4.0275    Z=             -4.1676  Tot=              6.0708
 Quadrupole moment (field-independent basis, Debye-Ang):
   XX=            -92.7378   YY=            -94.8652   ZZ=            -98.3921
   XY=             -4.7926   XZ=             10.2866   YZ=              3.4945

  Exact polarizability: 130.333  -7.320 124.579   1.280 -20.883 117.075
 Approx polarizability: 172.722 -10.831 203.431  -7.522 -10.826 172.717

                      1                      2                      3
                      A                      A                      A
 Frequencies --     21.6436                35.3269                60.0192
 Red. masses --      5.3228                 3.0884                 6.3201
 Frc consts  --      0.0015                 0.0023                 0.0134
 IR Inten    --      0.6003                 2.3350                 3.4825

                      4                      5                      6
                      A                      A                      A
 Frequencies --     66.7580                74.7009                85.3941
 Red. masses --      5.1522                 4.5921                 2.0967
 Frc consts  --      0.0135                 0.0151                 0.0090
 IR Inten    --      2.1642                 2.8934                 1.5764

                      7                      8                      9
                      A                      A                      A
 Frequencies --    102.7066               139.4239               168.3785
 Red. masses --      6.2446                 5.5372                 5.9087
 Frc consts  --      0.0388                 0.0634                 0.0987
 IR Inten    --      0.6013                 9.6828                11.9146

                     10                     11                     12
                      A                      A                      A
 Frequencies --    185.0992               209.6062               257.8743
 Red. masses --      4.4242                 5.2636                 4.9162
 Frc consts  --      0.0893                 0.1363                 0.1926
 IR Inten    --      6.9681                 9.2380                 0.9110

                     13                     14                     15
                      A                      A                      A
 Frequencies --    290.0607               316.1554               325.2379
 Red. masses --      3.5339                 1.1161                 6.4827
 Frc consts  --      0.1752                 0.0657                 0.4040
 IR Inten    --      1.0181                45.7381                 4.3797

                     16                     17                     18
                      A                      A                      A
 Frequencies --    341.0914               393.5380               451.4415
 Red. masses --      3.5834                 3.6744                 3.7210
 Frc consts  --      0.2456                 0.3353                 0.4468
 IR Inten    --      6.7832                 4.4679                 8.8848

                     19                     20                     21
                      A                      A                      A
 Frequencies --    524.3249               557.3697               606.7453
 Red. masses --      3.2631                 1.3362                 1.4395
 Frc consts  --      0.5285                 0.2446                 0.3122
 IR Inten    --     33.7778                73.0179                86.6350

                     22                     23                     24
                      A                      A                      A
 Frequencies --    625.4678               630.0036               651.3048
 Red. masses --      3.1862                 3.8278                 3.8537
 Frc consts  --      0.7344                 0.8951                 0.9632
 IR Inten    --     13.4966                17.4677                48.2218

                     25                     26                     27
                      A                      A                      A
 Frequencies --    675.6205               699.7839               749.3203
 Red. masses --      3.8900                 2.8371                 3.4087
 Frc consts  --      1.0462                 0.8186                 1.1277
 IR Inten    --     27.2599                39.0047                 9.8642

                     28                     29                     30
                      A                      A                      A
 Frequencies --    758.3145               774.9236               783.3276
 Red. masses --      1.2311                 1.3590                 3.5600
 Frc consts  --      0.4171                 0.4808                 1.2870
 IR Inten    --    101.6873                 1.6807                25.7384

                     31                     32                     33
                      A                      A                      A
 Frequencies --    806.3548               838.6973               845.5414
 Red. masses --      1.3719                 1.3074                 1.5085
 Frc consts  --      0.5256                 0.5418                 0.6354
 IR Inten    --     12.6703                23.9582               235.7900

                     34                     35                     36
                      A                      A                      A
 Frequencies --    894.8096               930.2032               937.8840
 Red. masses --      2.0749                 4.5851                 5.7799
 Frc consts  --      0.9788                 2.3375                 2.9955
 IR Inten    --      2.7047                 1.0216                19.8867

                     37                     38                     39
                      A                      A                      A
 Frequencies --    979.2852               996.3215              1020.5124
 Red. masses --      1.3887                 3.4163                 3.5583
 Frc consts  --      0.7847                 1.9981                 2.1834
 IR Inten    --      3.7830                 6.9594                20.8062

                     40                     41                     42
                      A                      A                      A
 Frequencies --   1022.8441              1052.5003              1108.4770
 Red. masses --      4.4282                 3.1194                 2.7072
 Frc consts  --      2.7296                 2.0359                 1.9599
 IR Inten    --     85.4900                 4.3821                 6.9075

                     43                     44                     45
                      A                      A                      A
 Frequencies --   1122.2323              1148.5999              1154.4955
 Red. masses --      2.2359                 1.9270                 1.8839
 Frc consts  --      1.6591                 1.4978                 1.4794
 IR Inten    --     35.6318                28.5647                68.9307

                     46                     47                     48
                      A                      A                      A
 Frequencies --   1164.2488              1188.3375              1233.0296
 Red. masses --      1.7367                 2.0848                 1.4300
 Frc consts  --      1.3870                 1.7346                 1.2809
 IR Inten    --     11.8468               118.6008                26.4887

                     49                     50                     51
                      A                      A                      A
 Frequencies --   1249.5793              1271.5435              1285.0317
 Red. masses --      1.5424                 1.5890                 1.4479
 Frc consts  --      1.4190                 1.5137                 1.4086
 IR Inten    --     15.0187                10.8674                 9.0634

                     52                     53                     54
                      A                      A                      A
 Frequencies --   1287.0219              1300.6032              1341.8532
 Red. masses --      1.7863                 1.3207                 1.3800
 Frc consts  --      1.7433                 1.3163                 1.4640
 IR Inten    --     22.0189                 5.7703                 7.7383

                     55                     56                     57
                      A                      A                      A
 Frequencies --   1360.4263              1378.4536              1391.5687
 Red. masses --      1.8298                 1.3926                 1.2289
 Frc consts  --      1.9952                 1.5590                 1.4020
 IR Inten    --      1.1567                11.8262                 6.3405

                     58                     59                     60
                      A                      A                      A
 Frequencies --   1400.6774              1403.8380              1414.6468
 Red. masses --      1.3693                 2.4693                 2.6774
 Frc consts  --      1.5828                 2.8672                 3.1568
 IR Inten    --      5.1962                 8.1052               198.5983

                     61                     62                     63
                      A                      A                      A
 Frequencies --   1472.5143              1481.6010              1495.7350
 Red. masses --      2.2413                 1.1161                 1.1695
 Frc consts  --      2.8633                 1.4435                 1.5415
 IR Inten    --     36.4501                 3.7370                19.3334

                     64                     65                     66
                      A                      A                      A
 Frequencies --   1512.3106              1513.6412              1549.3052
 Red. masses --      1.1383                 3.0714                 2.1222
 Frc consts  --      1.5339                 4.1461                 3.0013
 IR Inten    --      5.8904                13.4402               260.1000

                     67                     68                     69
                      A                      A                      A
 Frequencies --   1620.2114              1672.7190              1733.1579
 Red. masses --      3.6077                 1.0928                 8.3954
 Frc consts  --      5.5798                 1.8015                14.8583
 IR Inten    --     11.2911                25.3302               186.3525

                     70                     71                     72
                      A                      A                      A
 Frequencies --   1836.8507              3035.4836              3036.1080
 Red. masses --     10.0410                 1.0592                 1.0611
 Frc consts  --     19.9606                 5.7500                 5.7630
 IR Inten    --    243.8404                 8.1466                23.3777

                     73                     74                     75
                      A                      A                      A
 Frequencies --   3059.0282              3072.9918              3080.5652
 Red. masses --      1.0661                 1.0992                 1.1011
 Frc consts  --      5.8779                 6.1159                 6.1566
 IR Inten    --     26.9453                 8.4012                10.9979

                     76                     77                     78
                      A                      A                      A
 Frequencies --   3095.3688              3118.9766              3242.9848
 Red. masses --      1.0863                 1.1035                 1.0957
 Frc consts  --      6.1323                 6.3249                 6.7897
 IR Inten    --      8.2990                20.2566                10.7850

                     79                     80                     81
                      A                      A                      A
 Frequencies --   3258.7103              3477.5799              3488.6478
 Red. masses --      1.0967                 1.0857                 1.0488
 Frc consts  --      6.8616                 7.7358                 7.5208
 IR Inten    --      2.2486               355.0775                 0.9009

                     82                     83                     84
                      A                      A                      A
 Frequencies --   3575.1680              3611.9884              3746.4021
 Red. masses --      1.0932                 1.0773                 1.0642
 Frc consts  --      8.2325                 8.2809                 8.8008
 IR Inten    --      0.0602                57.8201                73.2366

 - Thermochemistry -
 -------------------
 Temperature   298.150 Kelvin.  Pressure   1.00000 Atm.
 Atom     1 has atomic number  8 and mass  15.99491

 Molecular mass:   226.10659 amu.
 Principal axes and moments of inertia in atomic units:
                           1         2         3
     Eigenvalues --  3629.204464383.700377219.28961
           X            0.85474  -0.51587  -0.05746
           Y           -0.30106  -0.58289   0.75472
           Z            0.42283   0.62778   0.65353
 This molecule is an asymmetric top.
 Rotational symmetry number  1.
 Warning -- assumption of classical behavior for rotation
           may cause significant error
 Rotational temperatures (Kelvin)      0.02387     0.01976     0.01200
 Rotational constants (GHZ):           0.49728     0.41169     0.24999
 Zero-point vibrational energy     645257.5 (Joules/Mol)
                                  154.22024 (Kcal/Mol)
 Warning -- explicit consideration of  21 degrees of freedom as
           vibrations may cause significant error
 Vibrational temperatures:     31.14    50.83    86.35    96.05   107.48
          (Kelvin)            122.86   147.77   200.60   242.26   266.32
                              301.58   371.02   417.33   454.88   467.94
                              490.75   566.21   649.52   754.39   801.93
                              872.97   899.91   906.43   937.08   972.07
                             1006.83  1078.10  1091.04  1114.94  1127.03
                             1160.16  1206.70  1216.54  1287.43  1338.35
                             1349.40  1408.97  1433.48  1468.29  1471.64
                             1514.31  1594.85  1614.64  1652.58  1661.06
                             1675.09  1709.75  1774.05  1797.86  1829.47
                             1848.87  1851.74  1871.28  1930.63  1957.35
                             1983.28  2002.15  2015.26  2019.81  2035.36
                             2118.62  2131.69  2152.03  2175.87  2177.79
                             2229.10  2331.12  2406.67  2493.62  2642.82
                             4367.38  4368.28  4401.25  4421.34  4432.24
                             4453.54  4487.51  4665.93  4688.55  5003.46
                             5019.38  5143.86  5196.84  5390.23

 Zero-point correction=                           0.245766 (Hartree/Particle)
 Thermal correction to Energy=                    0.261695
 Thermal correction to Enthalpy=                  0.262639
 Thermal correction to Gibbs Free Energy=         0.199965
 Sum of electronic and zero-point Energies=           -795.871190
 Sum of electronic and thermal Energies=              -795.855260
 Sum of electronic and thermal Enthalpies=            -795.854316
 Sum of electronic and thermal Free Energies=         -795.916990

                     E (Thermal)             CV                S
                      KCal/Mol        Cal/Mol-Kelvin    Cal/Mol-Kelvin
 Total                  164.216             57.963            131.909
 Electronic               0.000              0.000              0.000
 Translational            0.889              2.981             42.150
 Rotational               0.889              2.981             33.107
 Vibrational            162.439             52.001             56.652
 Vibration     1          0.593              1.985              6.477
 Vibration     2          0.594              1.982              5.505
 Vibration     3          0.597              1.973              4.457
 Vibration     4          0.598              1.970              4.247
 Vibration     5          0.599              1.966              4.026
 Vibration     6          0.601              1.959              3.763
 Vibration     7          0.605              1.947              3.402
 Vibration     8          0.615              1.914              2.812
 Vibration     9          0.625              1.881              2.454
 Vibration    10          0.631              1.860              2.276
 Vibration    11          0.642              1.826              2.047
 Vibration    12          0.667              1.749              1.676
 Vibration    13          0.686              1.692              1.474
 Vibration    14          0.703              1.643              1.330
 Vibration    15          0.709              1.625              1.284
 Vibration    16          0.721              1.593              1.207
 Vibration    17          0.761              1.484              0.987
 Vibration    18          0.810              1.358              0.791
 Vibration    19          0.879              1.196              0.600
 Vibration    20          0.913              1.124              0.529
 Vibration    21          0.965              1.018              0.438

 Optimization completed.
    -- Stationary point found.
 Normal termination of Gaussian 09 at Wed Jul 28 22:48:29 2021.
