 Gaussian 09, Revision D.01,
 Gaussian 09:  ES64L-G09RevD.01 24-Apr-2013

 ----------------------------------------------------------------------
 # B3LYP/6-31G(d,p) opt=calcfc freq=noraman nosymm integral(ultrafinegr
 id)
 ----------------------------------------------------------------------

 ------------------------------------------------------------
 Candidate Structure: Conf:599 OPT and FREQ calc in gas phase
 ------------------------------------------------------------
 Symbolic Z-matrix:
 Charge =  0 Multiplicity = 1

 SCF Done:  E(RB3LYP) =  -796.104602183     A.U. after   15 cycles
 SCF Done:  E(RB3LYP) =  -796.107237334     A.U. after   12 cycles
 SCF Done:  E(RB3LYP) =  -796.107311962     A.U. after   12 cycles
 SCF Done:  E(RB3LYP) =  -796.107318050     A.U. after   12 cycles
 SCF Done:  E(RB3LYP) =  -796.107327908     A.U. after   11 cycles
 SCF Done:  E(RB3LYP) =  -796.107328032     A.U. after    8 cycles
 Optimization completed.
    -- Stationary point found.
 Normal termination of Gaussian 09 at Wed Jul 28 22:27:40 2021.

 ----------------------------------------------------------------------
 #N Geom=AllCheck Guess=TCheck SCRF=Check GenChk RB3LYP/6-31G(d,p) Freq
 ----------------------------------------------------------------------

 Structure from the checkpoint file:  "conf-599.chk"
 ------------------------------------------------------------
 Candidate Structure: Conf:599 OPT and FREQ calc in gas phase
 ------------------------------------------------------------
 Charge =  0 Multiplicity = 1

                          Input orientation:
 ---------------------------------------------------------------------
 Center     Atomic      Atomic             Coordinates (Angstroms)
 Number     Number       Type             X           Y           Z
 ---------------------------------------------------------------------
      1          8           0        2.722614    1.619582    0.772249
      2          6           0        1.918007    0.791487    0.376147
      3          7           0        1.052710    1.132103   -0.669543
      4          6           0       -0.222478    0.479195   -0.980450
      5          6           0       -0.375201    0.359812   -2.513793
      6          8           0        0.773369    0.376335   -3.200552
      7          8           0       -1.442551    0.231885   -3.073641
      8          6           0       -1.444734    1.167831   -0.311313
      9          6           0       -2.624691    0.281126   -0.065914
     10          6           0       -3.238450   -0.111802    1.103534
     11          7           0       -4.315020   -0.928323    0.847349
     12          6           0       -4.355075   -1.033090   -0.465937
     13          7           0       -3.361836   -0.318959   -1.066993
     14          6           0        1.842933   -0.625136    0.928836
     15          6           0        2.956468   -0.917182    1.956456
     16          7           0        4.328193   -0.864198    1.470522
     17          1           0        1.079047    2.136176   -0.831226
     18          1           0       -0.164398   -0.549400   -0.611713
     19          1           0        1.489482    0.552377   -2.558715
     20          1           0       -1.724270    2.046295   -0.907769
     21          1           0       -1.111632    1.540067    0.662053
     22          1           0       -2.965743    0.162387    2.114381
     23          1           0       -5.075030   -1.609222   -1.030878
     24          1           0       -3.117485   -0.257897   -2.049114
     25          1           0        0.858749   -0.772057    1.396168
     26          1           0        1.894087   -1.342597    0.097949
     27          1           0        2.865083   -0.202652    2.780211
     28          1           0        2.770612   -1.911729    2.377519
     29          1           0        4.462902   -1.506525    0.693315
     30          1           0        4.524264    0.074167    1.133152
 ---------------------------------------------------------------------

 SCF Done:  E(RB3LYP) =  -796.107328032     A.U. after    1 cycles

 Alpha  occ. eigenvalues --  -19.22169 -19.16884 -19.15312 -14.40022 -14.38197
 Alpha  occ. eigenvalues --  -14.31518 -14.30779 -10.35168 -10.32510 -10.28068
 Alpha  occ. eigenvalues --  -10.23534 -10.23034 -10.22237 -10.22146 -10.22053
 Alpha  occ. eigenvalues --  -10.19648  -1.13321  -1.07198  -1.05015  -1.00844
 Alpha  occ. eigenvalues --   -0.96095  -0.88703  -0.86549  -0.81434  -0.77712
 Alpha  occ. eigenvalues --   -0.74654  -0.68703  -0.66032  -0.63794  -0.60614
 Alpha  occ. eigenvalues --   -0.59410  -0.58791  -0.57025  -0.54353  -0.53383
 Alpha  occ. eigenvalues --   -0.51099  -0.48884  -0.48381  -0.47938  -0.46837
 Alpha  occ. eigenvalues --   -0.45609  -0.44113  -0.43680  -0.43151  -0.42799
 Alpha  occ. eigenvalues --   -0.41607  -0.40753  -0.40302  -0.39798  -0.38608
 Alpha  occ. eigenvalues --   -0.38116  -0.36535  -0.34506  -0.32014  -0.30158
 Alpha  occ. eigenvalues --   -0.28231  -0.27544  -0.26186  -0.23920  -0.22414
 Alpha virt. eigenvalues --   -0.02620  -0.01835   0.02490   0.05177   0.06613
 Alpha virt. eigenvalues --    0.06975   0.08650   0.09097   0.10492   0.11660
 Alpha virt. eigenvalues --    0.12555   0.12652   0.13350   0.14991   0.15152

 Mulliken charges:
               1
     1  O   -0.480790
     2  C    0.577107
     3  N   -0.593995
     4  C   -0.033685
     5  C    0.614940
     6  O   -0.468683
     7  O   -0.469753
     8  C   -0.241710
     9  C    0.267860
    10  C   -0.016237
    11  N   -0.443413
    12  C    0.258761
    13  N   -0.526375
    14  C   -0.293307
    15  C   -0.048834
    16  N   -0.594464
    17  H    0.277622
    18  H    0.164387
    19  H    0.336898
    20  H    0.129316
    21  H    0.127509
    22  H    0.082769
    23  H    0.112293
    24  H    0.291460
    25  H    0.134726
    26  H    0.118421
    27  H    0.126426
    28  H    0.105429
    29  H    0.228019
    30  H    0.257299
 Sum of Mulliken charges =   0.00000

 Dipole moment (field-independent basis, Debye):
    X=              1.5739    Y=              0.4577    Z=             -1.9041  Tot=              2.5124
 Quadrupole moment (field-independent basis, Debye-Ang):
   XX=           -118.2960   YY=            -91.6104   ZZ=           -105.6918
   XY=             -5.8273   XZ=             -2.3271   YZ=              1.5921

  Exact polarizability: 152.657  19.917  97.320   9.202  -1.193 122.677
 Approx polarizability: 206.411  37.819 153.214  10.258   3.864 192.250

                      1                      2                      3
                      A                      A                      A
 Frequencies --     19.7234                39.2706                51.7416
 Red. masses --      5.7029                 4.7443                 3.4683
 Frc consts  --      0.0013                 0.0043                 0.0055
 IR Inten    --      0.3695                 0.3563                 2.4639

                      4                      5                      6
                      A                      A                      A
 Frequencies --     66.1724                81.2761                91.2590
 Red. masses --      6.6709                 5.1881                 6.2603
 Frc consts  --      0.0172                 0.0202                 0.0307
 IR Inten    --      0.5321                 0.8240                 9.8027

                      7                      8                      9
                      A                      A                      A
 Frequencies --    137.2265               146.4185               157.3004
 Red. masses --      4.8375                 5.8374                 3.0705
 Frc consts  --      0.0537                 0.0737                 0.0448
 IR Inten    --      3.0916                11.3651                 5.7819

                     10                     11                     12
                      A                      A                      A
 Frequencies --    207.9909               246.9389               284.6318
 Red. masses --      4.2640                 3.0718                 4.5232
 Frc consts  --      0.1087                 0.1104                 0.2159
 IR Inten    --      6.0792                 8.5950                 9.1056

                     13                     14                     15
                      A                      A                      A
 Frequencies --    312.4963               338.8115               363.9266
 Red. masses --      4.1203                 2.9494                 4.8370
 Frc consts  --      0.2371                 0.1995                 0.3774
 IR Inten    --      1.1734                 3.5536                12.8319

                     16                     17                     18
                      A                      A                      A
 Frequencies --    370.9574               413.7608               441.0268
 Red. masses --      1.1641                 2.8558                 5.2034
 Frc consts  --      0.0944                 0.2881                 0.5963
 IR Inten    --     56.4276                11.9337                 0.9019

                     19                     20                     21
                      A                      A                      A
 Frequencies --    523.9498               550.9923               598.0084
 Red. masses --      2.3546                 2.8177                 4.1575
 Frc consts  --      0.3808                 0.5040                 0.8760
 IR Inten    --     16.9060                 3.5151                 9.9834

                     22                     23                     24
                      A                      A                      A
 Frequencies --    624.9495               648.7319               672.7782
 Red. masses --      3.4209                 3.4161                 3.0459
 Frc consts  --      0.7872                 0.8471                 0.8123
 IR Inten    --     34.9777                 5.8643                29.7311

                     25                     26                     27
                      A                      A                      A
 Frequencies --    688.5993               719.0043               736.7755
 Red. masses --      1.5338                 3.7958                 1.3114
 Frc consts  --      0.4285                 1.1562                 0.4194
 IR Inten    --     73.2236                 4.7117                57.5413

                     28                     29                     30
                      A                      A                      A
 Frequencies --    742.3859               805.5998               815.3544
 Red. masses --      2.8765                 2.1949                 1.3173
 Frc consts  --      0.9340                 0.8393                 0.5160
 IR Inten    --     10.2977                77.1162                44.2719

                     31                     32                     33
                      A                      A                      A
 Frequencies --    816.8890               830.1808               847.6906
 Red. masses --      1.4539                 2.3825                 1.3611
 Frc consts  --      0.5716                 0.9674                 0.5762
 IR Inten    --     46.0836                47.3143                14.2958

                     34                     35                     36
                      A                      A                      A
 Frequencies --    868.3151               887.8754               930.8017
 Red. masses --      1.5364                 2.6536                 1.6126
 Frc consts  --      0.6825                 1.2325                 0.8232
 IR Inten    --    214.2955                11.0488                13.4408

                     37                     38                     39
                      A                      A                      A
 Frequencies --    936.9285               985.0161              1023.2499
 Red. masses --      5.9019                 2.7203                 2.1687
 Frc consts  --      3.0525                 1.5551                 1.3379
 IR Inten    --     15.5855                 3.1035                72.7810

                     40                     41                     42
                      A                      A                      A
 Frequencies --   1027.3021              1051.5849              1116.1722
 Red. masses --      3.9967                 4.1548                 2.4317
 Frc consts  --      2.4851                 2.7070                 1.7849
 IR Inten    --      4.1405                18.8534                 5.4163

                     43                     44                     45
                      A                      A                      A
 Frequencies --   1127.9847              1129.5878              1156.5544
 Red. masses --      1.5674                 3.5500                 1.9503
 Frc consts  --      1.1750                 2.6689                 1.5370
 IR Inten    --     74.3411                25.5820                 8.4852

                     46                     47                     48
                      A                      A                      A
 Frequencies --   1166.6903              1198.2109              1218.5442
 Red. masses --      1.4358                 1.2980                 2.0906
 Frc consts  --      1.1515                 1.0980                 1.8290
 IR Inten    --     39.2659                 1.4272                25.4029

                     49                     50                     51
                      A                      A                      A
 Frequencies --   1246.5516              1272.2566              1274.3107
 Red. masses --      1.6811                 1.7578                 1.8563
 Frc consts  --      1.5391                 1.6764                 1.7761
 IR Inten    --     70.7169                57.7697                68.7265

                     52                     53                     54
                      A                      A                      A
 Frequencies --   1282.6515              1305.6359              1324.0168
 Red. masses --      1.6075                 1.2688                 1.3444
 Frc consts  --      1.5582                 1.2744                 1.3886
 IR Inten    --     42.4607                 1.2910                18.8522

                     55                     56                     57
                      A                      A                      A
 Frequencies --   1371.6267              1375.3687              1395.3676
 Red. masses --      1.4860                 1.8553                 1.6775
 Frc consts  --      1.6472                 2.0677                 1.9244
 IR Inten    --     15.9617               173.9140               312.1332

                     58                     59                     60
                      A                      A                      A
 Frequencies --   1398.1510              1403.7864              1415.0069
 Red. masses --      3.7824                 1.2707                 1.4617
 Frc consts  --      4.3563                 1.4754                 1.7244
 IR Inten    --     16.7745                 9.3186                55.8746

                     61                     62                     63
                      A                      A                      A
 Frequencies --   1445.8798              1463.0615              1476.1732
 Red. masses --      2.9260                 1.1727                 1.3950
 Frc consts  --      3.6040                 1.4789                 1.7911
 IR Inten    --     41.4772                10.7605                37.7148

                     64                     65                     66
                      A                      A                      A
 Frequencies --   1486.4881              1495.4316              1516.9771
 Red. masses --      1.1274                 1.0928                 3.5340
 Frc consts  --      1.4678                 1.4399                 4.7916
 IR Inten    --     10.0628                 4.3567                20.0420

                     67                     68                     69
                      A                      A                      A
 Frequencies --   1615.5791              1668.8388              1792.8378
 Red. masses --      4.4180                 1.0943                 8.4443
 Frc consts  --      6.7942                 1.7956                15.9918
 IR Inten    --     14.1394                24.2504               363.0466

                     70                     71                     72
                      A                      A                      A
 Frequencies --   1850.1639              3020.0307              3035.9132
 Red. masses --      9.8722                 1.0608                 1.0667
 Frc consts  --     19.9107                 5.7004                 5.7928
 IR Inten    --    227.1056                19.2896                22.2342

                     73                     74                     75
                      A                      A                      A
 Frequencies --   3053.2678              3061.5037              3096.3544
 Red. masses --      1.0777                 1.0857                 1.0838
 Frc consts  --      5.9192                 5.9954                 6.1221
 IR Inten    --     14.2440                30.9108                 7.8532

                     76                     77                     78
                      A                      A                      A
 Frequencies --   3103.7902              3107.0933              3243.0380
 Red. masses --      1.0959                 1.1032                 1.0960
 Frc consts  --      6.2202                 6.2750                 6.7915
 IR Inten    --      4.7073                20.0736                 8.8585

                     79                     80                     81
                      A                      A                      A
 Frequencies --   3260.0799              3496.6201              3541.9066
 Red. masses --      1.0969                 1.0492                 1.0750
 Frc consts  --      6.8688                 7.5577                 7.9460
 IR Inten    --      2.4988                 3.1055                22.1636

                     82                     83                     84
                      A                      A                      A
 Frequencies --   3588.2390              3592.2347              3628.7231
 Red. masses --      1.0825                 1.0927                 1.0645
 Frc consts  --      8.2120                 8.3074                 8.2585
 IR Inten    --    201.3425                 3.6253               191.9522

 - Thermochemistry -
 -------------------
 Temperature   298.150 Kelvin.  Pressure   1.00000 Atm.
 Atom     1 has atomic number  8 and mass  15.99491

 Molecular mass:   226.10659 amu.
 Principal axes and moments of inertia in atomic units:
                           1         2         3
     Eigenvalues --  2371.909406425.033337873.56732
           X            0.97495  -0.19387  -0.10903
           Y            0.05289  -0.27406   0.96026
           Z            0.21604   0.94197   0.25694
 This molecule is an asymmetric top.
 Rotational symmetry number  1.
 Warning -- assumption of classical behavior for rotation
           may cause significant error
 Rotational temperatures (Kelvin)      0.03652     0.01348     0.01100
 Rotational constants (GHZ):           0.76088     0.28089     0.22922
 Zero-point vibrational energy     645520.5 (Joules/Mol)
                                  154.28309 (Kcal/Mol)
 Warning -- explicit consideration of  21 degrees of freedom as
           vibrations may cause significant error
 Vibrational temperatures:     28.38    56.50    74.44    95.21   116.94
          (Kelvin)            131.30   197.44   210.66   226.32   299.25
                              355.29   409.52   449.61   487.47   523.61
                              533.72   595.31   634.54   753.85   792.75
                              860.40   899.16   933.38   967.98   990.74
                             1034.49  1060.05  1068.13  1159.08  1173.11
                             1175.32  1194.44  1219.64  1249.31  1277.45
                             1339.21  1348.03  1417.22  1472.23  1478.06
                             1512.99  1605.92  1622.92  1625.22  1664.02
                             1678.60  1723.96  1753.21  1793.51  1830.49
                             1833.45  1845.45  1878.52  1904.96  1973.46
                             1978.85  2007.62  2011.62  2019.73  2035.88
                             2080.30  2105.02  2123.88  2138.72  2151.59
                             2182.59  2324.46  2401.08  2579.49  2661.97
                             4345.15  4368.00  4392.97  4404.82  4454.96
                             4465.66  4470.41  4666.00  4690.52  5030.85
                             5096.01  5162.67  5168.42  5220.92

 Zero-point correction=                           0.245866 (Hartree/Particle)
 Thermal correction to Energy=                    0.261454
 Thermal correction to Enthalpy=                  0.262399
 Thermal correction to Gibbs Free Energy=         0.200571
 Sum of electronic and zero-point Energies=           -795.861462
 Sum of electronic and thermal Energies=              -795.845874
 Sum of electronic and thermal Enthalpies=            -795.844929
 Sum of electronic and thermal Free Energies=         -795.906757

                     E (Thermal)             CV                S
                      KCal/Mol        Cal/Mol-Kelvin    Cal/Mol-Kelvin
 Total                  164.065             57.584            130.128
 Electronic               0.000              0.000              0.000
 Translational            0.889              2.981             42.150
 Rotational               0.889              2.981             33.150
 Vibrational            162.288             51.623             54.828
 Vibration     1          0.593              1.986              6.662
 Vibration     2          0.594              1.981              5.296
 Vibration     3          0.596              1.977              4.750
 Vibration     4          0.598              1.970              4.264
 Vibration     5          0.600              1.962              3.860
 Vibration     6          0.602              1.955              3.633
 Vibration     7          0.614              1.916              2.842
 Vibration     8          0.617              1.907              2.718
 Vibration     9          0.621              1.894              2.582
 Vibration    10          0.641              1.828              2.061
 Vibration    11          0.661              1.768              1.752
 Vibration    12          0.683              1.702              1.506
 Vibration    13          0.701              1.650              1.349
 Vibration    14          0.719              1.598              1.218
 Vibration    15          0.737              1.547              1.105
 Vibration    16          0.743              1.532              1.076
 Vibration    17          0.777              1.440              0.913
 Vibration    18          0.801              1.381              0.823
 Vibration    19          0.879              1.197              0.601
 Vibration    20          0.906              1.138              0.542
 Vibration    21          0.956              1.036              0.453

 Optimization completed.
    -- Stationary point found.
 Normal termination of Gaussian 09 at Wed Jul 28 22:47:14 2021.
