 Gaussian 09, Revision D.01,
 Gaussian 09:  ES64L-G09RevD.01 24-Apr-2013

 ----------------------------------------------------------------------
 # B3LYP/6-31G(d,p) opt=calcfc freq=noraman nosymm integral(ultrafinegr
 id)
 ----------------------------------------------------------------------

 ------------------------------------------------------------
 Candidate Structure: Conf:801 OPT and FREQ calc in gas phase
 ------------------------------------------------------------
 Symbolic Z-matrix:
 Charge =  0 Multiplicity = 1

 SCF Done:  E(RB3LYP) =  -796.103138367     A.U. after   14 cycles
 SCF Done:  E(RB3LYP) =  -796.106020883     A.U. after   15 cycles
 SCF Done:  E(RB3LYP) =  -796.092782932     A.U. after   15 cycles
 SCF Done:  E(RB3LYP) =  -796.106265606     A.U. after   11 cycles
 SCF Done:  E(RB3LYP) =  -796.107133947     A.U. after   14 cycles
 SCF Done:  E(RB3LYP) =  -796.107459686     A.U. after   14 cycles
 SCF Done:  E(RB3LYP) =  -796.107630300     A.U. after   11 cycles
 SCF Done:  E(RB3LYP) =  -796.107655229     A.U. after   12 cycles
 SCF Done:  E(RB3LYP) =  -796.107698222     A.U. after   10 cycles
 SCF Done:  E(RB3LYP) =  -796.107721212     A.U. after   10 cycles
 SCF Done:  E(RB3LYP) =  -796.107749684     A.U. after   11 cycles
 SCF Done:  E(RB3LYP) =  -796.107765207     A.U. after   10 cycles
 SCF Done:  E(RB3LYP) =  -796.107786588     A.U. after   11 cycles
 SCF Done:  E(RB3LYP) =  -796.107788593     A.U. after    9 cycles
 SCF Done:  E(RB3LYP) =  -796.107788899     A.U. after    8 cycles
 SCF Done:  E(RB3LYP) =  -796.107788925     A.U. after    7 cycles
 Optimization completed.
    -- Stationary point found.
 Normal termination of Gaussian 09 at Wed Jul 28 22:41:16 2021.

 ----------------------------------------------------------------------
 #N Geom=AllCheck Guess=TCheck SCRF=Check GenChk RB3LYP/6-31G(d,p) Freq
 ----------------------------------------------------------------------

 Structure from the checkpoint file:  "conf-801.chk"
 ------------------------------------------------------------
 Candidate Structure: Conf:801 OPT and FREQ calc in gas phase
 ------------------------------------------------------------
 Charge =  0 Multiplicity = 1

                          Input orientation:
 ---------------------------------------------------------------------
 Center     Atomic      Atomic             Coordinates (Angstroms)
 Number     Number       Type             X           Y           Z
 ---------------------------------------------------------------------
      1          8           0        1.478530    0.847885   -1.078912
      2          6           0        1.758383    0.228267   -0.054896
      3          7           0        0.804263   -0.102887    0.865219
      4          6           0       -0.547526    0.399607    0.759650
      5          6           0       -1.184985    0.308103    2.152735
      6          8           0       -2.396938    0.869241    2.290954
      7          8           0       -0.641627   -0.243645    3.083373
      8          6           0       -1.358167   -0.379241   -0.322127
      9          6           0       -2.739749    0.153709   -0.556750
     10          6           0       -3.212831    1.394369   -0.940544
     11          7           0       -4.590231    1.404443   -1.006974
     12          6           0       -4.958881    0.188922   -0.671136
     13          7           0       -3.883326   -0.605246   -0.384813
     14          6           0        3.177401   -0.208100    0.283768
     15          6           0        3.998554   -0.519587   -0.969120
     16          7           0        5.400340   -0.746963   -0.607191
     17          1           0        1.044722   -0.512072    1.760208
     18          1           0       -0.515630    1.452368    0.448483
     19          1           0       -2.708676    1.224200    1.436595
     20          1           0       -1.398949   -1.435552   -0.033757
     21          1           0       -0.762529   -0.312753   -1.236938
     22          1           0       -2.631713    2.269148   -1.200602
     23          1           0       -5.976131   -0.172674   -0.612686
     24          1           0       -3.911507   -1.569661   -0.088483
     25          1           0        3.160951   -1.067949    0.965715
     26          1           0        3.669378    0.611025    0.823423
     27          1           0        3.943234    0.347613   -1.632408
     28          1           0        3.526134   -1.356999   -1.511694
     29          1           0        5.494480   -1.635496   -0.119074
     30          1           0        5.962793   -0.830173   -1.450306
 ---------------------------------------------------------------------

 SCF Done:  E(RB3LYP) =  -796.107788925     A.U. after    1 cycles

 Alpha  occ. eigenvalues --  -19.20514 -19.15175 -19.11900 -14.41024 -14.36644
 Alpha  occ. eigenvalues --  -14.32763 -14.31508 -10.33486 -10.29287 -10.25984
 Alpha  occ. eigenvalues --  -10.25520 -10.24243 -10.22443 -10.21454 -10.21036
 Alpha  occ. eigenvalues --  -10.19585  -1.11447  -1.03966  -1.03303  -1.02971
 Alpha  occ. eigenvalues --   -0.93359  -0.88695  -0.88177  -0.81558  -0.76726
 Alpha  occ. eigenvalues --   -0.73876  -0.68608  -0.63585  -0.63096  -0.61738
 Alpha  occ. eigenvalues --   -0.60654  -0.58767  -0.56278  -0.54214  -0.50139
 Alpha  occ. eigenvalues --   -0.49760  -0.48269  -0.47944  -0.46523  -0.45785
 Alpha  occ. eigenvalues --   -0.45095  -0.44107  -0.43012  -0.42214  -0.42114
 Alpha  occ. eigenvalues --   -0.41842  -0.41060  -0.39155  -0.38690  -0.38395
 Alpha  occ. eigenvalues --   -0.35239  -0.34533  -0.32956  -0.29861  -0.29047
 Alpha  occ. eigenvalues --   -0.28056  -0.26842  -0.25628  -0.24106  -0.23783
 Alpha virt. eigenvalues --   -0.00995   0.01101   0.02027   0.04098   0.05795
 Alpha virt. eigenvalues --    0.07830   0.08953   0.09070   0.10826   0.11359
 Alpha virt. eigenvalues --    0.13092   0.13703   0.14307   0.15336   0.16137

 Mulliken charges:
               1
     1  O   -0.533282
     2  C    0.595681
     3  N   -0.545956
     4  C   -0.025468
     5  C    0.597765
     6  O   -0.480535
     7  O   -0.459562
     8  C   -0.221649
     9  C    0.224611
    10  C   -0.038503
    11  N   -0.427814
    12  C    0.263652
    13  N   -0.517200
    14  C   -0.256384
    15  C   -0.054246
    16  N   -0.606329
    17  H    0.281455
    18  H    0.149128
    19  H    0.332863
    20  H    0.107350
    21  H    0.173677
    22  H    0.110366
    23  H    0.123760
    24  H    0.271442
    25  H    0.095716
    26  H    0.150015
    27  H    0.135052
    28  H    0.080524
    29  H    0.233514
    30  H    0.240357
 Sum of Mulliken charges =   0.00000

 Dipole moment (field-independent basis, Debye):
    X=             -0.0930    Y=             -4.5172    Z=             -0.9359  Tot=              4.6141
 Quadrupole moment (field-independent basis, Debye-Ang):
   XX=            -89.0625   YY=            -88.9830   ZZ=           -108.9331
   XY=              5.9707   XZ=             -1.7480   YZ=              4.9192

  Exact polarizability: 169.545 -10.002 101.439   2.738 -12.341 103.884
 Approx polarizability: 208.034 -12.394 175.220   7.759 -33.216 164.282

                      1                      2                      3
                      A                      A                      A
 Frequencies --     24.9553                27.6628                46.6136
 Red. masses --      3.6602                 5.0447                 5.1887
 Frc consts  --      0.0013                 0.0023                 0.0066
 IR Inten    --      0.9199                 1.5916                 2.4353

                      4                      5                      6
                      A                      A                      A
 Frequencies --     56.5013                75.7633                81.0207
 Red. masses --      2.2396                 5.9623                 5.0809
 Frc consts  --      0.0042                 0.0202                 0.0197
 IR Inten    --      5.2457                 9.7334                 2.6935

                      7                      8                      9
                      A                      A                      A
 Frequencies --     95.4846                98.8794               157.5463
 Red. masses --      4.5738                 7.4399                 4.0194
 Frc consts  --      0.0246                 0.0429                 0.0588
 IR Inten    --      1.5405                 4.2056                 6.3273

                     10                     11                     12
                      A                      A                      A
 Frequencies --    186.0338               213.6379               261.5810
 Red. masses --      4.8027                 4.6892                 1.2772
 Frc consts  --      0.0979                 0.1261                 0.0515
 IR Inten    --      8.8671                15.0779                49.2335

                     13                     14                     15
                      A                      A                      A
 Frequencies --    277.2666               324.1399               329.9023
 Red. masses --      4.4211                 4.1927                 3.1402
 Frc consts  --      0.2003                 0.2595                 0.2014
 IR Inten    --      5.5524                 4.7351                 2.3031

                     16                     17                     18
                      A                      A                      A
 Frequencies --    346.8291               392.4959               402.3314
 Red. masses --      5.6709                 4.0725                 4.1078
 Frc consts  --      0.4019                 0.3696                 0.3918
 IR Inten    --      8.3663                14.6828                 3.7010

                     19                     20                     21
                      A                      A                      A
 Frequencies --    531.9063               541.7509               558.6007
 Red. masses --      1.9098                 1.4084                 2.1276
 Frc consts  --      0.3184                 0.2435                 0.3912
 IR Inten    --     71.7824                68.1242                26.6328

                     22                     23                     24
                      A                      A                      A
 Frequencies --    612.8828               639.6611               642.9404
 Red. masses --      2.2798                 2.1864                 1.7705
 Frc consts  --      0.5045                 0.5271                 0.4312
 IR Inten    --     63.9757                12.5537                30.5527

                     25                     26                     27
                      A                      A                      A
 Frequencies --    668.4101               681.3803               726.2641
 Red. masses --      3.0043                 3.0422                 3.2090
 Frc consts  --      0.7908                 0.8322                 0.9973
 IR Inten    --     16.9142                 8.6122                11.2937

                     28                     29                     30
                      A                      A                      A
 Frequencies --    747.2892               765.3400               803.7626
 Red. masses --      3.5110                 3.8846                 1.4869
 Frc consts  --      1.1552                 1.3406                 0.5660
 IR Inten    --     13.8495                 7.6587                11.1131

                     31                     32                     33
                      A                      A                      A
 Frequencies --    815.3141               826.4360               854.9921
 Red. masses --      1.4231                 2.2585                 1.3896
 Frc consts  --      0.5574                 0.9088                 0.5985
 IR Inten    --     18.2422                 3.3261                22.3459

                     34                     35                     36
                      A                      A                      A
 Frequencies --    864.0766               932.5651               952.7693
 Red. masses --      1.3221                 5.9731                 3.1109
 Frc consts  --      0.5816                 3.0606                 1.6639
 IR Inten    --    130.7868                11.7927                26.5809

                     37                     38                     39
                      A                      A                      A
 Frequencies --    987.1973              1013.2551              1026.9230
 Red. masses --      2.1462                 3.2748                 3.6454
 Frc consts  --      1.2323                 1.9809                 2.2650
 IR Inten    --      4.3426                 5.9270                 7.4407

                     40                     41                     42
                      A                      A                      A
 Frequencies --   1036.6700              1068.2994              1102.3904
 Red. masses --      3.4504                 2.6940                 2.0358
 Frc consts  --      2.1847                 1.8115                 1.4577
 IR Inten    --      7.0335                22.0724                18.6821

                     43                     44                     45
                      A                      A                      A
 Frequencies --   1115.9924              1131.1586              1150.8790
 Red. masses --      1.6114                 2.1132                 2.0606
 Frc consts  --      1.1824                 1.5931                 1.6080
 IR Inten    --     14.9684                14.1909                11.6865

                     46                     47                     48
                      A                      A                      A
 Frequencies --   1167.7911              1175.7469              1218.1867
 Red. masses --      1.3822                 1.8383                 1.6183
 Frc consts  --      1.1106                 1.4973                 1.4149
 IR Inten    --      5.9688                 9.8871                42.6220

                     49                     50                     51
                      A                      A                      A
 Frequencies --   1230.2360              1259.0393              1268.7305
 Red. masses --      1.9128                 1.8480                 1.4674
 Frc consts  --      1.7056                 1.7259                 1.3916
 IR Inten    --      4.2862                16.5455                11.0686

                     52                     53                     54
                      A                      A                      A
 Frequencies --   1286.1235              1313.6905              1329.1338
 Red. masses --      1.4531                 1.4210                 1.4241
 Frc consts  --      1.4162                 1.4449                 1.4823
 IR Inten    --      1.3301                 9.0518                55.1342

                     55                     56                     57
                      A                      A                      A
 Frequencies --   1341.7553              1367.2507              1367.9459
 Red. masses --      1.1159                 1.4653                 1.4635
 Frc consts  --      1.1837                 1.6138                 1.6136
 IR Inten    --     18.6081                10.0745               176.7750

                     58                     59                     60
                      A                      A                      A
 Frequencies --   1404.2316              1414.0853              1437.1699
 Red. masses --      2.6060                 2.0848                 1.5531
 Frc consts  --      3.0276                 2.4563                 1.8900
 IR Inten    --     49.0657               134.2349                46.8901

                     61                     62                     63
                      A                      A                      A
 Frequencies --   1443.6538              1481.5206              1496.1988
 Red. masses --      3.2953                 1.0925                 1.2398
 Frc consts  --      4.0464                 1.4128                 1.6352
 IR Inten    --     23.3212                 5.6525                11.7383

                     64                     65                     66
                      A                      A                      A
 Frequencies --   1507.8558              1529.4521              1529.7051
 Red. masses --      3.1454                 1.0896                 2.3115
 Frc consts  --      4.2135                 1.5017                 3.1869
 IR Inten    --     23.5462                 5.4888               336.9835

                     67                     68                     69
                      A                      A                      A
 Frequencies --   1607.1071              1670.9107              1759.1273
 Red. masses --      4.0720                 1.0908                 9.8811
 Frc consts  --      6.1965                 1.7944                18.0156
 IR Inten    --     12.3869                20.4456               192.9829

                     70                     71                     72
                      A                      A                      A
 Frequencies --   1853.0170              2960.2372              3037.3452
 Red. masses --      9.5905                 1.0742                 1.0610
 Frc consts  --     19.4021                 5.5462                 5.7668
 IR Inten    --    263.5881                73.7088                16.7396

                     73                     74                     75
                      A                      A                      A
 Frequencies --   3040.2492              3061.0719              3079.1816
 Red. masses --      1.0817                 1.0635                 1.0994
 Frc consts  --      5.8908                 5.8710                 6.1413
 IR Inten    --      8.6511                17.6430                 9.3082

                     76                     77                     78
                      A                      A                      A
 Frequencies --   3111.7182              3115.2116              3250.8033
 Red. masses --      1.0907                 1.1030                 1.0958
 Frc consts  --      6.2225                 6.3066                 6.8230
 IR Inten    --     18.7565                 2.9118                 3.8653

                     79                     80                     81
                      A                      A                      A
 Frequencies --   3264.6797              3487.0244              3571.9097
 Red. masses --      1.0975                 1.0502                 1.0919
 Frc consts  --      6.8916                 7.5239                 8.2079
 IR Inten    --      0.9379                 1.9561                 0.1676

                     82                     83                     84
                      A                      A                      A
 Frequencies --   3593.8986              3633.6053              3657.1058
 Red. masses --      1.0777                 1.0669                 1.0814
 Frc consts  --      8.2011                 8.2994                 8.5215
 IR Inten    --     74.8036               289.7135                53.3349

 - Thermochemistry -
 -------------------
 Temperature   298.150 Kelvin.  Pressure   1.00000 Atm.
 Atom     1 has atomic number  8 and mass  15.99491

 Molecular mass:   226.10659 amu.
 Principal axes and moments of inertia in atomic units:
                           1         2         3
     Eigenvalues --  1698.939427883.294498968.25425
           X            0.99329   0.02374   0.11323
           Y           -0.11152  -0.06393   0.99170
           Z           -0.03079   0.99767   0.06085
 This molecule is an asymmetric top.
 Rotational symmetry number  1.
 Warning -- assumption of classical behavior for rotation
           may cause significant error
 Rotational temperatures (Kelvin)      0.05098     0.01099     0.00966
 Rotational constants (GHZ):           1.06228     0.22893     0.20124
 Zero-point vibrational energy     643121.1 (Joules/Mol)
                                  153.70964 (Kcal/Mol)
 Warning -- explicit consideration of  22 degrees of freedom as
           vibrations may cause significant error
 Vibrational temperatures:     35.91    39.80    67.07    81.29   109.01
          (Kelvin)            116.57   137.38   142.27   226.67   267.66
                              307.38   376.36   398.92   466.36   474.66
                              499.01   564.71   578.86   765.29   779.46
                              803.70   881.80   920.33   925.05   961.69
                              980.35  1044.93  1075.18  1101.15  1156.43
                             1173.05  1189.06  1230.14  1243.21  1341.75
                             1370.82  1420.35  1457.85  1477.51  1491.54
                             1537.04  1586.09  1605.66  1627.48  1655.86
                             1680.19  1691.64  1752.70  1770.03  1811.47
                             1825.42  1850.44  1890.11  1912.32  1930.48
                             1967.17  1968.17  2020.37  2034.55  2067.76
                             2077.09  2131.58  2152.69  2169.47  2200.54
                             2200.90  2312.27  2404.06  2530.99  2666.07
                             4259.12  4370.06  4374.24  4404.19  4430.25
                             4477.06  4482.09  4677.18  4697.14  5017.04
                             5139.17  5170.81  5227.94  5261.75

 Zero-point correction=                           0.244952 (Hartree/Particle)
 Thermal correction to Energy=                    0.261142
 Thermal correction to Enthalpy=                  0.262086
 Thermal correction to Gibbs Free Energy=         0.198294
 Sum of electronic and zero-point Energies=           -795.862837
 Sum of electronic and thermal Energies=              -795.846647
 Sum of electronic and thermal Enthalpies=            -795.845702
 Sum of electronic and thermal Free Energies=         -795.909495

                     E (Thermal)             CV                S
                      KCal/Mol        Cal/Mol-Kelvin    Cal/Mol-Kelvin
 Total                  163.869             58.387            134.262
 Electronic               0.000              0.000              0.000
 Translational            0.889              2.981             42.150
 Rotational               0.889              2.981             33.151
 Vibrational            162.092             52.426             58.961
 Vibration     1          0.593              1.985              6.195
 Vibration     2          0.593              1.984              5.990
 Vibration     3          0.595              1.979              4.956
 Vibration     4          0.596              1.975              4.576
 Vibration     5          0.599              1.965              3.998
 Vibration     6          0.600              1.962              3.866
 Vibration     7          0.603              1.952              3.544
 Vibration     8          0.604              1.950              3.476
 Vibration     9          0.621              1.894              2.579
 Vibration    10          0.632              1.859              2.267
 Vibration    11          0.644              1.820              2.012
 Vibration    12          0.669              1.743              1.651
 Vibration    13          0.678              1.716              1.550
 Vibration    14          0.709              1.627              1.289
 Vibration    15          0.713              1.616              1.261
 Vibration    16          0.725              1.582              1.181
 Vibration    17          0.760              1.486              0.991
 Vibration    18          0.768              1.465              0.954
 Vibration    19          0.887              1.179              0.583
 Vibration    20          0.897              1.158              0.562
 Vibration    21          0.914              1.121              0.527
 Vibration    22          0.972              1.005              0.428

 Optimization completed.
    -- Stationary point found.
 Normal termination of Gaussian 09 at Wed Jul 28 22:59:16 2021.
