 Gaussian 09, Revision D.01,
 Gaussian 09:  ES64L-G09RevD.01 24-Apr-2013

 ----------------------------------------------------------------------
 # B3LYP/6-311++G(d,p) opt=calcfc freq=noraman nosymm integral(ultrafin
 egrid)
 ----------------------------------------------------------------------

 ------------------------------------------------------------
 Candidate Structure: Conf:318 OPT and FREQ calc in gas phase
 ------------------------------------------------------------
 Symbolic Z-matrix:
 Charge =  1 Multiplicity = 1

 SCF Done:  E(RB3LYP) =  -796.675282801     A.U. after   17 cycles
 SCF Done:  E(RB3LYP) =  -796.680650490     A.U. after   14 cycles
 SCF Done:  E(RB3LYP) =  -796.680623805     A.U. after   16 cycles
 SCF Done:  E(RB3LYP) =  -796.679301729     A.U. after   16 cycles
 SCF Done:  E(RB3LYP) =  -796.680792136     A.U. after   13 cycles
 SCF Done:  E(RB3LYP) =  -796.681210409     A.U. after   14 cycles
 SCF Done:  E(RB3LYP) =  -796.681240195     A.U. after   12 cycles
 SCF Done:  E(RB3LYP) =  -796.681245620     A.U. after   11 cycles
 SCF Done:  E(RB3LYP) =  -796.681251253     A.U. after   13 cycles
 SCF Done:  E(RB3LYP) =  -796.681253435     A.U. after   11 cycles
 SCF Done:  E(RB3LYP) =  -796.681254026     A.U. after   10 cycles
 SCF Done:  E(RB3LYP) =  -796.681254052     A.U. after    8 cycles
 SCF Done:  E(RB3LYP) =  -796.681254055     A.U. after    9 cycles
 Optimization completed.
    -- Stationary point found.
 Normal termination of Gaussian 09 at Thu Jul 29 00:54:51 2021.

 ----------------------------------------------------------------------
 #N Geom=AllCheck Guess=TCheck SCRF=Check GenChk RB3LYP/6-311++G(d,p) F
 req
 ----------------------------------------------------------------------

 Structure from the checkpoint file:  "conf-318.chk"
 ------------------------------------------------------------
 Candidate Structure: Conf:318 OPT and FREQ calc in gas phase
 ------------------------------------------------------------
 Charge =  1 Multiplicity = 1

                          Input orientation:
 ---------------------------------------------------------------------
 Center     Atomic      Atomic             Coordinates (Angstroms)
 Number     Number       Type             X           Y           Z
 ---------------------------------------------------------------------
      1          8           0        1.157428    0.590996    1.592803
      2          6           0        1.115108   -0.177832    0.642406
      3          7           0        0.116118   -1.037116    0.386133
      4          6           0       -1.100159   -1.137529    1.180664
      5          6           0       -1.829588   -2.396746    0.671033
      6          8           0       -2.941585   -2.755043    1.324340
      7          8           0       -1.416757   -3.044517   -0.253491
      8          6           0       -1.964079    0.147529    1.161729
      9          6           0       -2.325991    0.659989   -0.199005
     10          6           0       -2.357312    0.109904   -1.459420
     11          7           0       -2.768066    1.036879   -2.390605
     12          6           0       -2.994662    2.137121   -1.716504
     13          7           0       -2.736728    1.969578   -0.383921
     14          6           0        2.252079   -0.183878   -0.402398
     15          6           0        3.517953    0.339300    0.258564
     16          7           0        4.575944    0.688718   -0.785579
     17          1           0        0.153987   -1.677056   -0.400299
     18          1           0       -0.823246   -1.321011    2.225664
     19          1           0       -3.161783   -2.145859    2.041078
     20          1           0       -2.866445   -0.036410    1.761284
     21          1           0       -1.399640    0.909350    1.706626
     22          1           0       -2.123106   -0.900872   -1.754420
     23          1           0       -3.342909    3.073520   -2.125420
     24          1           0       -2.855831    2.666379    0.336052
     25          1           0        1.935079    0.480989   -1.215468
     26          1           0        2.397568   -1.181792   -0.825258
     27          1           0        3.975893   -0.391731    0.924587
     28          1           0        3.310925    1.247787    0.822531
     29          1           0        4.836862   -0.126422   -1.348851
     30          1           0        5.428867    1.047046   -0.345022
     31          1           0        4.234028    1.408970   -1.429633
 ---------------------------------------------------------------------

 SCF Done:  E(RB3LYP) =  -796.681254055     A.U. after    2 cycles

 Alpha  occ. eigenvalues --  -19.28767 -19.23048 -19.23019 -14.64084 -14.47470
 Alpha  occ. eigenvalues --  -14.46116 -14.38014 -10.42697 -10.42114 -10.41758
 Alpha  occ. eigenvalues --  -10.36095 -10.35800 -10.31252 -10.30999 -10.30456
 Alpha  occ. eigenvalues --  -10.27339  -1.22927  -1.20585  -1.18486  -1.14952
 Alpha  occ. eigenvalues --   -1.10938  -1.06894  -0.96883  -0.96503  -0.91965
 Alpha  occ. eigenvalues --   -0.86040  -0.83513  -0.79312  -0.79087  -0.78110
 Alpha  occ. eigenvalues --   -0.74896  -0.71829  -0.70785  -0.69437  -0.68555
 Alpha  occ. eigenvalues --   -0.67985  -0.65138  -0.64200  -0.60896  -0.60737
 Alpha  occ. eigenvalues --   -0.59167  -0.58066  -0.57068  -0.55884  -0.55355
 Alpha  occ. eigenvalues --   -0.54836  -0.53956  -0.52462  -0.51588  -0.50569
 Alpha  occ. eigenvalues --   -0.50164  -0.49761  -0.49473  -0.44131  -0.40715
 Alpha  occ. eigenvalues --   -0.40170  -0.40053  -0.37574  -0.35923  -0.32301
 Alpha virt. eigenvalues --   -0.20114  -0.14557  -0.14175  -0.13564  -0.12306
 Alpha virt. eigenvalues --   -0.11821  -0.10953  -0.10299  -0.09369  -0.08963
 Alpha virt. eigenvalues --   -0.08136  -0.07646  -0.07284  -0.06786  -0.06047

 Mulliken charges:
               1
     1  O   -0.289423
     2  C   -0.266153
     3  N   -0.017040
     4  C    0.065187
     5  C   -0.122933
     6  O   -0.051477
     7  O   -0.217161
     8  C   -0.665674
     9  C    0.526212
    10  C   -0.593810
    11  N   -0.103878
    12  C    0.126372
    13  N   -0.137768
    14  C   -0.238974
    15  C   -0.622594
    16  N   -0.211415
    17  H    0.280739
    18  H    0.290853
    19  H    0.262481
    20  H    0.194129
    21  H    0.214700
    22  H    0.136696
    23  H    0.191704
    24  H    0.307810
    25  H    0.208020
    26  H    0.188036
    27  H    0.243786
    28  H    0.278094
    29  H    0.339537
    30  H    0.349150
    31  H    0.334796
 Sum of Mulliken charges =   1.00000

 Dipole moment (field-independent basis, Debye):
    X=             16.5731    Y=              4.6195    Z=              1.0634  Tot=             17.2377
 Quadrupole moment (field-independent basis, Debye-Ang):
   XX=              4.4197   YY=            -88.1098   ZZ=            -92.5619
   XY=              0.1857   XZ=            -33.6550   YZ=             -7.4673

  Exact polarizability: 143.922   1.824 135.710  -2.494  -2.965 135.686
 Approx polarizability: 177.837  -1.541 207.332  -5.854  18.612 223.088

                      1                      2                      3
                      A                      A                      A
 Frequencies --     13.5193                31.2952                42.0187
 Red. masses --      4.9268                 3.3946                 1.9396
 Frc consts  --      0.0005                 0.0020                 0.0020
 IR Inten    --      5.7443                 4.6094                 6.9850

                      4                      5                      6
                      A                      A                      A
 Frequencies --     50.4453                56.3744                79.1682
 Red. masses --      5.7293                 5.1364                 4.5722
 Frc consts  --      0.0086                 0.0096                 0.0169
 IR Inten    --     16.4849                 1.6823                16.4822

                      7                      8                      9
                      A                      A                      A
 Frequencies --     91.3407               105.8772               144.5167
 Red. masses --      9.7790                 4.0088                 5.2443
 Frc consts  --      0.0481                 0.0265                 0.0645
 IR Inten    --     11.3171                11.1018                 2.5619

                     10                     11                     12
                      A                      A                      A
 Frequencies --    198.4159               219.0331               236.5483
 Red. masses --      5.2775                 1.8826                 1.6776
 Frc consts  --      0.1224                 0.0532                 0.0553
 IR Inten    --     14.5007                 9.8757                 8.8059

                     13                     14                     15
                      A                      A                      A
 Frequencies --    263.5847               268.6867               329.9493
 Red. masses --      4.2725                 3.8590                 5.0608
 Frc consts  --      0.1749                 0.1641                 0.3246
 IR Inten    --      7.7908                 2.9156                 7.7156

                     16                     17                     18
                      A                      A                      A
 Frequencies --    339.3365               374.7974               446.6371
 Red. masses --      3.3730                 3.3667                 1.5315
 Frc consts  --      0.2288                 0.2786                 0.1800
 IR Inten    --      2.3376                23.7296                97.2985

                     19                     20                     21
                      A                      A                      A
 Frequencies --    503.9586               520.9658               556.2512
 Red. masses --      2.1226                 1.4825                 3.7146
 Frc consts  --      0.3176                 0.2371                 0.6772
 IR Inten    --     37.1555                69.7930                 2.0692

                     22                     23                     24
                      A                      A                      A
 Frequencies --    570.6482               615.1672               645.6501
 Red. masses --      2.1913                 5.6691                 2.1772
 Frc consts  --      0.4204                 1.2640                 0.5347
 IR Inten    --     60.1275                 6.5410                29.1304

                     25                     26                     27
                      A                      A                      A
 Frequencies --    648.1708               673.5006               678.3403
 Red. masses --      1.6633                 3.0790                 3.7963
 Frc consts  --      0.4117                 0.8229                 1.0292
 IR Inten    --     26.5614                 6.5095                 3.1049

                     28                     29                     30
                      A                      A                      A
 Frequencies --    721.6873               776.9305               800.7287
 Red. masses --      3.9448                 2.7847                 1.6453
 Frc consts  --      1.2105                 0.9903                 0.6215
 IR Inten    --      2.8792                 7.7370                 5.3585

                     31                     32                     33
                      A                      A                      A
 Frequencies --    825.6012               847.8726               869.8487
 Red. masses --      1.3933                 2.3377                 1.6733
 Frc consts  --      0.5595                 0.9901                 0.7459
 IR Inten    --     18.0416                16.7615                16.5656

                     34                     35                     36
                      A                      A                      A
 Frequencies --    882.0114               917.3233               923.0883
 Red. masses --      2.7372                 1.3810                 3.6204
 Frc consts  --      1.2546                 0.6847                 1.8176
 IR Inten    --     31.3242                 3.1098                 4.2735

                     37                     38                     39
                      A                      A                      A
 Frequencies --    936.5164               954.7862               986.1924
 Red. masses --      3.4475                 4.2361                 2.0577
 Frc consts  --      1.7815                 2.2752                 1.1791
 IR Inten    --     19.5818                11.7695                26.4237

                     40                     41                     42
                      A                      A                      A
 Frequencies --   1020.4618              1037.0614              1094.9870
 Red. masses --      3.8257                 2.3953                 1.6871
 Frc consts  --      2.3473                 1.5178                 1.1918
 IR Inten    --      7.0812                14.7309                 5.8843

                     43                     44                     45
                      A                      A                      A
 Frequencies --   1109.6932              1116.6381              1148.1941
 Red. masses --      1.6652                 2.1323                 2.2721
 Frc consts  --      1.2082                 1.5665                 1.7648
 IR Inten    --     16.5945                29.2924                 3.8387

                     46                     47                     48
                      A                      A                      A
 Frequencies --   1152.4002              1182.4264              1207.4065
 Red. masses --      2.4315                 1.9084                 1.8403
 Frc consts  --      1.9025                 1.5721                 1.5807
 IR Inten    --     19.5387                11.5833                11.6549

                     49                     50                     51
                      A                      A                      A
 Frequencies --   1235.2715              1253.0558              1270.4864
 Red. masses --      1.3749                 1.3743                 1.8207
 Frc consts  --      1.2361                 1.2713                 1.7315
 IR Inten    --      4.9843                49.9207                63.7626

                     52                     53                     54
                      A                      A                      A
 Frequencies --   1286.8658              1290.6795              1305.3445
 Red. masses --      1.4453                 1.3158                 1.6659
 Frc consts  --      1.4101                 1.2915                 1.6725
 IR Inten    --     29.9543                 6.8298               227.3226

                     55                     56                     57
                      A                      A                      A
 Frequencies --   1322.9616              1347.5647              1361.9287
 Red. masses --      1.2861                 1.3869                 2.2287
 Frc consts  --      1.3262                 1.4838                 2.4357
 IR Inten    --     17.1628                64.2449                32.1361

                     58                     59                     60
                      A                      A                      A
 Frequencies --   1392.2461              1406.1209              1420.0440
 Red. masses --      1.8372                 1.3430                 1.9783
 Frc consts  --      2.0981                 1.5645                 2.3504
 IR Inten    --    139.0644                23.5028                19.2755

                     61                     62                     63
                      A                      A                      A
 Frequencies --   1427.0824              1479.4088              1486.8352
 Red. masses --      2.5361                 1.1172                 1.4574
 Frc consts  --      3.0431                 1.4407                 1.8982
 IR Inten    --     25.3281                 0.5793                32.2955

                     64                     65                     66
                      A                      A                      A
 Frequencies --   1502.1153              1506.0766              1517.0863
 Red. masses --      2.1429                 1.0737                 1.1784
 Frc consts  --      2.8488                 1.4350                 1.5980
 IR Inten    --      4.4778                14.7793               185.3655

                     67                     68                     69
                      A                      A                      A
 Frequencies --   1545.6323              1603.7236              1663.7573
 Red. masses --      2.2527                 4.0907                 1.0420
 Frc consts  --      3.1708                 6.1988                 1.6994
 IR Inten    --    303.0851                10.5033                47.0023

                     70                     71                     72
                      A                      A                      A
 Frequencies --   1668.1188              1741.8557              1829.1930
 Red. masses --      1.0439                 9.7434                 9.9430
 Frc consts  --      1.7114                17.4175                19.6014
 IR Inten    --     39.3819               314.0343               183.7095

                     73                     74                     75
                      A                      A                      A
 Frequencies --   2990.7711              3023.1663              3029.2369
 Red. masses --      1.0729                 1.0633                 1.0835
 Frc consts  --      5.6540                 5.7258                 5.8579
 IR Inten    --     40.7310                 2.3090                15.7053

                     76                     77                     78
                      A                      A                      A
 Frequencies --   3065.3619              3078.5793              3096.0982
 Red. masses --      1.0878                 1.1005                 1.0596
 Frc consts  --      6.0224                 6.1453                 5.9846
 IR Inten    --      2.2271                 4.3107                 3.8805

                     79                     80                     81
                      A                      A                      A
 Frequencies --   3155.7222              3243.9350              3247.2954
 Red. masses --      1.1116                 1.0953                 1.0999
 Frc consts  --      6.5223                 6.7907                 6.8333
 IR Inten    --      2.0534                 0.7175                 3.2372

                     82                     83                     84
                      A                      A                      A
 Frequencies --   3397.7048              3474.8683              3477.4958
 Red. masses --      1.0301                 1.0932                 1.0934
 Frc consts  --      7.0063                 7.7770                 7.7902
 IR Inten    --     49.7671                88.2506                90.9509

                     85                     86                     87
                      A                      A                      A
 Frequencies --   3540.7599              3636.2212              3794.7443
 Red. masses --      1.0782                 1.0815                 1.0664
 Frc consts  --      7.9643                 8.4250                 9.0474
 IR Inten    --    126.2010                61.2461                58.0263

 - Thermochemistry -
 -------------------
 Temperature   298.150 Kelvin.  Pressure   1.00000 Atm.
 Atom     1 has atomic number  8 and mass  15.99491

 Molecular mass:   227.11442 amu.
 Principal axes and moments of inertia in atomic units:
                           1         2         3
     Eigenvalues --  2950.138645557.164217120.66750
           X            0.99447  -0.05488  -0.08951
           Y            0.09140   0.87206   0.48078
           Z            0.05168  -0.48631   0.87226
 This molecule is an asymmetric top.
 Rotational symmetry number  1.
 Warning -- assumption of classical behavior for rotation
           may cause significant error
 Rotational temperatures (Kelvin)      0.02936     0.01559     0.01216
 Rotational constants (GHZ):           0.61175     0.32476     0.25345
 Zero-point vibrational energy     677872.7 (Joules/Mol)
                                  162.01547 (Kcal/Mol)
 Warning -- explicit consideration of  23 degrees of freedom as
           vibrations may cause significant error
 Vibrational temperatures:     19.45    45.03    60.46    72.58    81.11
          (Kelvin)            113.91   131.42   152.33   207.93   285.48
                              315.14   340.34   379.24   386.58   474.72
                              488.23   539.25   642.61   725.08   749.55
                              800.32   821.03   885.09   928.95   932.57
                              969.02   975.98  1038.35  1117.83  1152.07
                             1187.85  1219.90  1251.52  1269.02  1319.82
                             1328.12  1347.44  1373.72  1418.91  1468.22
                             1492.10  1575.44  1596.60  1606.59  1651.99
                             1658.04  1701.25  1737.19  1777.28  1802.87
                             1827.94  1851.51  1857.00  1878.10  1903.44
                             1938.84  1959.51  2003.13  2023.09  2043.12
                             2053.25  2128.54  2139.22  2161.21  2166.91
                             2182.75  2223.82  2307.40  2393.77  2400.05
                             2506.14  2631.80  4303.05  4349.66  4358.39
                             4410.37  4429.38  4454.59  4540.37  4667.29
                             4672.13  4888.53  4999.55  5003.33  5094.36
                             5231.70  5459.78

 Zero-point correction=                           0.258188 (Hartree/Particle)
 Thermal correction to Energy=                    0.274707
 Thermal correction to Enthalpy=                  0.275651
 Thermal correction to Gibbs Free Energy=         0.210462
 Sum of electronic and zero-point Energies=           -796.423066
 Sum of electronic and thermal Energies=              -796.406547
 Sum of electronic and thermal Enthalpies=            -796.405603
 Sum of electronic and thermal Free Energies=         -796.470792

                     E (Thermal)             CV                S
                      KCal/Mol        Cal/Mol-Kelvin    Cal/Mol-Kelvin
 Total                  172.381             59.342            137.202
 Electronic               0.000              0.000              0.000
 Translational            0.889              2.981             42.163
 Rotational               0.889              2.981             33.123
 Vibrational            170.604             53.380             61.915
 Vibration     1          0.593              1.987              7.412
 Vibration     2          0.594              1.983              5.746
 Vibration     3          0.595              1.980              5.162
 Vibration     4          0.595              1.977              4.800
 Vibration     5          0.596              1.975              4.580
 Vibration     6          0.600              1.963              3.911
 Vibration     7          0.602              1.955              3.631
 Vibration     8          0.605              1.945              3.343
 Vibration     9          0.616              1.909              2.743
 Vibration    10          0.637              1.842              2.148
 Vibration    11          0.647              1.812              1.967
 Vibration    12          0.655              1.785              1.829
 Vibration    13          0.670              1.740              1.638
 Vibration    14          0.673              1.731              1.605
 Vibration    15          0.713              1.616              1.260
 Vibration    16          0.719              1.597              1.215
 Vibration    17          0.746              1.524              1.060
 Vibration    18          0.806              1.368              0.806
 Vibration    19          0.859              1.241              0.648
 Vibration    20          0.876              1.204              0.608
 Vibration    21          0.912              1.126              0.531
 Vibration    22          0.927              1.095              0.503
 Vibration    23          0.975              1.000              0.424

 Optimization completed.
    -- Stationary point found.
 Normal termination of Gaussian 09 at Thu Jul 29 02:13:33 2021.
