 Gaussian 09, Revision D.01,
 Gaussian 09:  ES64L-G09RevD.01 24-Apr-2013

 ----------------------------------------------------------------------
 # B3LYP/6-311++G(d,p) opt=calcfc freq=noraman nosymm integral(ultrafin
 egrid)
 ----------------------------------------------------------------------

 ------------------------------------------------------------
 Candidate Structure: Conf:342 OPT and FREQ calc in gas phase
 ------------------------------------------------------------
 Symbolic Z-matrix:
 Charge =  1 Multiplicity = 1

 SCF Done:  E(RB3LYP) =  -796.678485658     A.U. after   18 cycles
 SCF Done:  E(RB3LYP) =  -796.683852831     A.U. after   13 cycles
 SCF Done:  E(RB3LYP) =  -796.684480811     A.U. after   12 cycles
 SCF Done:  E(RB3LYP) =  -796.684961965     A.U. after   14 cycles
 SCF Done:  E(RB3LYP) =  -796.685475366     A.U. after   15 cycles
 SCF Done:  E(RB3LYP) =  -796.686263100     A.U. after   13 cycles
 SCF Done:  E(RB3LYP) =  -796.686929727     A.U. after   15 cycles
 SCF Done:  E(RB3LYP) =  -796.687045978     A.U. after   12 cycles
 SCF Done:  E(RB3LYP) =  -796.687139570     A.U. after   12 cycles
 SCF Done:  E(RB3LYP) =  -796.687155846     A.U. after   11 cycles
 SCF Done:  E(RB3LYP) =  -796.687158774     A.U. after   11 cycles
 SCF Done:  E(RB3LYP) =  -796.687159467     A.U. after   10 cycles
 SCF Done:  E(RB3LYP) =  -796.687159649     A.U. after    9 cycles
 SCF Done:  E(RB3LYP) =  -796.687159669     A.U. after    8 cycles
 Optimization completed.
    -- Stationary point found.
 Normal termination of Gaussian 09 at Thu Jul 29 00:58:55 2021.

 ----------------------------------------------------------------------
 #N Geom=AllCheck Guess=TCheck SCRF=Check GenChk RB3LYP/6-311++G(d,p) F
 req
 ----------------------------------------------------------------------

 Structure from the checkpoint file:  "conf-342.chk"
 ------------------------------------------------------------
 Candidate Structure: Conf:342 OPT and FREQ calc in gas phase
 ------------------------------------------------------------
 Charge =  1 Multiplicity = 1

                          Input orientation:
 ---------------------------------------------------------------------
 Center     Atomic      Atomic             Coordinates (Angstroms)
 Number     Number       Type             X           Y           Z
 ---------------------------------------------------------------------
      1          8           0        1.078734   -1.243724    0.087936
      2          6           0        1.424139   -0.106527   -0.206060
      3          7           0        0.581911    0.903047   -0.483666
      4          6           0       -0.855520    0.707190   -0.630311
      5          6           0       -1.359644    1.897461   -1.469181
      6          8           0       -2.663377    1.940905   -1.729940
      7          8           0       -0.602226    2.743831   -1.873824
      8          6           0       -1.578067    0.574086    0.744919
      9          6           0       -2.949315   -0.012723    0.647065
     10          6           0       -4.209350    0.539108    0.739152
     11          7           0       -5.179775   -0.422582    0.585500
     12          6           0       -4.533811   -1.548153    0.405867
     13          7           0       -3.178820   -1.361847    0.425978
     14          6           0        2.924097    0.246539   -0.300802
     15          6           0        3.702062   -0.708727    0.591999
     16          7           0        5.197507   -0.651603    0.288651
     17          1           0        0.915381    1.790155   -0.851875
     18          1           0       -1.025316   -0.211199   -1.202404
     19          1           0       -3.162464    1.258102   -1.242430
     20          1           0       -1.636721    1.554868    1.222966
     21          1           0       -0.948464   -0.055974    1.377876
     22          1           0       -4.465971    1.570286    0.934515
     23          1           0       -4.982126   -2.518418    0.253678
     24          1           0       -2.476397   -2.082991    0.350066
     25          1           0        3.101790    1.291219   -0.031652
     26          1           0        3.214828    0.116304   -1.350723
     27          1           0        3.380957   -1.736422    0.427790
     28          1           0        3.596563   -0.471246    1.650412
     29          1           0        5.386932   -0.909927   -0.684951
     30          1           0        5.580043    0.287361    0.436588
     31          1           0        5.722147   -1.297457    0.886851
 ---------------------------------------------------------------------

 SCF Done:  E(RB3LYP) =  -796.687159669     A.U. after    1 cycles

 Alpha  occ. eigenvalues --  -19.27276 -19.23658 -19.22250 -14.64538 -14.47796
 Alpha  occ. eigenvalues --  -14.46687 -14.38491 -10.42620 -10.42271 -10.41895
 Alpha  occ. eigenvalues --  -10.36381 -10.35483 -10.31899 -10.31112 -10.30689
 Alpha  occ. eigenvalues --  -10.28226  -1.21872  -1.21037  -1.19011  -1.13929
 Alpha  occ. eigenvalues --   -1.11548  -1.07049  -0.97396  -0.97076  -0.91855
 Alpha  occ. eigenvalues --   -0.86607  -0.83794  -0.79552  -0.79331  -0.78135
 Alpha  occ. eigenvalues --   -0.73976  -0.71891  -0.71200  -0.69900  -0.69190
 Alpha  occ. eigenvalues --   -0.68041  -0.65448  -0.64256  -0.61483  -0.60906
 Alpha  occ. eigenvalues --   -0.59021  -0.58082  -0.57501  -0.55831  -0.55448
 Alpha  occ. eigenvalues --   -0.54723  -0.53815  -0.52601  -0.51462  -0.51350
 Alpha  occ. eigenvalues --   -0.50588  -0.49572  -0.48319  -0.43261  -0.41272
 Alpha  occ. eigenvalues --   -0.40595  -0.39600  -0.38183  -0.36271  -0.33276
 Alpha virt. eigenvalues --   -0.20525  -0.15027  -0.14591  -0.13884  -0.12883
 Alpha virt. eigenvalues --   -0.11348  -0.10813  -0.09821  -0.09645  -0.08786
 Alpha virt. eigenvalues --   -0.08405  -0.07830  -0.07250  -0.06606  -0.06283

 Mulliken charges:
               1
     1  O   -0.298939
     2  C    0.025922
     3  N    0.018607
     4  C   -0.062122
     5  C   -0.220582
     6  O   -0.162698
     7  O   -0.252353
     8  C   -0.951722
     9  C    0.651826
    10  C   -0.616809
    11  N   -0.071094
    12  C    0.135067
    13  N   -0.137059
    14  C   -0.348278
    15  C   -0.573258
    16  N   -0.215835
    17  H    0.287936
    18  H    0.298526
    19  H    0.393551
    20  H    0.236276
    21  H    0.244599
    22  H    0.174070
    23  H    0.188524
    24  H    0.318049
    25  H    0.181150
    26  H    0.211714
    27  H    0.273264
    28  H    0.244447
    29  H    0.338687
    30  H    0.341283
    31  H    0.347252
 Sum of Mulliken charges =   1.00000

 Dipole moment (field-independent basis, Debye):
    X=             21.9456    Y=             -4.3923    Z=              2.3662  Tot=             22.5056
 Quadrupole moment (field-independent basis, Debye-Ang):
   XX=             13.7035   YY=            -91.5292   ZZ=            -94.8491
   XY=             -3.6604   XZ=              5.6460   YZ=              7.4721

  Exact polarizability: 187.910   3.991 136.726  -2.792 -11.007 102.963
 Approx polarizability: 235.246   6.680 222.831  -3.791 -10.931 154.575

                      1                      2                      3
                      A                      A                      A
 Frequencies --     30.2840                32.2957                44.6481
 Red. masses --      2.9179                 4.5563                 2.2402
 Frc consts  --      0.0016                 0.0028                 0.0026
 IR Inten    --      1.8427                 2.4078                 8.4149

                      4                      5                      6
                      A                      A                      A
 Frequencies --     58.7722                71.6973                83.4434
 Red. masses --      5.2728                 4.5848                 5.8340
 Frc consts  --      0.0107                 0.0139                 0.0239
 IR Inten    --      2.6254                 4.0270                15.2653

                      7                      8                      9
                      A                      A                      A
 Frequencies --     98.7671               103.2654               148.0044
 Red. masses --      7.3648                 5.5792                 4.1494
 Frc consts  --      0.0423                 0.0351                 0.0536
 IR Inten    --      2.9564                13.0942                 8.2561

                     10                     11                     12
                      A                      A                      A
 Frequencies --    187.2620               210.4499               232.7186
 Red. masses --      5.0926                 2.8337                 1.2929
 Frc consts  --      0.1052                 0.0739                 0.0413
 IR Inten    --      1.3536                23.8767                 3.1118

                     13                     14                     15
                      A                      A                      A
 Frequencies --    269.0044               330.3591               334.2318
 Red. masses --      5.6014                 2.1770                 7.0919
 Frc consts  --      0.2388                 0.1400                 0.4668
 IR Inten    --     14.5478                 3.3197                 4.2106

                     16                     17                     18
                      A                      A                      A
 Frequencies --    344.7514               376.6866               385.2430
 Red. masses --      5.0259                 3.6204                 4.4366
 Frc consts  --      0.3519                 0.3027                 0.3879
 IR Inten    --      4.9476                19.5085                12.4909

                     19                     20                     21
                      A                      A                      A
 Frequencies --    542.0446               547.6138               588.4739
 Red. masses --      2.1139                 2.1800                 2.0373
 Frc consts  --      0.3659                 0.3852                 0.4157
 IR Inten    --     55.4343                18.8161                 3.4797

                     22                     23                     24
                      A                      A                      A
 Frequencies --    610.0227               641.6224               655.7425
 Red. masses --      2.2224                 1.8532                 1.7754
 Frc consts  --      0.4873                 0.4495                 0.4498
 IR Inten    --     95.7527                32.3887                49.2433

                     25                     26                     27
                      A                      A                      A
 Frequencies --    668.2527               678.1228               715.3299
 Red. masses --      2.5351                 2.6933                 2.8467
 Frc consts  --      0.6670                 0.7297                 0.8582
 IR Inten    --     20.2083                 0.3434                23.6511

                     28                     29                     30
                      A                      A                      A
 Frequencies --    739.4274               767.0902               795.4013
 Red. masses --      3.0428                 4.2102                 1.3796
 Frc consts  --      0.9802                 1.4597                 0.5143
 IR Inten    --      3.2303                 0.1098                 8.4942

                     31                     32                     33
                      A                      A                      A
 Frequencies --    820.7614               843.0939               867.4987
 Red. masses --      3.0308                 1.4097                 1.3186
 Frc consts  --      1.2030                 0.5904                 0.5846
 IR Inten    --      6.1633                17.3999                11.3368

                     34                     35                     36
                      A                      A                      A
 Frequencies --    883.0297               918.2884               928.2938
 Red. masses --      2.7436                 1.2952                 4.0262
 Frc consts  --      1.2604                 0.6435                 2.0442
 IR Inten    --     35.4916                 4.9550                 3.3657

                     37                     38                     39
                      A                      A                      A
 Frequencies --    932.8195               980.9010               999.7180
 Red. masses --      4.6158                 2.1272                 3.7084
 Frc consts  --      2.3664                 1.2059                 2.1837
 IR Inten    --     30.4822                14.3956                36.5861

                     40                     41                     42
                      A                      A                      A
 Frequencies --   1020.5893              1027.1398              1092.6927
 Red. masses --      3.7585                 3.3341                 1.9050
 Frc consts  --      2.3066                 2.0724                 1.3401
 IR Inten    --      9.9996                 2.3510                19.0523

                     43                     44                     45
                      A                      A                      A
 Frequencies --   1102.6937              1113.5937              1147.6038
 Red. masses --      1.7031                 2.1047                 2.5466
 Frc consts  --      1.2201                 1.5378                 1.9761
 IR Inten    --     18.1176                25.4264                 4.1079

                     46                     47                     48
                      A                      A                      A
 Frequencies --   1148.0129              1174.2680              1219.3684
 Red. masses --      2.0153                 1.3638                 2.0073
 Frc consts  --      1.5649                 1.1080                 1.7585
 IR Inten    --     18.0557                 2.6919                 8.4323

                     49                     50                     51
                      A                      A                      A
 Frequencies --   1237.6113              1255.3735              1279.2937
 Red. masses --      1.5347                 2.3070                 1.3638
 Frc consts  --      1.3850                 2.1421                 1.3151
 IR Inten    --     26.5033                22.6139                 0.4402

                     52                     53                     54
                      A                      A                      A
 Frequencies --   1290.2520              1305.3830              1323.8261
 Red. masses --      1.2926                 1.3564                 1.4044
 Frc consts  --      1.2678                 1.3618                 1.4501
 IR Inten    --      2.3657                48.2164                32.0461

                     55                     56                     57
                      A                      A                      A
 Frequencies --   1328.5820              1346.7235              1357.5011
 Red. masses --      1.2857                 1.5069                 1.4786
 Frc consts  --      1.3371                 1.6102                 1.6054
 IR Inten    --      3.5962               136.3376                27.5251

                     58                     59                     60
                      A                      A                      A
 Frequencies --   1382.7844              1405.7273              1406.6136
 Red. masses --      2.3041                 2.2019                 1.3398
 Frc consts  --      2.5957                 2.5636                 1.5619
 IR Inten    --      1.6767               190.9847                24.8268

                     61                     62                     63
                      A                      A                      A
 Frequencies --   1425.3033              1479.1987              1484.5346
 Red. masses --      2.6762                 1.1155                 1.1030
 Frc consts  --      3.2032                 1.4380                 1.4322
 IR Inten    --     25.0165                 0.8024                12.6456

                     64                     65                     66
                      A                      A                      A
 Frequencies --   1497.5180              1505.9985              1517.4866
 Red. masses --      3.8720                 1.0742                 1.1931
 Frc consts  --      5.1160                 1.4354                 1.6188
 IR Inten    --     40.1166                14.3280               235.0747

                     67                     68                     69
                      A                      A                      A
 Frequencies --   1533.6605              1597.6033              1664.0227
 Red. masses --      2.2833                 4.2030                 1.0419
 Frc consts  --      3.1642                 6.3204                 1.6999
 IR Inten    --    274.8502                 7.9627                48.1971

                     70                     71                     72
                      A                      A                      A
 Frequencies --   1667.9592              1734.9689              1813.1766
 Red. masses --      1.0439                 9.7331                 9.5599
 Frc consts  --      1.7111                17.2617                18.5176
 IR Inten    --     38.8285               295.6240               348.7611

                     73                     74                     75
                      A                      A                      A
 Frequencies --   3022.1197              3040.0676              3053.3862
 Red. masses --      1.0640                 1.0814                 1.0619
 Frc consts  --      5.7254                 5.8887                 5.8331
 IR Inten    --      3.3519                 4.2225                14.1143

                     76                     77                     78
                      A                      A                      A
 Frequencies --   3080.6423              3095.8530              3097.0933
 Red. masses --      1.0997                 1.0597                 1.1048
 Frc consts  --      6.1490                 5.9839                 6.2437
 IR Inten    --      4.1765                 3.8116                 2.8996

                     79                     80                     81
                      A                      A                      A
 Frequencies --   3155.7361              3229.7179              3246.4877
 Red. masses --      1.1116                 1.0969                 1.0987
 Frc consts  --      6.5223                 6.7416                 6.8225
 IR Inten    --      2.3109                 2.7098                 1.7389

                     82                     83                     84
                      A                      A                      A
 Frequencies --   3397.2780              3474.4735              3476.5106
 Red. masses --      1.0301                 1.0932                 1.0934
 Frc consts  --      7.0047                 7.7752                 7.7859
 IR Inten    --     56.4244                90.5643                90.5002

                     85                     86                     87
                      A                      A                      A
 Frequencies --   3512.3105              3584.7643              3630.5863
 Red. masses --      1.0780                 1.0679                 1.0817
 Frc consts  --      7.8353                 8.0854                 8.4005
 IR Inten    --    135.3121               495.9051                60.9778

 - Thermochemistry -
 -------------------
 Temperature   298.150 Kelvin.  Pressure   1.00000 Atm.
 Atom     1 has atomic number  8 and mass  15.99491

 Molecular mass:   227.11442 amu.
 Principal axes and moments of inertia in atomic units:
                           1         2         3
     Eigenvalues --  1922.414407570.947939105.77642
           X            0.99915   0.02802   0.03024
           Y           -0.03995   0.83917   0.54240
           Z           -0.01018  -0.54315   0.83958
 This molecule is an asymmetric top.
 Rotational symmetry number  1.
 Warning -- assumption of classical behavior for rotation
           may cause significant error
 Rotational temperatures (Kelvin)      0.04505     0.01144     0.00951
 Rotational constants (GHZ):           0.93879     0.23838     0.19820
 Zero-point vibrational energy     678578.8 (Joules/Mol)
                                  162.18424 (Kcal/Mol)
 Warning -- explicit consideration of  22 degrees of freedom as
           vibrations may cause significant error
 Vibrational temperatures:     43.57    46.47    64.24    84.56   103.16
          (Kelvin)            120.06   142.10   148.58   212.95   269.43
                              302.79   334.83   387.04   475.31   480.88
                              496.02   541.97   554.28   779.88   787.89
                              846.68   877.69   923.15   943.47   961.47
                              975.67  1029.20  1063.87  1103.67  1144.40
                             1180.89  1213.02  1248.14  1270.48  1321.21
                             1335.61  1342.12  1411.30  1438.37  1468.40
                             1477.82  1572.14  1586.53  1602.21  1651.14
                             1651.73  1689.51  1754.40  1780.64  1806.20
                             1840.62  1856.38  1878.15  1904.69  1911.53
                             1937.63  1953.14  1989.52  2022.53  2023.80
                             2050.69  2128.23  2135.91  2154.59  2166.79
                             2183.32  2206.59  2298.59  2394.15  2399.82
                             2496.23  2608.75  4348.15  4373.97  4393.14
                             4432.35  4454.24  4456.02  4540.39  4646.84
                             4670.97  4887.92  4998.99  5001.92  5053.43
                             5157.67  5223.60

 Zero-point correction=                           0.258457 (Hartree/Particle)
 Thermal correction to Energy=                    0.274720
 Thermal correction to Enthalpy=                  0.275665
 Thermal correction to Gibbs Free Energy=         0.211959
 Sum of electronic and zero-point Energies=           -796.428703
 Sum of electronic and thermal Energies=              -796.412439
 Sum of electronic and thermal Enthalpies=            -796.411495
 Sum of electronic and thermal Free Energies=         -796.475200

                     E (Thermal)             CV                S
                      KCal/Mol        Cal/Mol-Kelvin    Cal/Mol-Kelvin
 Total                  172.390             58.818            134.079
 Electronic               0.000              0.000              0.000
 Translational            0.889              2.981             42.163
 Rotational               0.889              2.981             33.249
 Vibrational            170.612             52.856             58.667
 Vibration     1          0.594              1.984              5.811
 Vibration     2          0.594              1.983              5.683
 Vibration     3          0.595              1.980              5.041
 Vibration     4          0.596              1.974              4.498
 Vibration     5          0.598              1.968              4.106
 Vibration     6          0.600              1.961              3.808
 Vibration     7          0.604              1.950              3.479
 Vibration     8          0.605              1.947              3.392
 Vibration     9          0.617              1.905              2.698
 Vibration    10          0.632              1.857              2.255
 Vibration    11          0.643              1.825              2.040
 Vibration    12          0.653              1.791              1.858
 Vibration    13          0.673              1.730              1.603
 Vibration    14          0.713              1.615              1.258
 Vibration    15          0.716              1.607              1.240
 Vibration    16          0.723              1.586              1.190
 Vibration    17          0.747              1.520              1.052
 Vibration    18          0.754              1.502              1.019
 Vibration    19          0.897              1.157              0.561
 Vibration    20          0.903              1.145              0.549
 Vibration    21          0.946              1.056              0.470
 Vibration    22          0.969              1.011              0.433

 Optimization completed.
    -- Stationary point found.
 Normal termination of Gaussian 09 at Thu Jul 29 02:12:17 2021.
