 Gaussian 09, Revision D.01,
 Gaussian 09:  ES64L-G09RevD.01 24-Apr-2013

 ----------------------------------------------------------------------
 # B3LYP/6-311++G(d,p) opt=calcfc freq=noraman nosymm integral(ultrafin
 egrid)
 ----------------------------------------------------------------------

 ------------------------------------------------------------
 Candidate Structure: Conf:628 OPT and FREQ calc in gas phase
 ------------------------------------------------------------
 Symbolic Z-matrix:
 Charge =  1 Multiplicity = 1

 SCF Done:  E(RB3LYP) =  -796.704366976     A.U. after   14 cycles
 SCF Done:  E(RB3LYP) =  -796.711093617     A.U. after   14 cycles
 SCF Done:  E(RB3LYP) =  -796.712232292     A.U. after   13 cycles
 SCF Done:  E(RB3LYP) =  -796.712800368     A.U. after   12 cycles
 SCF Done:  E(RB3LYP) =  -796.712948342     A.U. after   12 cycles
 SCF Done:  E(RB3LYP) =  -796.712963146     A.U. after   11 cycles
 SCF Done:  E(RB3LYP) =  -796.712965230     A.U. after   10 cycles
 SCF Done:  E(RB3LYP) =  -796.712965720     A.U. after   10 cycles
 SCF Done:  E(RB3LYP) =  -796.712965835     A.U. after    8 cycles
 Optimization completed.
    -- Stationary point found.
 Normal termination of Gaussian 09 at Thu Jul 29 00:15:51 2021.

 ----------------------------------------------------------------------
 #N Geom=AllCheck Guess=TCheck SCRF=Check GenChk RB3LYP/6-311++G(d,p) F
 req
 ----------------------------------------------------------------------

 Structure from the checkpoint file:  "conf-628.chk"
 ------------------------------------------------------------
 Candidate Structure: Conf:628 OPT and FREQ calc in gas phase
 ------------------------------------------------------------
 Charge =  1 Multiplicity = 1

                          Input orientation:
 ---------------------------------------------------------------------
 Center     Atomic      Atomic             Coordinates (Angstroms)
 Number     Number       Type             X           Y           Z
 ---------------------------------------------------------------------
      1          8           0       -1.435820   -0.109360   -0.874060
      2          6           0       -1.543024   -0.193837    0.365660
      3          7           0       -0.490150   -0.318115    1.169961
      4          6           0        0.890000   -0.404435    0.684845
      5          6           0        1.680528   -1.025139    1.832047
      6          8           0        2.963985   -1.248111    1.510411
      7          8           0        1.209811   -1.267008    2.915297
      8          6           0        1.462465    0.986440    0.240591
      9          6           0        2.396508    0.946234   -0.922889
     10          6           0        2.224520    1.389872   -2.212772
     11          7           0        3.353928    1.175274   -2.962329
     12          6           0        4.210510    0.606077   -2.147476
     13          7           0        3.686525    0.446508   -0.895661
     14          6           0       -2.926158   -0.116754    1.014568
     15          6           0       -4.006423   -0.746408    0.127934
     16          7           0       -3.962337   -0.123374   -1.251160
     17          1           0       -0.611080   -0.472961    2.166352
     18          1           0        0.917786   -1.077492   -0.175607
     19          1           0        3.406721   -1.636821    2.283136
     20          1           0        0.609659    1.594837   -0.062189
     21          1           0        1.910371    1.486133    1.106475
     22          1           0        1.349408    1.861620   -2.634138
     23          1           0        5.211826    0.291247   -2.399548
     24          1           0        4.128632   -0.006409   -0.110823
     25          1           0       -2.943017   -0.616377    1.985208
     26          1           0       -3.152635    0.939270    1.202723
     27          1           0       -3.823249   -1.812031   -0.012947
     28          1           0       -5.002423   -0.615393    0.548504
     29          1           0       -4.370277    0.813239   -1.266782
     30          1           0       -2.904580   -0.055329   -1.452965
     31          1           0       -4.441990   -0.691111   -1.950972
 ---------------------------------------------------------------------

 SCF Done:  E(RB3LYP) =  -796.712965835     A.U. after    1 cycles

 Alpha  occ. eigenvalues --  -19.31204 -19.26798 -19.25748 -14.58805 -14.50393
 Alpha  occ. eigenvalues --  -14.45345 -14.37345 -10.44933 -10.44929 -10.41165
 Alpha  occ. eigenvalues --  -10.37031 -10.36593 -10.31144 -10.30651 -10.29698
 Alpha  occ. eigenvalues --  -10.26843  -1.25656  -1.21963  -1.16959  -1.15998
 Alpha  occ. eigenvalues --   -1.10314  -1.09422  -0.96794  -0.95894  -0.92637
 Alpha  occ. eigenvalues --   -0.86354  -0.83659  -0.79210  -0.77860  -0.75764
 Alpha  occ. eigenvalues --   -0.74758  -0.73332  -0.70276  -0.68781  -0.68006
 Alpha  occ. eigenvalues --   -0.66589  -0.65001  -0.63537  -0.62895  -0.62011
 Alpha  occ. eigenvalues --   -0.61095  -0.59820  -0.58794  -0.57134  -0.56726
 Alpha  occ. eigenvalues --   -0.55866  -0.55078  -0.53423  -0.52480  -0.51198
 Alpha  occ. eigenvalues --   -0.50276  -0.50179  -0.49310  -0.46880  -0.44323
 Alpha  occ. eigenvalues --   -0.43049  -0.42694  -0.36988  -0.35275  -0.31818
 Alpha virt. eigenvalues --   -0.17329  -0.15651  -0.13985  -0.12960  -0.12746
 Alpha virt. eigenvalues --   -0.11513  -0.10536  -0.09759  -0.08931  -0.07906
 Alpha virt. eigenvalues --   -0.07603  -0.07309  -0.06883  -0.06584  -0.06111

 Mulliken charges:
               1
     1  O   -0.303164
     2  C   -0.236895
     3  N    0.073227
     4  C   -0.359503
     5  C    0.150064
     6  O   -0.179535
     7  O   -0.235760
     8  C   -0.207133
     9  C    0.082020
    10  C   -0.431298
    11  N   -0.125430
    12  C    0.069521
    13  N   -0.142511
    14  C   -0.335780
    15  C   -0.539275
    16  N   -0.339085
    17  H    0.311869
    18  H    0.313318
    19  H    0.328914
    20  H    0.237635
    21  H    0.218369
    22  H    0.125705
    23  H    0.182268
    24  H    0.327388
    25  H    0.193040
    26  H    0.248786
    27  H    0.245612
    28  H    0.266149
    29  H    0.325378
    30  H    0.397273
    31  H    0.338836
 Sum of Mulliken charges =   1.00000

 Dipole moment (field-independent basis, Debye):
    X=            -12.4513    Y=             -2.4749    Z=              2.6744  Tot=             12.9735
 Quadrupole moment (field-independent basis, Debye-Ang):
   XX=             -4.6472   YY=            -89.5574   ZZ=            -97.1263
   XY=             -6.0565   XZ=             25.2709   YZ=              3.5092

  Exact polarizability: 172.760  -3.690 102.225  -7.444 -16.088 149.484
 Approx polarizability: 218.313 -13.935 154.901  -5.805 -19.704 233.976

                      1                      2                      3
                      A                      A                      A
 Frequencies --     29.2480                32.5064                51.5342
 Red. masses --      5.2521                 3.7692                 4.9368
 Frc consts  --      0.0026                 0.0023                 0.0077
 IR Inten    --      3.7565                 8.3944                 2.4834

                      4                      5                      6
                      A                      A                      A
 Frequencies --     60.9627                73.1782                94.7901
 Red. masses --      4.9543                 6.1804                 4.6980
 Frc consts  --      0.0108                 0.0195                 0.0249
 IR Inten    --      6.8369                 4.4356                 7.3036

                      7                      8                      9
                      A                      A                      A
 Frequencies --    112.6923               131.8755               186.8035
 Red. masses --      5.1470                 5.5407                 4.9768
 Frc consts  --      0.0385                 0.0568                 0.1023
 IR Inten    --      2.2389                 0.6474                 8.6436

                     10                     11                     12
                      A                      A                      A
 Frequencies --    205.2189               259.8858               286.4061
 Red. masses --      2.1830                 5.1709                 4.0001
 Frc consts  --      0.0542                 0.2058                 0.1933
 IR Inten    --     27.6130                54.8567                 3.2474

                     13                     14                     15
                      A                      A                      A
 Frequencies --    319.2560               343.8480               380.2278
 Red. masses --      2.1269                 6.0115                 3.3981
 Frc consts  --      0.1277                 0.4188                 0.2895
 IR Inten    --     12.5520                 2.5927               106.4246

                     16                     17                     18
                      A                      A                      A
 Frequencies --    387.7366               399.4218               443.7270
 Red. masses --      2.8320                 1.5973                 2.4127
 Frc consts  --      0.2509                 0.1501                 0.2799
 IR Inten    --     22.3441                17.5636                 6.4198

                     19                     20                     21
                      A                      A                      A
 Frequencies --    541.2615               546.4598               588.0459
 Red. masses --      2.6854                 1.6019                 2.2566
 Frc consts  --      0.4635                 0.2818                 0.4598
 IR Inten    --     56.1282                54.5587                 9.3281

                     22                     23                     24
                      A                      A                      A
 Frequencies --    603.3615               641.2843               661.7191
 Red. masses --      2.1135                 3.1438                 1.9831
 Frc consts  --      0.4533                 0.7617                 0.5116
 IR Inten    --     34.8504                66.9090                82.6157

                     25                     26                     27
                      A                      A                      A
 Frequencies --    663.3658               675.8442               730.9776
 Red. masses --      1.2856                 2.6052                 3.1851
 Frc consts  --      0.3333                 0.7011                 1.0027
 IR Inten    --     59.7205                 1.3190                11.9039

                     28                     29                     30
                      A                      A                      A
 Frequencies --    736.5967               768.2308               817.4774
 Red. masses --      3.2885                 4.1044                 2.6172
 Frc consts  --      1.0513                 1.4272                 1.0305
 IR Inten    --     30.3718                 7.6934                 6.0776

                     31                     32                     33
                      A                      A                      A
 Frequencies --    829.3908               847.3571               853.2033
 Red. masses --      1.3940                 2.5491                 1.4611
 Frc consts  --      0.5650                 1.0784                 0.6267
 IR Inten    --     23.9549                30.3126                13.3885

                     34                     35                     36
                      A                      A                      A
 Frequencies --    881.9698               932.0432               944.0494
 Red. masses --      1.9882                 5.6737                 2.3948
 Frc consts  --      0.9112                 2.9039                 1.2575
 IR Inten    --     88.6995                10.8828                 2.6150

                     37                     38                     39
                      A                      A                      A
 Frequencies --    951.2390               993.0711              1002.1118
 Red. masses --      1.4180                 4.0513                 3.4124
 Frc consts  --      0.7560                 2.3540                 2.0190
 IR Inten    --      3.5933                 1.6055                 3.2228

                     40                     41                     42
                      A                      A                      A
 Frequencies --   1019.9754              1028.1049              1091.5593
 Red. masses --      3.7338                 3.4084                 3.3359
 Frc consts  --      2.2887                 2.1227                 2.3418
 IR Inten    --     30.6156                11.8924                16.5278

                     43                     44                     45
                      A                      A                      A
 Frequencies --   1109.5623              1125.1913              1136.7245
 Red. masses --      1.6532                 1.4084                 1.5294
 Frc consts  --      1.1992                 1.0506                 1.1644
 IR Inten    --     35.0410               154.6804                22.1563

                     46                     47                     48
                      A                      A                      A
 Frequencies --   1150.3933              1187.5193              1191.7298
 Red. masses --      1.9809                 1.9613                 1.5419
 Frc consts  --      1.5445                 1.6296                 1.2902
 IR Inten    --     21.8585                82.1428               113.0493

                     49                     50                     51
                      A                      A                      A
 Frequencies --   1251.5250              1265.4679              1273.2044
 Red. masses --      1.5380                 2.1415                 1.4071
 Frc consts  --      1.4193                 2.0205                 1.3439
 IR Inten    --      4.8264                 8.0668                 2.1351

                     52                     53                     54
                      A                      A                      A
 Frequencies --   1291.4086              1306.4743              1324.5232
 Red. masses --      1.3060                 1.3032                 1.3300
 Frc consts  --      1.2833                 1.3106                 1.3747
 IR Inten    --     14.3630                 0.3294                 3.4413

                     55                     56                     57
                      A                      A                      A
 Frequencies --   1330.5622              1357.4162              1379.3798
 Red. masses --      1.2608                 1.5015                 1.6536
 Frc consts  --      1.3151                 1.6300                 1.8537
 IR Inten    --     61.1952                39.7740                12.6071

                     58                     59                     60
                      A                      A                      A
 Frequencies --   1389.7224              1401.4633              1422.3837
 Red. masses --      3.1111                 1.2517                 2.1698
 Frc consts  --      3.5402                 1.4485                 2.5865
 IR Inten    --     30.8247                95.0631                70.2418

                     61                     62                     63
                      A                      A                      A
 Frequencies --   1429.7175              1461.2309              1466.3148
 Red. masses --      2.7597                 1.2864                 1.0817
 Frc consts  --      3.3236                 1.6184                 1.3703
 IR Inten    --     36.4499               497.7186                21.4042

                     64                     65                     66
                      A                      A                      A
 Frequencies --   1476.6362              1496.8125              1510.1764
 Red. masses --      1.1396                 3.3600                 1.0748
 Frc consts  --      1.4640                 4.4354                 1.4442
 IR Inten    --     11.3622                27.0299                28.8746

                     67                     68                     69
                      A                      A                      A
 Frequencies --   1567.4237              1601.9385              1630.9981
 Red. masses --      2.5800                 4.2918                 1.1859
 Frc consts  --      3.7346                 6.4890                 1.8587
 IR Inten    --    237.9898                 3.4714                30.6464

                     70                     71                     72
                      A                      A                      A
 Frequencies --   1679.0873              1692.8841              1807.4536
 Red. masses --      1.2252                 2.2841                 9.6825
 Frc consts  --      2.0353                 3.8568                18.6369
 IR Inten    --    118.5658               118.0862               339.2827

                     73                     74                     75
                      A                      A                      A
 Frequencies --   2596.0898              3030.5578              3037.3955
 Red. masses --      1.0887                 1.0698                 1.0683
 Frc consts  --      4.3231                 5.7887                 5.8070
 IR Inten    --   1170.4695                19.1155                 0.7986

                     76                     77                     78
                      A                      A                      A
 Frequencies --   3074.9420              3087.8153              3102.3907
 Red. masses --      1.0839                 1.0633                 1.0931
 Frc consts  --      6.0382                 5.9731                 6.1990
 IR Inten    --      3.6042                 1.6528                 0.6507

                     79                     80                     81
                      A                      A                      A
 Frequencies --   3105.4881              3143.7401              3232.2885
 Red. masses --      1.0940                 1.1111                 1.0965
 Frc consts  --      6.2164                 6.4696                 6.7495
 IR Inten    --      4.9821                 0.4682                 5.5737

                     82                     83                     84
                      A                      A                      A
 Frequencies --   3246.0029              3455.8783              3519.4344
 Red. masses --      1.0984                 1.0523                 1.0946
 Frc consts  --      6.8189                 7.4049                 7.9881
 IR Inten    --      1.1349                83.3711                76.9828

                     85                     86                     87
                      A                      A                      A
 Frequencies --   3534.7627              3649.7872              3730.0290
 Red. masses --      1.0785                 1.0813                 1.0647
 Frc consts  --      7.9395                 8.4862                 8.7275
 IR Inten    --    133.6462                86.5099               140.2613

 - Thermochemistry -
 -------------------
 Temperature   298.150 Kelvin.  Pressure   1.00000 Atm.
 Atom     1 has atomic number  8 and mass  15.99491

 Molecular mass:   227.11442 amu.
 Principal axes and moments of inertia in atomic units:
                           1         2         3
     Eigenvalues --  2485.020496089.170888221.35520
           X            0.97526   0.21624  -0.04587
           Y            0.12848  -0.38565   0.91366
           Z           -0.17988   0.89695   0.40389
 This molecule is an asymmetric top.
 Rotational symmetry number  1.
 Warning -- assumption of classical behavior for rotation
           may cause significant error
 Rotational temperatures (Kelvin)      0.03485     0.01422     0.01054
 Rotational constants (GHZ):           0.72625     0.29639     0.21952
 Zero-point vibrational energy     678342.1 (Joules/Mol)
                                  162.12766 (Kcal/Mol)
 Warning -- explicit consideration of  22 degrees of freedom as
           vibrations may cause significant error
 Vibrational temperatures:     42.08    46.77    74.15    87.71   105.29
          (Kelvin)            136.38   162.14   189.74   268.77   295.26
                              373.92   412.07   459.34   494.72   547.06
                              557.87   574.68   638.42   778.75   786.23
                              846.07   868.10   922.66   952.07   954.43
                              972.39  1051.71  1059.80  1105.31  1176.17
                             1193.31  1219.16  1227.57  1268.96  1341.00
                             1358.27  1368.62  1428.81  1441.81  1467.52
                             1479.21  1570.51  1596.41  1618.90  1635.49
                             1655.16  1708.57  1714.63  1800.66  1820.72
                             1831.85  1858.05  1879.72  1905.69  1914.38
                             1953.02  1984.62  1999.50  2016.39  2046.49
                             2057.04  2102.38  2109.70  2124.55  2153.58
                             2172.80  2255.17  2304.83  2346.64  2415.83
                             2435.68  2600.52  3735.19  4360.29  4370.13
                             4424.15  4442.67  4463.64  4468.10  4523.14
                             4650.54  4670.27  4972.23  5063.67  5085.73
                             5251.22  5366.67

 Zero-point correction=                           0.258367 (Hartree/Particle)
 Thermal correction to Energy=                    0.273999
 Thermal correction to Enthalpy=                  0.274943
 Thermal correction to Gibbs Free Energy=         0.213045
 Sum of electronic and zero-point Energies=           -796.454599
 Sum of electronic and thermal Energies=              -796.438967
 Sum of electronic and thermal Enthalpies=            -796.438022
 Sum of electronic and thermal Free Energies=         -796.499921

                     E (Thermal)             CV                S
                      KCal/Mol        Cal/Mol-Kelvin    Cal/Mol-Kelvin
 Total                  171.937             57.922            130.276
 Electronic               0.000              0.000              0.000
 Translational            0.889              2.981             42.163
 Rotational               0.889              2.981             33.186
 Vibrational            170.160             51.960             54.926
 Vibration     1          0.593              1.984              5.880
 Vibration     2          0.594              1.983              5.670
 Vibration     3          0.596              1.977              4.758
 Vibration     4          0.597              1.973              4.426
 Vibration     5          0.599              1.967              4.066
 Vibration     6          0.603              1.953              3.559
 Vibration     7          0.607              1.939              3.222
 Vibration     8          0.612              1.921              2.919
 Vibration     9          0.632              1.858              2.259
 Vibration    10          0.640              1.832              2.086
 Vibration    11          0.668              1.746              1.663
 Vibration    12          0.684              1.699              1.495
 Vibration    13          0.705              1.637              1.314
 Vibration    14          0.723              1.588              1.194
 Vibration    15          0.750              1.512              1.038
 Vibration    16          0.756              1.496              1.009
 Vibration    17          0.765              1.471              0.965
 Vibration    18          0.803              1.375              0.815
 Vibration    19          0.896              1.159              0.563
 Vibration    20          0.902              1.147              0.552
 Vibration    21          0.945              1.057              0.471
 Vibration    22          0.962              1.025              0.444

 Normal termination of Gaussian 09 at Thu Jul 29 01:33:01 2021.
