 Gaussian 09, Revision D.01,
 Gaussian 09:  ES64L-G09RevD.01 24-Apr-2013

 ----------------------------------------------------------------------
 # B3LYP/6-311++G(d,p) opt=calcfc freq=noraman nosymm integral(ultrafin
 egrid)
 ----------------------------------------------------------------------

 ------------------------------------------------------------
 Candidate Structure: Conf:661 OPT and FREQ calc in gas phase
 ------------------------------------------------------------
 Symbolic Z-matrix:
 Charge =  1 Multiplicity = 1

 SCF Done:  E(RB3LYP) =  -796.686570811     A.U. after   15 cycles
 SCF Done:  E(RB3LYP) =  -796.686421689     A.U. after   15 cycles
 SCF Done:  E(RB3LYP) =  -796.694682466     A.U. after   13 cycles
 SCF Done:  E(RB3LYP) =  -796.699363033     A.U. after   14 cycles
 SCF Done:  E(RB3LYP) =  -796.700487125     A.U. after   15 cycles
 SCF Done:  E(RB3LYP) =  -796.698138449     A.U. after   16 cycles
 SCF Done:  E(RB3LYP) =  -796.702119548     A.U. after   11 cycles
 SCF Done:  E(RB3LYP) =  -796.696869090     A.U. after   14 cycles
 SCF Done:  E(RB3LYP) =  -796.702489952     A.U. after   11 cycles
 SCF Done:  E(RB3LYP) =  -796.703310730     A.U. after   13 cycles
 SCF Done:  E(RB3LYP) =  -796.703644238     A.U. after   13 cycles
 SCF Done:  E(RB3LYP) =  -796.703718259     A.U. after   13 cycles
 SCF Done:  E(RB3LYP) =  -796.703870218     A.U. after   13 cycles
 SCF Done:  E(RB3LYP) =  -796.703971907     A.U. after   12 cycles
 SCF Done:  E(RB3LYP) =  -796.703985918     A.U. after   11 cycles
 SCF Done:  E(RB3LYP) =  -796.703987660     A.U. after   10 cycles
 SCF Done:  E(RB3LYP) =  -796.703987878     A.U. after    9 cycles
 SCF Done:  E(RB3LYP) =  -796.703987892     A.U. after    7 cycles
 Optimization completed.
    -- Stationary point found.
 Normal termination of Gaussian 09 at Thu Jul 29 01:44:44 2021.

 ----------------------------------------------------------------------
 #N Geom=AllCheck Guess=TCheck SCRF=Check GenChk RB3LYP/6-311++G(d,p) F
 req
 ----------------------------------------------------------------------

 Structure from the checkpoint file:  "conf-661.chk"
 ------------------------------------------------------------
 Candidate Structure: Conf:661 OPT and FREQ calc in gas phase
 ------------------------------------------------------------
 Charge =  1 Multiplicity = 1

                          Input orientation:
 ---------------------------------------------------------------------
 Center     Atomic      Atomic             Coordinates (Angstroms)
 Number     Number       Type             X           Y           Z
 ---------------------------------------------------------------------
      1          8           0        2.101014    1.152550    0.872232
      2          6           0        1.395844    0.935568   -0.098893
      3          7           0        0.161580    0.371474    0.011061
      4          6           0       -0.279177   -0.153160    1.283628
      5          6           0        0.726223   -1.226659    1.746410
      6          8           0        0.722375   -1.546821    3.034660
      7          8           0        1.458219   -1.825698    0.984571
      8          6           0       -1.694494   -0.803822    1.145464
      9          6           0       -2.662607    0.031433    0.377874
     10          6           0       -3.106806   -0.084514   -0.919984
     11          7           0       -3.955250    0.945460   -1.244080
     12          6           0       -4.037378    1.684052   -0.164684
     13          7           0       -3.266897    1.183786    0.850238
     14          6           0        1.952214    1.081967   -1.513212
     15          6           0        3.199265    0.200158   -1.604500
     16          7           0        2.869664   -1.258835   -1.322554
     17          1           0       -0.489185    0.351302   -0.764922
     18          1           0       -0.301967    0.647414    2.031531
     19          1           0        0.160280   -0.962335    3.561641
     20          1           0       -2.068059   -1.036829    2.147171
     21          1           0       -1.592212   -1.758288    0.622392
     22          1           0       -2.888453   -0.875848   -1.623044
     23          1           0       -4.631304    2.578441   -0.051461
     24          1           0       -3.211499    1.559802    1.785107
     25          1           0        2.269250    2.114952   -1.673084
     26          1           0        1.221618    0.830959   -2.287294
     27          1           0        3.920837    0.500672   -0.846280
     28          1           0        3.662425    0.242169   -2.589856
     29          1           0        3.725546   -1.813565   -1.245934
     30          1           0        2.326831   -1.398638   -0.428116
     31          1           0        2.311700   -1.667039   -2.076077
 ---------------------------------------------------------------------

 SCF Done:  E(RB3LYP) =  -796.703987892     A.U. after    3 cycles

 Alpha  occ. eigenvalues --  -19.32456 -19.27169 -19.24166 -14.59253 -14.49289
 Alpha  occ. eigenvalues --  -14.48655 -14.40383 -10.46718 -10.42706 -10.40098
 Alpha  occ. eigenvalues --  -10.38491 -10.34869 -10.33866 -10.33736 -10.33072
 Alpha  occ. eigenvalues --  -10.30165  -1.26829  -1.20107  -1.18342  -1.16133
 Alpha  occ. eigenvalues --   -1.13471  -1.08586  -0.99075  -0.95955  -0.93613
 Alpha  occ. eigenvalues --   -0.87772  -0.83232  -0.80531  -0.78438  -0.75674
 Alpha  occ. eigenvalues --   -0.74692  -0.74159  -0.73244  -0.71419  -0.69149
 Alpha  occ. eigenvalues --   -0.66781  -0.66431  -0.65418  -0.65131  -0.61563
 Alpha  occ. eigenvalues --   -0.60580  -0.59408  -0.58506  -0.57691  -0.56844
 Alpha  occ. eigenvalues --   -0.56179  -0.54810  -0.54154  -0.53434  -0.52933
 Alpha  occ. eigenvalues --   -0.52683  -0.52334  -0.50920  -0.48013  -0.44844
 Alpha  occ. eigenvalues --   -0.41961  -0.41430  -0.40164  -0.38206  -0.35146
 Alpha virt. eigenvalues --   -0.16852  -0.16117  -0.14894  -0.13365  -0.12535
 Alpha virt. eigenvalues --   -0.11363  -0.10542  -0.09947  -0.09608  -0.09102
 Alpha virt. eigenvalues --   -0.08229  -0.07910  -0.06638  -0.06568  -0.06034

 Mulliken charges:
               1
     1  O   -0.217464
     2  C   -0.152364
     3  N    0.075515
     4  C   -0.176505
     5  C   -0.157462
     6  O   -0.045220
     7  O   -0.286774
     8  C   -1.263666
     9  C    0.709179
    10  C   -0.489858
    11  N   -0.062888
    12  C    0.124146
    13  N   -0.115901
    14  C   -0.215046
    15  C   -0.465978
    16  N   -0.392000
    17  H    0.315244
    18  H    0.326142
    19  H    0.275588
    20  H    0.205174
    21  H    0.226870
    22  H    0.150116
    23  H    0.191006
    24  H    0.310528
    25  H    0.256913
    26  H    0.174979
    27  H    0.276630
    28  H    0.246164
    29  H    0.346716
    30  H    0.501357
    31  H    0.328859
 Sum of Mulliken charges =   1.00000

 Dipole moment (field-independent basis, Debye):
    X=              5.6417    Y=             -1.6601    Z=             -1.5573  Tot=              6.0835
 Quadrupole moment (field-independent basis, Debye-Ang):
   XX=            -62.4737   YY=            -84.3728   ZZ=            -69.0418
   XY=            -13.4954   XZ=            -38.9562   YZ=              9.4348

  Exact polarizability: 157.431 -15.969 122.153   0.182  -4.131 141.254
 Approx polarizability: 204.379 -18.319 185.950  11.275   7.798 224.909

                      1                      2                      3
                      A                      A                      A
 Frequencies --     32.8005                39.8936                60.3871
 Red. masses --      4.1501                 4.0329                 7.0323
 Frc consts  --      0.0026                 0.0038                 0.0151
 IR Inten    --     13.4968                 0.9022                12.8496

                      4                      5                      6
                      A                      A                      A
 Frequencies --     66.3871                80.2300               110.8023
 Red. masses --      4.2348                 5.5069                 4.8271
 Frc consts  --      0.0110                 0.0209                 0.0349
 IR Inten    --      4.1707                 6.8687                 6.4478

                      7                      8                      9
                      A                      A                      A
 Frequencies --    146.4432               158.8873               176.4421
 Red. masses --      5.3227                 5.7413                 6.7449
 Frc consts  --      0.0673                 0.0854                 0.1237
 IR Inten    --     23.1870                 3.9454                10.9214

                     10                     11                     12
                      A                      A                      A
 Frequencies --    214.6594               246.5035               275.3039
 Red. masses --      3.8537                 2.7050                 5.7482
 Frc consts  --      0.1046                 0.0968                 0.2567
 IR Inten    --     68.4687                13.2942                 9.9194

                     13                     14                     15
                      A                      A                      A
 Frequencies --    318.7455               328.7215               344.2313
 Red. masses --      2.9800                 1.1535                 3.2315
 Frc consts  --      0.1784                 0.0734                 0.2256
 IR Inten    --      9.0177                 0.5445                 4.2024

                     16                     17                     18
                      A                      A                      A
 Frequencies --    377.4598               419.1097               434.6542
 Red. masses --      3.5003                 3.8328                 2.5858
 Frc consts  --      0.2938                 0.3967                 0.2878
 IR Inten    --     13.2446                35.5821                 5.0790

                     19                     20                     21
                      A                      A                      A
 Frequencies --    485.5996               503.4098               525.7986
 Red. masses --      1.1639                 1.2187                 1.7206
 Frc consts  --      0.1617                 0.1820                 0.2803
 IR Inten    --     52.2702                51.2136                57.8912

                     22                     23                     24
                      A                      A                      A
 Frequencies --    542.8022               627.4499               647.2597
 Red. masses --      2.2101                 4.3502                 3.1396
 Frc consts  --      0.3837                 1.0091                 0.7750
 IR Inten    --     52.7647                 6.5775                 8.8431

                     25                     26                     27
                      A                      A                      A
 Frequencies --    673.2528               694.3175               707.2861
 Red. masses --      3.0607                 3.8029                 4.5590
 Frc consts  --      0.8174                 1.0802                 1.3437
 IR Inten    --      6.0285                 6.6552                17.6350

                     28                     29                     30
                      A                      A                      A
 Frequencies --    733.8276               776.7195               834.5621
 Red. masses --      2.4858                 5.7855                 3.1546
 Frc consts  --      0.7887                 2.0565                 1.2945
 IR Inten    --      1.4041                 2.1927                 1.9623

                     31                     32                     33
                      A                      A                      A
 Frequencies --    842.3164               845.0932               863.8029
 Red. masses --      1.3745                 1.7542                 1.9105
 Frc consts  --      0.5746                 0.7381                 0.8399
 IR Inten    --     36.4771                 1.9733                 6.0199

                     34                     35                     36
                      A                      A                      A
 Frequencies --    870.7595               927.9285               929.5473
 Red. masses --      2.1224                 2.5251                 5.9553
 Frc consts  --      0.9482                 1.2810                 3.0318
 IR Inten    --     14.7727                 5.7951                 7.8731

                     37                     38                     39
                      A                      A                      A
 Frequencies --    947.4413               953.5934              1000.6454
 Red. masses --      1.3491                 3.3414                 2.8359
 Frc consts  --      0.7135                 1.7902                 1.6730
 IR Inten    --      8.7200                 6.9407                 9.8934

                     40                     41                     42
                      A                      A                      A
 Frequencies --   1010.4126              1040.5817              1091.5521
 Red. masses --      3.7086                 3.0181                 1.6245
 Frc consts  --      2.2308                 1.9255                 1.1404
 IR Inten    --     14.9332                 3.7211                 5.6774

                     43                     44                     45
                      A                      A                      A
 Frequencies --   1103.4853              1114.9830              1138.9609
 Red. masses --      1.7385                 1.3575                 2.0120
 Frc consts  --      1.2472                 0.9943                 1.5378
 IR Inten    --     21.9817                 6.4653                29.1225

                     46                     47                     48
                      A                      A                      A
 Frequencies --   1150.6171              1184.4758              1203.7793
 Red. masses --      2.0801                 1.5085                 1.7071
 Frc consts  --      1.6225                 1.2470                 1.4575
 IR Inten    --     13.6445                15.6944                13.9366

                     49                     50                     51
                      A                      A                      A
 Frequencies --   1236.8795              1260.2589              1272.9471
 Red. masses --      1.7104                 2.1459                 1.4161
 Frc consts  --      1.5417                 2.0081                 1.3520
 IR Inten    --    100.3153                 4.8484                 4.3699

                     52                     53                     54
                      A                      A                      A
 Frequencies --   1279.1142              1304.3606              1325.0549
 Red. masses --      1.5001                 1.4439                 1.8312
 Frc consts  --      1.4461                 1.4474                 1.8943
 IR Inten    --     65.6192                96.9494               238.8077

                     55                     56                     57
                      A                      A                      A
 Frequencies --   1339.2663              1355.3260              1383.6158
 Red. masses --      1.3965                 1.4260                 1.3876
 Frc consts  --      1.4758                 1.5433                 1.5651
 IR Inten    --     15.7380                 8.1198                 7.4528

                     58                     59                     60
                      A                      A                      A
 Frequencies --   1389.4133              1397.7882              1412.0621
 Red. masses --      2.9093                 1.7378                 1.2922
 Frc consts  --      3.3091                 2.0005                 1.5180
 IR Inten    --     10.1749                93.6152                 2.4202

                     61                     62                     63
                      A                      A                      A
 Frequencies --   1425.9330              1476.4651              1479.1572
 Red. masses --      2.7250                 1.0981                 1.2142
 Frc consts  --      3.2645                 1.4104                 1.5652
 IR Inten    --     27.8849                15.4246                19.6117

                     64                     65                     66
                      A                      A                      A
 Frequencies --   1498.1724              1499.1175              1517.6682
 Red. masses --      1.0792                 2.9572                 2.1301
 Frc consts  --      1.4272                 3.9156                 2.8907
 IR Inten    --     19.3731                37.9299               329.3400

                     67                     68                     69
                      A                      A                      A
 Frequencies --   1575.4885              1599.4122              1672.1945
 Red. masses --      1.1576                 4.2172                 1.0533
 Frc consts  --      1.6930                 6.3562                 1.7352
 IR Inten    --    105.8869                 6.1210                67.9040

                     70                     71                     72
                      A                      A                      A
 Frequencies --   1681.2776              1742.7519              1772.3804
 Red. masses --      1.0531                 7.6186                 9.1195
 Frc consts  --      1.7539                13.6331                16.8785
 IR Inten    --     21.7477               255.7726               414.4132

                     73                     74                     75
                      A                      A                      A
 Frequencies --   2923.0337              3030.1772              3041.7566
 Red. masses --      1.0820                 1.0849                 1.0619
 Frc consts  --      5.4467                 5.8691                 5.7889
 IR Inten    --   1065.2398                 8.0198                13.2249

                     76                     77                     78
                      A                      A                      A
 Frequencies --   3053.7285              3087.1892              3093.6783
 Red. masses --      1.0629                 1.1020                 1.0625
 Frc consts  --      5.8396                 6.1884                 5.9913
 IR Inten    --      6.6693                 6.2047                 1.8680

                     79                     80                     81
                      A                      A                      A
 Frequencies --   3107.6734              3154.1939              3222.1603
 Red. masses --      1.0998                 1.1114                 1.0967
 Frc consts  --      6.2579                 6.5148                 6.7087
 IR Inten    --      2.5287                 0.0999                 4.1766

                     82                     83                     84
                      A                      A                      A
 Frequencies --   3248.0581              3446.5245              3500.6933
 Red. masses --      1.0988                 1.0537                 1.0926
 Frc consts  --      6.8299                 7.3747                 7.8889
 IR Inten    --      2.1320                81.8412                71.9605

                     85                     86                     87
                      A                      A                      A
 Frequencies --   3555.0082              3635.0615              3786.3617
 Red. masses --      1.0794                 1.0816                 1.0666
 Frc consts  --      8.0374                 8.4206                 9.0092
 IR Inten    --    156.7088                62.6554                84.5835

 - Thermochemistry -
 -------------------
 Temperature   298.150 Kelvin.  Pressure   1.00000 Atm.
 Atom     1 has atomic number  8 and mass  15.99491

 Molecular mass:   227.11442 amu.
 Principal axes and moments of inertia in atomic units:
                           1         2         3
     Eigenvalues --  2325.203595475.299176651.14052
           X            0.98085  -0.08067   0.17725
           Y           -0.19401  -0.48366   0.85348
           Z           -0.01688   0.87153   0.49005
 This molecule is an asymmetric top.
 Rotational symmetry number  1.
 Warning -- assumption of classical behavior for rotation
           may cause significant error
 Rotational temperatures (Kelvin)      0.03725     0.01582     0.01302
 Rotational constants (GHZ):           0.77616     0.32962     0.27134
 Zero-point vibrational energy     679391.1 (Joules/Mol)
                                  162.37838 (Kcal/Mol)
 Warning -- explicit consideration of  22 degrees of freedom as
           vibrations may cause significant error
 Vibrational temperatures:     47.19    57.40    86.88    95.52   115.43
          (Kelvin)            159.42   210.70   228.60   253.86   308.85
                              354.66   396.10   458.60   472.96   495.27
                              543.08   603.00   625.37   698.67   724.29
                              756.51   780.97   902.76   931.26   968.66
                              998.97  1017.63  1055.81  1117.52  1200.75
                             1211.90  1215.90  1242.82  1252.83  1335.08
                             1337.41  1363.16  1372.01  1439.70  1453.76
                             1497.16  1570.50  1587.67  1604.21  1638.71
                             1655.48  1704.19  1731.97  1779.59  1813.23
                             1831.48  1840.36  1876.68  1906.46  1926.90
                             1950.01  1990.71  1999.05  2011.10  2031.64
                             2051.60  2124.30  2128.17  2155.53  2156.89
                             2183.58  2266.77  2301.19  2405.91  2418.98
                             2507.43  2550.06  4205.59  4359.74  4376.40
                             4393.63  4441.77  4451.11  4471.24  4538.18
                             4635.96  4673.23  4958.77  5036.71  5114.86
                             5230.04  5447.72

 Zero-point correction=                           0.258766 (Hartree/Particle)
 Thermal correction to Energy=                    0.274441
 Thermal correction to Enthalpy=                  0.275385
 Thermal correction to Gibbs Free Energy=         0.214400
 Sum of electronic and zero-point Energies=           -796.445221
 Sum of electronic and thermal Energies=              -796.429547
 Sum of electronic and thermal Enthalpies=            -796.428603
 Sum of electronic and thermal Free Energies=         -796.489588

                     E (Thermal)             CV                S
                      KCal/Mol        Cal/Mol-Kelvin    Cal/Mol-Kelvin
 Total                  172.214             58.531            128.355
 Electronic               0.000              0.000              0.000
 Translational            0.889              2.981             42.163
 Rotational               0.889              2.981             32.804
 Vibrational            170.437             52.570             53.387
 Vibration     1          0.594              1.983              5.652
 Vibration     2          0.594              1.981              5.264
 Vibration     3          0.597              1.973              4.445
 Vibration     4          0.598              1.970              4.258
 Vibration     5          0.600              1.963              3.885
 Vibration     6          0.607              1.941              3.255
 Vibration     7          0.617              1.907              2.718
 Vibration     8          0.621              1.893              2.563
 Vibration     9          0.628              1.871              2.366
 Vibration    10          0.645              1.819              2.004
 Vibration    11          0.661              1.769              1.755
 Vibration    12          0.677              1.719              1.563
 Vibration    13          0.705              1.638              1.317
 Vibration    14          0.712              1.618              1.266
 Vibration    15          0.723              1.587              1.192
 Vibration    16          0.748              1.518              1.049
 Vibration    17          0.782              1.429              0.895
 Vibration    18          0.795              1.395              0.844
 Vibration    19          0.842              1.282              0.695
 Vibration    20          0.859              1.242              0.650
 Vibration    21          0.881              1.193              0.597
 Vibration    22          0.898              1.155              0.559

 Optimization completed.
    -- Stationary point found.
 Normal termination of Gaussian 09 at Thu Jul 29 03:07:13 2021.
