 Gaussian 09, Revision D.01,
 Gaussian 09:  ES64L-G09RevD.01 24-Apr-2013

 ----------------------------------------------------------------------
 # B3LYP/6-311++G(d,p) opt=calcfc freq=noraman nosymm integral(ultrafin
 egrid)
 ----------------------------------------------------------------------

 -----------------------------------------------------------
 Candidate Structure: Conf:55 OPT and FREQ calc in gas phase
 -----------------------------------------------------------
 Symbolic Z-matrix:
 Charge =  1 Multiplicity = 1

 SCF Done:  E(RB3LYP) =  -796.678367709     A.U. after   18 cycles
 SCF Done:  E(RB3LYP) =  -796.684059921     A.U. after   14 cycles
 SCF Done:  E(RB3LYP) =  -796.685432071     A.U. after   16 cycles
 SCF Done:  E(RB3LYP) =  -796.681558724     A.U. after   16 cycles
 SCF Done:  E(RB3LYP) =  -796.685599637     A.U. after   12 cycles
 SCF Done:  E(RB3LYP) =  -796.685728326     A.U. after   15 cycles
 SCF Done:  E(RB3LYP) =  -796.686020132     A.U. after   14 cycles
 SCF Done:  E(RB3LYP) =  -796.686098335     A.U. after   12 cycles
 SCF Done:  E(RB3LYP) =  -796.686258844     A.U. after   13 cycles
 SCF Done:  E(RB3LYP) =  -796.686374625     A.U. after   12 cycles
 SCF Done:  E(RB3LYP) =  -796.686523210     A.U. after   13 cycles
 SCF Done:  E(RB3LYP) =  -796.686727592     A.U. after   13 cycles
 SCF Done:  E(RB3LYP) =  -796.686809080     A.U. after   13 cycles
 SCF Done:  E(RB3LYP) =  -796.686834753     A.U. after   11 cycles
 SCF Done:  E(RB3LYP) =  -796.686836590     A.U. after   11 cycles
 SCF Done:  E(RB3LYP) =  -796.686836654     A.U. after    9 cycles
 SCF Done:  E(RB3LYP) =  -796.686836665     A.U. after    8 cycles
 Optimization completed.
    -- Stationary point found.
 Normal termination of Gaussian 09 at Thu Jul 29 01:21:32 2021.

 ----------------------------------------------------------------------
 #N Geom=AllCheck Guess=TCheck SCRF=Check GenChk RB3LYP/6-311++G(d,p) F
 req
 ----------------------------------------------------------------------

 Structure from the checkpoint file:  "conf-55.chk"
 -----------------------------------------------------------
 Candidate Structure: Conf:55 OPT and FREQ calc in gas phase
 -----------------------------------------------------------
 Charge =  1 Multiplicity = 1

                          Input orientation:
 ---------------------------------------------------------------------
 Center     Atomic      Atomic             Coordinates (Angstroms)
 Number     Number       Type             X           Y           Z
 ---------------------------------------------------------------------
      1          8           0        1.426828    0.669638    1.103955
      2          6           0        1.534216    0.119643    0.017858
      3          7           0        0.529252   -0.485080   -0.640732
      4          6           0       -0.802785   -0.648384   -0.070682
      5          6           0       -1.424816   -1.861448   -0.789304
      6          8           0       -2.600998   -2.290338   -0.335884
      7          8           0       -0.871688   -2.391888   -1.720216
      8          6           0       -1.658617    0.640978   -0.214694
      9          6           0       -2.967924    0.560812    0.512237
     10          6           0       -3.289758    0.217142    1.808862
     11          7           0       -4.646204    0.307549    2.018410
     12          6           0       -5.152866    0.702792    0.876276
     13          7           0       -4.182546    0.867707   -0.073291
     14          6           0        2.896146    0.119501   -0.712059
     15          6           0        3.992372    0.152493    0.343158
     16          7           0        5.344450    0.506922   -0.271219
     17          1           0        0.693923   -1.044289   -1.472498
     18          1           0       -0.697973   -0.876824    0.994108
     19          1           0       -2.938575   -1.719375    0.379399
     20          1           0       -1.823755    0.838364   -1.278225
     21          1           0       -1.058037    1.466344    0.177005
     22          1           0       -2.619853   -0.060600    2.609532
     23          1           0       -6.197948    0.879829    0.672627
     24          1           0       -4.329748    1.156708   -1.028998
     25          1           0        2.996349   -0.742484   -1.377185
     26          1           0        2.926556    1.026245   -1.328464
     27          1           0        3.774217    0.908963    1.096018
     28          1           0        4.125493   -0.810054    0.836883
     29          1           0        5.628726   -0.172412   -0.983547
     30          1           0        5.315966    1.428308   -0.719034
     31          1           0        6.079434    0.533240    0.442474
 ---------------------------------------------------------------------

 SCF Done:  E(RB3LYP) =  -796.686836665     A.U. after    3 cycles

 Alpha  occ. eigenvalues --  -19.27368 -19.23175 -19.22300 -14.64258 -14.47570
 Alpha  occ. eigenvalues --  -14.46675 -14.38475 -10.42245 -10.41928 -10.41894
 Alpha  occ. eigenvalues --  -10.36088 -10.35400 -10.31651 -10.31144 -10.30730
 Alpha  occ. eigenvalues --  -10.28114  -1.21914  -1.20756  -1.18656  -1.13966
 Alpha  occ. eigenvalues --   -1.11507  -1.06805  -0.97128  -0.96922  -0.91888
 Alpha  occ. eigenvalues --   -0.86291  -0.83499  -0.79284  -0.79141  -0.77973
 Alpha  occ. eigenvalues --   -0.73811  -0.71973  -0.71259  -0.69645  -0.68717
 Alpha  occ. eigenvalues --   -0.67890  -0.65417  -0.63943  -0.61035  -0.60796
 Alpha  occ. eigenvalues --   -0.58928  -0.58065  -0.56858  -0.55983  -0.54940
 Alpha  occ. eigenvalues --   -0.54497  -0.53689  -0.52817  -0.51557  -0.51330
 Alpha  occ. eigenvalues --   -0.50479  -0.49312  -0.48603  -0.43323  -0.40851
 Alpha  occ. eigenvalues --   -0.40214  -0.39514  -0.38206  -0.36244  -0.33003
 Alpha virt. eigenvalues --   -0.20282  -0.14868  -0.14317  -0.13711  -0.12252
 Alpha virt. eigenvalues --   -0.11295  -0.10765  -0.09509  -0.09260  -0.08436
 Alpha virt. eigenvalues --   -0.08332  -0.08045  -0.07274  -0.06407  -0.06177

 Mulliken charges:
               1
     1  O   -0.280473
     2  C   -0.128353
     3  N    0.042874
     4  C   -0.069592
     5  C   -0.169917
     6  O   -0.097779
     7  O   -0.248064
     8  C   -0.852992
     9  C    0.433216
    10  C   -0.403281
    11  N   -0.081959
    12  C    0.104163
    13  N   -0.103041
    14  C   -0.329754
    15  C   -0.565166
    16  N   -0.219973
    17  H    0.284696
    18  H    0.296362
    19  H    0.368412
    20  H    0.160974
    21  H    0.262142
    22  H    0.160662
    23  H    0.195378
    24  H    0.313752
    25  H    0.180064
    26  H    0.205375
    27  H    0.281245
    28  H    0.235062
    29  H    0.341302
    30  H    0.337833
    31  H    0.346833
 Sum of Mulliken charges =   1.00000

 Dipole moment (field-independent basis, Debye):
    X=             19.9620    Y=              4.1287    Z=             -4.0562  Tot=             20.7842
 Quadrupole moment (field-independent basis, Debye-Ang):
   XX=             42.0273   YY=            -97.7282   ZZ=            -98.5473
   XY=             -0.4084   XZ=              3.0656   YZ=            -11.4958

  Exact polarizability: 187.475   0.357 110.507 -13.149   6.649 128.493
 Approx polarizability: 224.509  -0.040 166.915 -13.598   7.804 218.948

                      1                      2                      3
                      A                      A                      A
 Frequencies --     26.1238                33.9062                44.0728
 Red. masses --      4.0503                 4.3597                 2.3263
 Frc consts  --      0.0016                 0.0030                 0.0027
 IR Inten    --      7.7312                 5.4297                 4.1390

                      4                      5                      6
                      A                      A                      A
 Frequencies --     47.3837                64.3451                80.7058
 Red. masses --      3.1637                 6.7497                 5.2515
 Frc consts  --      0.0042                 0.0165                 0.0202
 IR Inten    --      7.0490                13.9767                 8.0661

                      7                      8                      9
                      A                      A                      A
 Frequencies --     90.3929               114.5221               122.0049
 Red. masses --      5.5993                 4.9620                 4.6499
 Frc consts  --      0.0270                 0.0383                 0.0408
 IR Inten    --      4.6294                 6.2916                 8.4992

                     10                     11                     12
                      A                      A                      A
 Frequencies --    191.4899               220.4902               239.8913
 Red. masses --      5.2008                 1.6235                 1.9141
 Frc consts  --      0.1124                 0.0465                 0.0649
 IR Inten    --      5.2817                15.6373                13.8868

                     13                     14                     15
                      A                      A                      A
 Frequencies --    265.1693               316.3262               326.1891
 Red. masses --      5.3781                 2.3390                 7.1963
 Frc consts  --      0.2228                 0.1379                 0.4511
 IR Inten    --      9.8945                 5.5076                 2.0115

                     16                     17                     18
                      A                      A                      A
 Frequencies --    346.4302               375.5491               401.1793
 Red. masses --      5.2567                 3.6390                 4.3572
 Frc consts  --      0.3717                 0.3024                 0.4132
 IR Inten    --     13.5673                12.4282                15.6387

                     19                     20                     21
                      A                      A                      A
 Frequencies --    540.7139               543.9474               583.4293
 Red. masses --      1.4389                 3.6597                 2.1338
 Frc consts  --      0.2479                 0.6380                 0.4279
 IR Inten    --     80.6180                12.6970                53.1298

                     22                     23                     24
                      A                      A                      A
 Frequencies --    610.3415               642.5966               660.0621
 Red. masses --      2.0257                 1.9443                 2.9761
 Frc consts  --      0.4446                 0.4730                 0.7640
 IR Inten    --     43.9751                 7.1048                22.7948

                     25                     26                     27
                      A                      A                      A
 Frequencies --    665.5845               676.3160               716.8119
 Red. masses --      1.4382                 2.7340                 3.9588
 Frc consts  --      0.3754                 0.7368                 1.1985
 IR Inten    --     36.7712                20.2745                 4.9642

                     28                     29                     30
                      A                      A                      A
 Frequencies --    739.5741               757.4406               794.2113
 Red. masses --      3.5261                 3.4305                 1.3950
 Frc consts  --      1.1363                 1.1596                 0.5184
 IR Inten    --      0.5281                 0.3121                11.5834

                     31                     32                     33
                      A                      A                      A
 Frequencies --    817.5750               837.9580               856.8221
 Red. masses --      2.7712                 1.3955                 1.4005
 Frc consts  --      1.0914                 0.5773                 0.6058
 IR Inten    --      1.6179                26.8542                24.5225

                     34                     35                     36
                      A                      A                      A
 Frequencies --    883.3756               918.1295               933.0307
 Red. masses --      2.7259                 1.2870                 3.9967
 Frc consts  --      1.2533                 0.6392                 2.0499
 IR Inten    --     32.3122                 4.4782                36.6841

                     37                     38                     39
                      A                      A                      A
 Frequencies --    933.9489               981.1595              1012.7941
 Red. masses --      4.8626                 2.1546                 3.2143
 Frc consts  --      2.4990                 1.2220                 1.9426
 IR Inten    --      9.2321                32.8971                 8.5328

                     40                     41                     42
                      A                      A                      A
 Frequencies --   1022.6559              1030.4916              1087.1112
 Red. masses --      3.1456                 4.2124                 1.8342
 Frc consts  --      1.9383                 2.6355                 1.2771
 IR Inten    --     11.9651                 2.7360                16.1152

                     43                     44                     45
                      A                      A                      A
 Frequencies --   1105.9490              1114.0389              1145.9750
 Red. masses --      1.6964                 2.1589                 2.5125
 Frc consts  --      1.2225                 1.5787                 1.9441
 IR Inten    --     17.9273                37.4311                 7.8988

                     46                     47                     48
                      A                      A                      A
 Frequencies --   1148.8413              1174.1181              1218.5505
 Red. masses --      2.1606                 1.3950                 2.1066
 Frc consts  --      1.6801                 1.1331                 1.8430
 IR Inten    --     12.7905                 1.9440                11.0758

                     49                     50                     51
                      A                      A                      A
 Frequencies --   1234.7289              1250.8929              1278.1891
 Red. masses --      1.5701                 1.9157                 1.4385
 Frc consts  --      1.4103                 1.7661                 1.3847
 IR Inten    --     15.3295                16.9643                 0.7284

                     52                     53                     54
                      A                      A                      A
 Frequencies --   1288.4093              1309.5658              1326.3586
 Red. masses --      1.2944                 1.3487                 1.3915
 Frc consts  --      1.2660                 1.3628                 1.4423
 IR Inten    --      1.5645                25.0319                56.9458

                     55                     56                     57
                      A                      A                      A
 Frequencies --   1328.1415              1354.0204              1361.3464
 Red. masses --      1.3898                 1.3375                 1.4494
 Frc consts  --      1.4444                 1.4447                 1.5826
 IR Inten    --     23.0633                28.9366               109.9599

                     58                     59                     60
                      A                      A                      A
 Frequencies --   1394.9779              1406.9490              1412.1430
 Red. masses --      2.5188                 1.3368                 2.0388
 Frc consts  --      2.8879                 1.5590                 2.3954
 IR Inten    --    111.3587                23.1819               125.3396

                     61                     62                     63
                      A                      A                      A
 Frequencies --   1429.0273              1478.2001              1481.1154
 Red. masses --      3.0765                 1.1112                 1.7478
 Frc consts  --      3.7016                 1.4306                 2.2591
 IR Inten    --     22.0011                 1.8289                19.9451

                     64                     65                     66
                      A                      A                      A
 Frequencies --   1492.9644              1506.4805              1516.5278
 Red. masses --      1.7494                 1.0734                 1.1869
 Frc consts  --      2.2974                 1.4353                 1.6083
 IR Inten    --     17.8298                16.0077               221.7010

                     67                     68                     69
                      A                      A                      A
 Frequencies --   1534.9633              1592.7734              1664.1934
 Red. masses --      2.2390                 3.9618                 1.0421
 Frc consts  --      3.1082                 5.9218                 1.7004
 IR Inten    --    297.7285                10.4333                47.2672

                     70                     71                     72
                      A                      A                      A
 Frequencies --   1667.9343              1742.1537              1814.4730
 Red. masses --      1.0437                 9.8467                 9.3688
 Frc consts  --      1.7107                17.6081                18.1733
 IR Inten    --     39.0403               317.3153               328.5083

                     73                     74                     75
                      A                      A                      A
 Frequencies --   3024.5445              3038.5586              3057.3774
 Red. masses --      1.0630                 1.0605                 1.0834
 Frc consts  --      5.7291                 5.7690                 5.9668
 IR Inten    --      3.9715                 9.0184                10.3684

                     76                     77                     78
                      A                      A                      A
 Frequencies --   3080.3073              3081.1697              3094.1366
 Red. masses --      1.1008                 1.1040                 1.0596
 Frc consts  --      6.1539                 6.1753                 5.9770
 IR Inten    --      4.8591                 3.7689                 4.5242

                     79                     80                     81
                      A                      A                      A
 Frequencies --   3154.2666              3227.9616              3249.5545
 Red. masses --      1.1118                 1.0965                 1.0987
 Frc consts  --      6.5172                 6.7313                 6.8356
 IR Inten    --      2.6129                 4.4153                 1.9532

                     82                     83                     84
                      A                      A                      A
 Frequencies --   3397.6529              3475.4255              3476.8889
 Red. masses --      1.0300                 1.0931                 1.0934
 Frc consts  --      7.0059                 7.7794                 7.7877
 IR Inten    --     54.9861                91.1343                88.9244

                     85                     86                     87
                      A                      A                      A
 Frequencies --   3526.9122              3603.6139              3635.5936
 Red. masses --      1.0780                 1.0674                 1.0817
 Frc consts  --      7.9005                 8.1670                 8.4240
 IR Inten    --    129.8756               392.1040                69.6234

 - Thermochemistry -
 -------------------
 Temperature   298.150 Kelvin.  Pressure   1.00000 Atm.
 Atom     1 has atomic number  8 and mass  15.99491

 Molecular mass:   227.11442 amu.
 Principal axes and moments of inertia in atomic units:
                           1         2         3
     Eigenvalues --  1654.223638182.298729205.42449
           X            0.99365   0.05374   0.09883
           Y            0.01718   0.79573  -0.60540
           Z           -0.11117   0.60326   0.78976
 This molecule is an asymmetric top.
 Rotational symmetry number  1.
 Warning -- assumption of classical behavior for rotation
           may cause significant error
 Rotational temperatures (Kelvin)      0.05236     0.01059     0.00941
 Rotational constants (GHZ):           1.09099     0.22057     0.19605
 Zero-point vibrational energy     678583.0 (Joules/Mol)
                                  162.18523 (Kcal/Mol)
 Warning -- explicit consideration of  22 degrees of freedom as
           vibrations may cause significant error
 Vibrational temperatures:     37.59    48.78    63.41    68.17    92.58
          (Kelvin)            116.12   130.06   164.77   175.54   275.51
                              317.24   345.15   381.52   455.12   469.31
                              498.44   540.33   577.21   777.97   782.62
                              839.42   878.14   924.55   949.68   957.63
                              973.07  1031.33  1064.08  1089.79  1142.69
                             1176.31  1205.63  1232.77  1270.98  1320.98
                             1342.42  1343.74  1411.67  1457.18  1471.37
                             1482.65  1564.11  1591.21  1602.85  1648.80
                             1652.92  1689.29  1753.22  1776.50  1799.75
                             1839.03  1853.73  1884.17  1908.33  1910.90
                             1948.13  1958.67  2007.06  2024.28  2031.76
                             2056.05  2126.80  2130.99  2148.04  2167.49
                             2181.94  2208.47  2291.64  2394.40  2399.78
                             2506.57  2610.62  4351.64  4371.80  4398.88
                             4431.87  4433.11  4451.77  4538.28  4644.31
                             4675.38  4888.46  5000.36  5002.46  5074.43
                             5184.79  5230.80

 Zero-point correction=                           0.258459 (Hartree/Particle)
 Thermal correction to Energy=                    0.274806
 Thermal correction to Enthalpy=                  0.275750
 Thermal correction to Gibbs Free Energy=         0.211509
 Sum of electronic and zero-point Energies=           -796.428378
 Sum of electronic and thermal Energies=              -796.412031
 Sum of electronic and thermal Enthalpies=            -796.411087
 Sum of electronic and thermal Free Energies=         -796.475328

                     E (Thermal)             CV                S
                      KCal/Mol        Cal/Mol-Kelvin    Cal/Mol-Kelvin
 Total                  172.443             58.866            135.207
 Electronic               0.000              0.000              0.000
 Translational            0.889              2.981             42.163
 Rotational               0.889              2.981             33.188
 Vibrational            170.666             52.904             59.856
 Vibration     1          0.593              1.985              6.104
 Vibration     2          0.594              1.983              5.587
 Vibration     3          0.595              1.980              5.067
 Vibration     4          0.595              1.979              4.924
 Vibration     5          0.597              1.971              4.319
 Vibration     6          0.600              1.962              3.874
 Vibration     7          0.602              1.956              3.652
 Vibration     8          0.607              1.937              3.191
 Vibration     9          0.610              1.931              3.068
 Vibration    10          0.634              1.852              2.213
 Vibration    11          0.647              1.810              1.955
 Vibration    12          0.657              1.779              1.804
 Vibration    13          0.671              1.737              1.627
 Vibration    14          0.703              1.642              1.329
 Vibration    15          0.710              1.623              1.279
 Vibration    16          0.724              1.583              1.182
 Vibration    17          0.746              1.522              1.057
 Vibration    18          0.767              1.468              0.958
 Vibration    19          0.896              1.160              0.564
 Vibration    20          0.899              1.153              0.557
 Vibration    21          0.940              1.067              0.479
 Vibration    22          0.969              1.010              0.432

 Optimization completed.
    -- Stationary point found.
 Normal termination of Gaussian 09 at Thu Jul 29 02:35:37 2021.
