 Gaussian 09, Revision D.01,
 Gaussian 09:  ES64L-G09RevD.01 24-Apr-2013

 ----------------------------------------------------------------------
 # B3LYP/6-311++G(d,p) opt=calcfc freq=noraman nosymm integral(ultrafin
 egrid)
 ----------------------------------------------------------------------

 ------------------------------------------------------------
 Candidate Structure: Conf:719 OPT and FREQ calc in gas phase
 ------------------------------------------------------------
 Symbolic Z-matrix:
 Charge =  1 Multiplicity = 1

 SCF Done:  E(RB3LYP) =  -796.679542082     A.U. after   17 cycles
 SCF Done:  E(RB3LYP) =  -796.687974713     A.U. after   13 cycles
 SCF Done:  E(RB3LYP) =  -796.689334291     A.U. after   15 cycles
 SCF Done:  E(RB3LYP) =  -796.690241461     A.U. after   12 cycles
 SCF Done:  E(RB3LYP) =  -796.690396693     A.U. after   12 cycles
 SCF Done:  E(RB3LYP) =  -796.690454286     A.U. after   11 cycles
 SCF Done:  E(RB3LYP) =  -796.690468365     A.U. after   11 cycles
 SCF Done:  E(RB3LYP) =  -796.690478053     A.U. after   11 cycles
 SCF Done:  E(RB3LYP) =  -796.690481894     A.U. after   11 cycles
 SCF Done:  E(RB3LYP) =  -796.690482703     A.U. after   10 cycles
 SCF Done:  E(RB3LYP) =  -796.690482906     A.U. after   10 cycles
 SCF Done:  E(RB3LYP) =  -796.690482922     A.U. after    8 cycles
 Optimization completed.
    -- Stationary point found.
 Normal termination of Gaussian 09 at Thu Jul 29 00:39:36 2021.

 ----------------------------------------------------------------------
 #N Geom=AllCheck Guess=TCheck SCRF=Check GenChk RB3LYP/6-311++G(d,p) F
 req
 ----------------------------------------------------------------------

 Structure from the checkpoint file:  "conf-719.chk"
 ------------------------------------------------------------
 Candidate Structure: Conf:719 OPT and FREQ calc in gas phase
 ------------------------------------------------------------
 Charge =  1 Multiplicity = 1

                          Input orientation:
 ---------------------------------------------------------------------
 Center     Atomic      Atomic             Coordinates (Angstroms)
 Number     Number       Type             X           Y           Z
 ---------------------------------------------------------------------
      1          8           0       -0.953236    0.148052    1.333640
      2          6           0       -1.363029    0.221741    0.186054
      3          7           0       -0.579695    0.297514   -0.906019
      4          6           0        0.878658    0.357949   -0.822135
      5          6           0        1.341053    0.925463   -2.158664
      6          8           0        2.672364    1.098920   -2.217132
      7          8           0        0.600156    1.176007   -3.077376
      8          6           0        1.519960   -1.035388   -0.498678
      9          6           0        2.759501   -0.997827    0.332677
     10          6           0        2.962347   -1.379824    1.637757
     11          7           0        4.273452   -1.202778    2.005153
     12          6           0        4.870643   -0.716748    0.942695
     13          7           0        4.003465   -0.577166   -0.103842
     14          6           0       -2.884240    0.187594   -0.090312
     15          6           0       -3.593293    0.759279    1.129286
     16          7           0       -5.074026    0.387836    1.139810
     17          1           0       -0.971566    0.461126   -1.826359
     18          1           0        1.159558    1.052796   -0.025589
     19          1           0        2.888238    1.460571   -3.092406
     20          1           0        0.776439   -1.588864    0.075393
     21          1           0        1.672553   -1.589062   -1.431872
     22          1           0        2.231885   -1.777838    2.325991
     23          1           0        5.914144   -0.450408    0.868360
     24          1           0        4.205529   -0.171184   -1.004027
     25          1           0       -3.154401   -0.865669   -0.235594
     26          1           0       -3.142720    0.728832   -1.004384
     27          1           0       -3.551725    1.847752    1.165871
     28          1           0       -3.156056    0.357629    2.042902
     29          1           0       -5.198054   -0.629334    1.158173
     30          1           0       -5.544614    0.770528    1.965866
     31          1           0       -5.563071    0.742557    0.312471
 ---------------------------------------------------------------------

 SCF Done:  E(RB3LYP) =  -796.690482921     A.U. after    1 cycles

 Alpha  occ. eigenvalues --  -19.29915 -19.24438 -19.23008 -14.64162 -14.47617
 Alpha  occ. eigenvalues --  -14.44064 -14.36106 -10.43560 -10.42092 -10.41780
 Alpha  occ. eigenvalues --  -10.36027 -10.35216 -10.29493 -10.29417 -10.28321
 Alpha  occ. eigenvalues --  -10.25464  -1.24332  -1.20659  -1.18573  -1.15534
 Alpha  occ. eigenvalues --   -1.09016  -1.06779  -0.96895  -0.94662  -0.91189
 Alpha  occ. eigenvalues --   -0.85552  -0.83429  -0.79185  -0.78708  -0.77746
 Alpha  occ. eigenvalues --   -0.75012  -0.71728  -0.69469  -0.68995  -0.66723
 Alpha  occ. eigenvalues --   -0.65691  -0.64714  -0.63103  -0.61701  -0.60194
 Alpha  occ. eigenvalues --   -0.59935  -0.58490  -0.57967  -0.56027  -0.55019
 Alpha  occ. eigenvalues --   -0.54158  -0.53607  -0.52021  -0.50759  -0.49682
 Alpha  occ. eigenvalues --   -0.48733  -0.48520  -0.47976  -0.45590  -0.41587
 Alpha  occ. eigenvalues --   -0.40374  -0.40091  -0.35707  -0.34042  -0.30485
 Alpha virt. eigenvalues --   -0.20202  -0.14751  -0.14283  -0.13634  -0.12698
 Alpha virt. eigenvalues --   -0.12155  -0.10851  -0.09998  -0.09401  -0.08379
 Alpha virt. eigenvalues --   -0.07885  -0.07434  -0.06707  -0.05968  -0.05907

 Mulliken charges:
               1
     1  O   -0.270564
     2  C   -0.169708
     3  N    0.050824
     4  C   -0.369635
     5  C    0.112762
     6  O   -0.184551
     7  O   -0.251938
     8  C   -0.312405
     9  C    0.169527
    10  C   -0.382072
    11  N   -0.130035
    12  C    0.063629
    13  N   -0.142245
    14  C   -0.319045
    15  C   -0.573855
    16  N   -0.221328
    17  H    0.289816
    18  H    0.311012
    19  H    0.325748
    20  H    0.238053
    21  H    0.206634
    22  H    0.140174
    23  H    0.176725
    24  H    0.323845
    25  H    0.200646
    26  H    0.175876
    27  H    0.235226
    28  H    0.280549
    29  H    0.339137
    30  H    0.346115
    31  H    0.341082
 Sum of Mulliken charges =   1.00000

 Dipole moment (field-independent basis, Debye):
    X=            -19.6766    Y=              3.1484    Z=             -1.5941  Tot=             19.9906
 Quadrupole moment (field-independent basis, Debye-Ang):
   XX=             28.9374   YY=            -89.9757   ZZ=            -91.9417
   XY=              0.2567   XZ=            -44.4710   YZ=              3.4247

  Exact polarizability: 182.025  -2.498 101.676   2.766 -14.596 143.981
 Approx polarizability: 225.824   5.684 153.322  11.674 -20.072 230.848

                      1                      2                      3
                      A                      A                      A
 Frequencies --     29.2538                32.0794                39.8660
 Red. masses --      4.9029                 3.5295                 3.9123
 Frc consts  --      0.0025                 0.0021                 0.0037
 IR Inten    --      5.9613                 8.1129                12.1016

                      4                      5                      6
                      A                      A                      A
 Frequencies --     43.7495                64.5819                72.5472
 Red. masses --      2.3287                 6.1603                 7.8768
 Frc consts  --      0.0026                 0.0151                 0.0244
 IR Inten    --      5.2254                 1.7986                11.5717

                      7                      8                      9
                      A                      A                      A
 Frequencies --     91.1911               114.7816               123.9642
 Red. masses --      3.7288                 4.6748                 4.9263
 Frc consts  --      0.0183                 0.0363                 0.0446
 IR Inten    --      2.5117                 8.2647                 4.5636

                     10                     11                     12
                      A                      A                      A
 Frequencies --    185.3403               216.2083               238.2288
 Red. masses --      4.8759                 1.9452                 1.6351
 Frc consts  --      0.0987                 0.0536                 0.0547
 IR Inten    --      2.5107                 9.8644                 2.5510

                     13                     14                     15
                      A                      A                      A
 Frequencies --    267.6243               302.9532               329.2643
 Red. masses --      5.0475                 2.9780                 3.4423
 Frc consts  --      0.2130                 0.1610                 0.2199
 IR Inten    --     19.1269                 2.8435                 3.2836

                     16                     17                     18
                      A                      A                      A
 Frequencies --    344.9337               374.9888               386.4138
 Red. masses --      6.0182                 3.7730                 3.9314
 Frc consts  --      0.4219                 0.3126                 0.3459
 IR Inten    --      9.6489                 3.0625                16.1145

                     19                     20                     21
                      A                      A                      A
 Frequencies --    533.0838               541.7572               557.8679
 Red. masses --      2.5796                 1.5206                 1.9387
 Frc consts  --      0.4319                 0.2629                 0.3555
 IR Inten    --     47.6798                82.3855                12.0847

                     22                     23                     24
                      A                      A                      A
 Frequencies --    596.1245               638.0330               644.4357
 Red. masses --      1.7235                 2.7992                 1.8898
 Frc consts  --      0.3609                 0.6714                 0.4624
 IR Inten    --     42.3054                45.6429                15.2578

                     25                     26                     27
                      A                      A                      A
 Frequencies --    661.6997               675.9442               711.6331
 Red. masses --      2.0873                 2.7029                 3.7717
 Frc consts  --      0.5385                 0.7276                 1.1254
 IR Inten    --     90.5621                 2.1494                 2.6549

                     28                     29                     30
                      A                      A                      A
 Frequencies --    736.5217               767.3200               797.2247
 Red. masses --      3.2567                 3.2482                 1.4610
 Frc consts  --      1.0409                 1.1268                 0.5471
 IR Inten    --     25.4763                 8.1267                11.6518

                     31                     32                     33
                      A                      A                      A
 Frequencies --    818.2837               825.1581               855.9189
 Red. masses --      2.5938                 1.3988                 1.4199
 Frc consts  --      1.0233                 0.5612                 0.6129
 IR Inten    --     12.5560                21.5733                16.6441

                     34                     35                     36
                      A                      A                      A
 Frequencies --    883.6698               918.3014               922.8598
 Red. masses --      2.6548                 1.3054                 3.5507
 Frc consts  --      1.2214                 0.6486                 1.7817
 IR Inten    --     30.2540                 4.4323                22.0498

                     37                     38                     39
                      A                      A                      A
 Frequencies --    933.1439               978.6851              1000.5994
 Red. masses --      5.6870                 2.2253                 4.6609
 Frc consts  --      2.9176                 1.2558                 2.7494
 IR Inten    --      9.7363                16.9988                 3.1534

                     40                     41                     42
                      A                      A                      A
 Frequencies --   1008.1186              1026.1539              1078.7734
 Red. masses --      3.1139                 3.6528                 2.3733
 Frc consts  --      1.8646                 2.2662                 1.6273
 IR Inten    --     37.9524                14.6471                42.6726

                     43                     44                     45
                      A                      A                      A
 Frequencies --   1106.8668              1109.6512              1140.3397
 Red. masses --      1.8618                 1.6391                 2.1983
 Frc consts  --      1.3439                 1.1891                 1.6842
 IR Inten    --     29.7941                34.7200                 4.0400

                     46                     47                     48
                      A                      A                      A
 Frequencies --   1149.5083              1187.3953              1190.5420
 Red. masses --      2.0344                 2.0022                 1.5603
 Frc consts  --      1.5838                 1.6632                 1.3030
 IR Inten    --     23.1441                85.6483               107.0820

                     49                     50                     51
                      A                      A                      A
 Frequencies --   1238.5014              1263.3804              1273.9845
 Red. masses --      1.6318                 2.3680                 1.4224
 Frc consts  --      1.4747                 2.2269                 1.3602
 IR Inten    --     24.1216                 8.9582                 5.7824

                     52                     53                     54
                      A                      A                      A
 Frequencies --   1287.2607              1304.9540              1316.9322
 Red. masses --      1.2910                 1.3412                 1.2219
 Frc consts  --      1.2604                 1.3457                 1.2486
 IR Inten    --      1.7459                 4.3464                 4.4549

                     55                     56                     57
                      A                      A                      A
 Frequencies --   1328.5494              1353.7145              1357.6565
 Red. masses --      1.2724                 1.4138                 1.4344
 Frc consts  --      1.3232                 1.5265                 1.5578
 IR Inten    --     11.6771                22.7759                22.3174

                     58                     59                     60
                      A                      A                      A
 Frequencies --   1388.2414              1406.3419              1412.0603
 Red. masses --      3.1913                 1.3383                 2.3633
 Frc consts  --      3.6237                 1.5594                 2.7764
 IR Inten    --     54.9784                25.3012                83.9420

                     61                     62                     63
                      A                      A                      A
 Frequencies --   1428.8610              1474.8564              1478.3091
 Red. masses --      2.7675                 1.1418                 1.1115
 Frc consts  --      3.3291                 1.4633                 1.4311
 IR Inten    --     32.9415                22.6601                 1.5024

                     64                     65                     66
                      A                      A                      A
 Frequencies --   1496.9496              1507.2121              1516.6205
 Red. masses --      3.3537                 1.0728                 1.1795
 Frc consts  --      4.4278                 1.4359                 1.5985
 IR Inten    --     28.0248                16.9645               195.1912

                     67                     68                     69
                      A                      A                      A
 Frequencies --   1540.4835              1601.8915              1664.3497
 Red. masses --      2.1710                 4.3003                 1.0422
 Frc consts  --      3.0355                 6.5014                 1.7009
 IR Inten    --    286.8247                 4.2513                46.7740

                     70                     71                     72
                      A                      A                      A
 Frequencies --   1667.8720              1746.3323              1802.7364
 Red. masses --      1.0435                 9.8456                 9.5465
 Frc consts  --      1.7103                17.6907                18.2792
 IR Inten    --     38.6523               286.6030               318.9575

                     73                     74                     75
                      A                      A                      A
 Frequencies --   3023.0750              3026.8341              3064.0951
 Red. masses --      1.0635                 1.0702                 1.0835
 Frc consts  --      5.7267                 5.7770                 5.9935
 IR Inten    --      4.0510                21.7316                 5.5916

                     76                     77                     78
                      A                      A                      A
 Frequencies --   3080.2655              3092.9627              3107.2738
 Red. masses --      1.1001                 1.0594                 1.0934
 Frc consts  --      6.1500                 5.9712                 6.2201
 IR Inten    --      5.4753                 5.8218                 4.2784

                     79                     80                     81
                      A                      A                      A
 Frequencies --   3152.5555              3234.5766              3244.6662
 Red. masses --      1.1119                 1.0964                 1.0984
 Frc consts  --      6.5110                 6.7588                 6.8132
 IR Inten    --      3.2831                 4.7704                 1.0845

                     82                     83                     84
                      A                      A                      A
 Frequencies --   3397.8272              3475.0527              3477.7663
 Red. masses --      1.0301                 1.0931                 1.0934
 Frc consts  --      7.0067                 7.7775                 7.7917
 IR Inten    --     53.7762                91.8512                88.3606

                     85                     86                     87
                      A                      A                      A
 Frequencies --   3557.2239              3652.7948              3733.7985
 Red. masses --      1.0782                 1.0811                 1.0646
 Frc consts  --      8.0386                 8.4993                 8.7446
 IR Inten    --    111.4915                85.0233               129.1954

 - Thermochemistry -
 -------------------
 Temperature   298.150 Kelvin.  Pressure   1.00000 Atm.
 Atom     1 has atomic number  8 and mass  15.99491

 Molecular mass:   227.11442 amu.
 Principal axes and moments of inertia in atomic units:
                           1         2         3
     Eigenvalues --  2223.290507145.615039058.52871
           X            0.98874  -0.01149   0.14920
           Y           -0.14202  -0.38623   0.91140
           Z           -0.04715   0.92233   0.38351
 This molecule is an asymmetric top.
 Rotational symmetry number  1.
 Warning -- assumption of classical behavior for rotation
           may cause significant error
 Rotational temperatures (Kelvin)      0.03896     0.01212     0.00956
 Rotational constants (GHZ):           0.81174     0.25257     0.19923
 Zero-point vibrational energy     678476.4 (Joules/Mol)
                                  162.15976 (Kcal/Mol)
 Warning -- explicit consideration of  22 degrees of freedom as
           vibrations may cause significant error
 Vibrational temperatures:     42.09    46.16    57.36    62.95    92.92
          (Kelvin)            104.38   131.20   165.14   178.36   266.66
                              311.08   342.76   385.05   435.88   473.74
                              496.28   539.52   555.96   766.99   779.47
                              802.65   857.69   917.99   927.20   952.04
                              972.53  1023.88  1059.69  1104.00  1147.03
                             1177.33  1187.22  1231.47  1271.40  1321.23
                             1327.79  1342.58  1408.11  1439.64  1450.46
                             1476.40  1552.11  1592.53  1596.54  1640.69
                             1653.88  1708.39  1712.92  1781.92  1817.72
                             1832.98  1852.08  1877.54  1894.77  1911.48
                             1947.69  1953.36  1997.37  2023.41  2031.64
                             2055.81  2121.99  2126.95  2153.77  2168.54
                             2182.08  2216.41  2304.76  2394.62  2399.69
                             2512.58  2593.73  4349.53  4354.93  4408.54
                             4431.81  4450.08  4470.67  4535.82  4653.83
                             4668.35  4888.71  4999.82  5003.72  5118.05
                             5255.55  5372.10

 Zero-point correction=                           0.258418 (Hartree/Particle)
 Thermal correction to Energy=                    0.274887
 Thermal correction to Enthalpy=                  0.275831
 Thermal correction to Gibbs Free Energy=         0.211158
 Sum of electronic and zero-point Energies=           -796.432065
 Sum of electronic and thermal Energies=              -796.415596
 Sum of electronic and thermal Enthalpies=            -796.414652
 Sum of electronic and thermal Free Energies=         -796.479325

                     E (Thermal)             CV                S
                      KCal/Mol        Cal/Mol-Kelvin    Cal/Mol-Kelvin
 Total                  172.494             59.183            136.115
 Electronic               0.000              0.000              0.000
 Translational            0.889              2.981             42.163
 Rotational               0.889              2.981             33.331
 Vibrational            170.716             53.221             60.621
 Vibration     1          0.593              1.984              5.879
 Vibration     2          0.594              1.983              5.697
 Vibration     3          0.594              1.981              5.266
 Vibration     4          0.595              1.980              5.082
 Vibration     5          0.597              1.971              4.312
 Vibration     6          0.599              1.967              4.083
 Vibration     7          0.602              1.955              3.634
 Vibration     8          0.608              1.937              3.186
 Vibration     9          0.610              1.929              3.038
 Vibration    10          0.631              1.860              2.274
 Vibration    11          0.645              1.816              1.991
 Vibration    12          0.656              1.782              1.816
 Vibration    13          0.673              1.733              1.612
 Vibration    14          0.694              1.668              1.401
 Vibration    15          0.712              1.617              1.264
 Vibration    16          0.723              1.586              1.189
 Vibration    17          0.746              1.523              1.059
 Vibration    18          0.755              1.499              1.014
 Vibration    19          0.888              1.177              0.580
 Vibration    20          0.897              1.158              0.562
 Vibration    21          0.913              1.123              0.528
 Vibration    22          0.954              1.040              0.456

 Normal termination of Gaussian 09 at Thu Jul 29 01:54:10 2021.
