 Gaussian 09, Revision D.01,
 Gaussian 09:  ES64L-G09RevD.01 24-Apr-2013

 ----------------------------------------------------------------------
 # B3LYP/6-311++G(d,p) opt=calcfc freq=noraman nosymm integral(ultrafin
 egrid)
 ----------------------------------------------------------------------

 ------------------------------------------------------------
 Candidate Structure: Conf:885 OPT and FREQ calc in gas phase
 ------------------------------------------------------------
 Symbolic Z-matrix:
 Charge =  1 Multiplicity = 1

 SCF Done:  E(RB3LYP) =  -796.697013474     A.U. after   15 cycles
 SCF Done:  E(RB3LYP) =  -796.703021330     A.U. after   14 cycles
 SCF Done:  E(RB3LYP) =  -796.704168581     A.U. after   13 cycles
 SCF Done:  E(RB3LYP) =  -796.704902884     A.U. after   13 cycles
 SCF Done:  E(RB3LYP) =  -796.705015435     A.U. after   12 cycles
 SCF Done:  E(RB3LYP) =  -796.704983372     A.U. after   14 cycles
 SCF Done:  E(RB3LYP) =  -796.705042647     A.U. after   12 cycles
 SCF Done:  E(RB3LYP) =  -796.705086265     A.U. after   13 cycles
 SCF Done:  E(RB3LYP) =  -796.705183713     A.U. after   14 cycles
 SCF Done:  E(RB3LYP) =  -796.703163778     A.U. after   15 cycles
 SCF Done:  E(RB3LYP) =  -796.705248817     A.U. after   13 cycles
 SCF Done:  E(RB3LYP) =  -796.705343728     A.U. after   12 cycles
 SCF Done:  E(RB3LYP) =  -796.705348287     A.U. after   14 cycles
 SCF Done:  E(RB3LYP) =  -796.705461656     A.U. after   12 cycles
 SCF Done:  E(RB3LYP) =  -796.705486859     A.U. after   12 cycles
 SCF Done:  E(RB3LYP) =  -796.705489498     A.U. after   11 cycles
 SCF Done:  E(RB3LYP) =  -796.705489965     A.U. after    9 cycles
 SCF Done:  E(RB3LYP) =  -796.705490140     A.U. after   10 cycles
 Optimization completed.
    -- Stationary point found.
 Normal termination of Gaussian 09 at Thu Jul 29 01:35:03 2021.

 ----------------------------------------------------------------------
 #N Geom=AllCheck Guess=TCheck SCRF=Check GenChk RB3LYP/6-311++G(d,p) F
 req
 ----------------------------------------------------------------------

 Structure from the checkpoint file:  "conf-885.chk"
 ------------------------------------------------------------
 Candidate Structure: Conf:885 OPT and FREQ calc in gas phase
 ------------------------------------------------------------
 Charge =  1 Multiplicity = 1

                          Input orientation:
 ---------------------------------------------------------------------
 Center     Atomic      Atomic             Coordinates (Angstroms)
 Number     Number       Type             X           Y           Z
 ---------------------------------------------------------------------
      1          8           0       -1.549374    0.323574   -0.719273
      2          6           0       -1.521703   -0.772488   -0.136543
      3          7           0       -0.413053   -1.298705    0.403502
      4          6           0        0.823712   -0.546346    0.658016
      5          6           0        0.540335    0.495367    1.755450
      6          8           0        1.677814    0.991770    2.244861
      7          8           0       -0.562294    0.798381    2.139771
      8          6           0        1.447536    0.036101   -0.651800
      9          6           0        2.819910    0.600575   -0.519046
     10          6           0        3.269005    1.896370   -0.581076
     11          7           0        4.629699    1.957544   -0.406938
     12          6           0        5.017987    0.716672   -0.242936
     13          7           0        3.962238   -0.152960   -0.297191
     14          6           0       -2.816540   -1.577756   -0.027987
     15          6           0       -3.968551   -0.665637    0.418580
     16          7           0       -4.099348    0.497691   -0.542584
     17          1           0       -0.522270   -2.162665    0.914111
     18          1           0        1.530680   -1.263269    1.081198
     19          1           0        1.469455    1.659816    2.918053
     20          1           0        1.431389   -0.782572   -1.380496
     21          1           0        0.790309    0.811682   -1.040967
     22          1           0        2.681686    2.788140   -0.742081
     23          1           0        6.032975    0.383754   -0.086888
     24          1           0        4.030051   -1.158191   -0.255280
     25          1           0       -3.032660   -2.019589   -1.006712
     26          1           0       -2.739295   -2.399594    0.685779
     27          1           0       -4.916434   -1.200205    0.460143
     28          1           0       -3.759389   -0.233946    1.397631
     29          1           0       -4.592154    0.239041   -1.399268
     30          1           0       -4.581607    1.293971   -0.123700
     31          1           0       -3.080020    0.743554   -0.784333
 ---------------------------------------------------------------------

 SCF Done:  E(RB3LYP) =  -796.705490140     A.U. after    1 cycles

 Alpha  occ. eigenvalues --  -19.29344 -19.26410 -19.24187 -14.58591 -14.50538
 Alpha  occ. eigenvalues --  -14.45670 -14.37339 -10.44805 -10.43491 -10.40834
 Alpha  occ. eigenvalues --  -10.37120 -10.36278 -10.30735 -10.30677 -10.29638
 Alpha  occ. eigenvalues --  -10.26712  -1.24034  -1.21741  -1.15795  -1.15171
 Alpha  occ. eigenvalues --   -1.10357  -1.09413  -0.96537  -0.95937  -0.92256
 Alpha  occ. eigenvalues --   -0.85954  -0.83170  -0.79058  -0.77751  -0.75357
 Alpha  occ. eigenvalues --   -0.74340  -0.72527  -0.70319  -0.68744  -0.67812
 Alpha  occ. eigenvalues --   -0.66440  -0.64507  -0.63179  -0.62607  -0.61089
 Alpha  occ. eigenvalues --   -0.60202  -0.58986  -0.58202  -0.57325  -0.56340
 Alpha  occ. eigenvalues --   -0.54922  -0.54058  -0.53039  -0.52471  -0.51427
 Alpha  occ. eigenvalues --   -0.50083  -0.49471  -0.48962  -0.45299  -0.43717
 Alpha  occ. eigenvalues --   -0.43370  -0.40940  -0.37037  -0.35241  -0.31689
 Alpha virt. eigenvalues --   -0.17054  -0.15716  -0.13637  -0.12842  -0.12272
 Alpha virt. eigenvalues --   -0.11657  -0.09834  -0.09624  -0.09235  -0.07972
 Alpha virt. eigenvalues --   -0.07691  -0.07501  -0.06882  -0.06434  -0.05794

 Mulliken charges:
               1
     1  O   -0.235811
     2  C   -0.156727
     3  N    0.102499
     4  C   -0.385837
     5  C    0.128966
     6  O   -0.099207
     7  O   -0.252853
     8  C   -0.219624
     9  C    0.275512
    10  C   -0.755598
    11  N   -0.115051
    12  C    0.082806
    13  N   -0.145850
    14  C   -0.394533
    15  C   -0.471896
    16  N   -0.335308
    17  H    0.322101
    18  H    0.264116
    19  H    0.321519
    20  H    0.214892
    21  H    0.217393
    22  H    0.145683
    23  H    0.181843
    24  H    0.295910
    25  H    0.252798
    26  H    0.178747
    27  H    0.268811
    28  H    0.253091
    29  H    0.328575
    30  H    0.337130
    31  H    0.395901
 Sum of Mulliken charges =   1.00000

 Dipole moment (field-independent basis, Debye):
    X=            -13.5717    Y=             -5.5533    Z=              0.7520  Tot=             14.6832
 Quadrupole moment (field-independent basis, Debye-Ang):
   XX=            -22.7361   YY=            -82.1395   ZZ=            -87.2264
   XY=            -14.9477   XZ=             11.2936   YZ=              0.4490

  Exact polarizability: 186.506   9.742 129.131   2.842  -1.442 107.780
 Approx polarizability: 237.023   0.573 212.182   8.025  -8.231 160.186

                      1                      2                      3
                      A                      A                      A
 Frequencies --     18.2079                26.2305                42.6516
 Red. masses --      4.9033                 4.6486                 5.5652
 Frc consts  --      0.0010                 0.0019                 0.0060
 IR Inten    --      3.2611                11.8155                 0.3592

                      4                      5                      6
                      A                      A                      A
 Frequencies --     62.5998                70.3590                79.0090
 Red. masses --      5.0504                 4.6565                 4.2041
 Frc consts  --      0.0117                 0.0136                 0.0155
 IR Inten    --      5.3057                 2.9736                 7.3662

                      7                      8                      9
                      A                      A                      A
 Frequencies --    115.6614               142.8436               183.3355
 Red. masses --      5.4775                 5.8749                 3.1710
 Frc consts  --      0.0432                 0.0706                 0.0628
 IR Inten    --      2.6117                 5.1044                 3.9461

                     10                     11                     12
                      A                      A                      A
 Frequencies --    208.4328               275.3125               304.7284
 Red. masses --      3.5614                 4.6033                 4.0451
 Frc consts  --      0.0912                 0.2056                 0.2213
 IR Inten    --      7.0470                13.1669                61.6177

                     13                     14                     15
                      A                      A                      A
 Frequencies --    320.9713               347.5755               364.4573
 Red. masses --      2.1528                 2.9900                 4.1430
 Frc consts  --      0.1307                 0.2128                 0.3242
 IR Inten    --      3.5085                74.4735                29.0061

                     16                     17                     18
                      A                      A                      A
 Frequencies --    375.1152               389.8162               448.3996
 Red. masses --      1.8782                 2.1450                 3.2393
 Frc consts  --      0.1557                 0.1920                 0.3837
 IR Inten    --      4.8114                17.7215                12.6924

                     19                     20                     21
                      A                      A                      A
 Frequencies --    493.7568               520.9708               559.1679
 Red. masses --      1.3790                 2.8349                 1.7464
 Frc consts  --      0.1981                 0.4533                 0.3217
 IR Inten    --     81.9873                64.3125                18.5261

                     22                     23                     24
                      A                      A                      A
 Frequencies --    593.2890               608.3847               654.6053
 Red. masses --      1.7091                 1.4704                 2.6889
 Frc consts  --      0.3545                 0.3207                 0.6789
 IR Inten    --     62.9872                78.7013                38.7673

                     25                     26                     27
                      A                      A                      A
 Frequencies --    672.3801               694.5885               733.7665
 Red. masses --      3.1408                 4.5423                 3.7526
 Frc consts  --      0.8366                 1.2912                 1.1904
 IR Inten    --     10.7990                 8.2402                20.7585

                     28                     29                     30
                      A                      A                      A
 Frequencies --    740.7495               776.9658               786.5286
 Red. masses --      3.5119                 3.3325                 2.8857
 Frc consts  --      1.1354                 1.1853                 1.0518
 IR Inten    --     36.1681                 9.3037                19.4444

                     31                     32                     33
                      A                      A                      A
 Frequencies --    826.5390               841.9674               859.8965
 Red. masses --      1.3992                 2.5566                 1.4270
 Frc consts  --      0.5632                 1.0678                 0.6217
 IR Inten    --     20.9452                25.9145                14.7375

                     34                     35                     36
                      A                      A                      A
 Frequencies --    886.6739               927.0499               930.5096
 Red. masses --      2.5622                 2.3294                 4.0699
 Frc consts  --      1.1868                 1.1795                 2.0763
 IR Inten    --     38.7509                13.4592                11.8692

                     37                     38                     39
                      A                      A                      A
 Frequencies --    954.7071               980.5791               996.6682
 Red. masses --      1.4177                 2.6745                 3.1351
 Frc consts  --      0.7613                 1.5152                 1.8349
 IR Inten    --      3.7091                 2.2526                 5.8387

                     40                     41                     42
                      A                      A                      A
 Frequencies --   1016.9561              1036.8365              1078.1663
 Red. masses --      3.8414                 3.9619                 3.3059
 Frc consts  --      2.3407                 2.5094                 2.2642
 IR Inten    --     11.8003                 1.6972                13.2816

                     43                     44                     45
                      A                      A                      A
 Frequencies --   1103.1341              1125.1397              1135.3000
 Red. masses --      1.6968                 1.3609                 1.5061
 Frc consts  --      1.2165                 1.0151                 1.1437
 IR Inten    --     23.9308               130.1264                 9.4809

                     46                     47                     48
                      A                      A                      A
 Frequencies --   1149.3746              1171.2293              1187.7833
 Red. masses --      2.0204                 2.2117                 1.4607
 Frc consts  --      1.5725                 1.7876                 1.2142
 IR Inten    --     20.7288               168.9268                39.4536

                     49                     50                     51
                      A                      A                      A
 Frequencies --   1259.0113              1262.9526              1276.7704
 Red. masses --      1.5308                 2.2353                 1.3387
 Frc consts  --      1.4296                 2.1007                 1.2858
 IR Inten    --     10.3573                15.1207                 2.2542

                     52                     53                     54
                      A                      A                      A
 Frequencies --   1302.9196              1311.3507              1328.0623
 Red. masses --      1.5272                 1.4330                 1.3269
 Frc consts  --      1.5275                 1.4519                 1.3789
 IR Inten    --     25.9512                11.8818                26.2533

                     55                     56                     57
                      A                      A                      A
 Frequencies --   1332.4589              1351.8178              1385.8187
 Red. masses --      1.2761                 1.5441                 2.6243
 Frc consts  --      1.3348                 1.6625                 2.9694
 IR Inten    --     54.5188                27.7447                11.6851

                     58                     59                     60
                      A                      A                      A
 Frequencies --   1388.0431              1405.6183              1413.5429
 Red. masses --      1.6199                 1.2319                 2.0544
 Frc consts  --      1.8389                 1.4340                 2.4186
 IR Inten    --     59.6233                68.3336                21.5862

                     61                     62                     63
                      A                      A                      A
 Frequencies --   1426.6299              1472.4922              1475.3942
 Red. masses --      2.7609                 1.0920                 1.2587
 Frc consts  --      3.3108                 1.3950                 1.6143
 IR Inten    --     28.9455                33.5423               461.3373

                     64                     65                     66
                      A                      A                      A
 Frequencies --   1490.2576              1499.6183              1509.0343
 Red. masses --      1.4506                 2.0502                 1.0740
 Frc consts  --      1.8981                 2.7165                 1.4409
 IR Inten    --     13.0592                18.4433                50.3121

                     67                     68                     69
                      A                      A                      A
 Frequencies --   1574.1656              1608.0728              1631.4315
 Red. masses --      2.0734                 4.4689                 1.1466
 Frc consts  --      3.0272                 6.8087                 1.7981
 IR Inten    --    147.3124                 4.5937                 3.6377

                     70                     71                     72
                      A                      A                      A
 Frequencies --   1676.6780              1698.9831              1800.2244
 Red. masses --      1.0452                 3.5470                10.3181
 Frc consts  --      1.7312                 6.0325                19.7017
 IR Inten    --     25.1913               137.1990               409.4878

                     73                     74                     75
                      A                      A                      A
 Frequencies --   2628.3337              3024.2784              3045.2202
 Red. masses --      1.0886                 1.0720                 1.0665
 Frc consts  --      4.4306                 5.7769                 5.8271
 IR Inten    --   1102.6418                20.7533                 0.8515

                     76                     77                     78
                      A                      A                      A
 Frequencies --   3079.3756              3088.5160              3107.5302
 Red. masses --      1.0851                 1.0617                 1.0967
 Frc consts  --      6.0622                 5.9672                 6.2395
 IR Inten    --      4.0343                 1.1838                 1.8087

                     79                     80                     81
                      A                      A                      A
 Frequencies --   3132.0446              3145.7695              3231.9601
 Red. masses --      1.0909                 1.1119                 1.0968
 Frc consts  --      6.3053                 6.4827                 6.7501
 IR Inten    --      0.7685                 0.3618                 4.5549

                     82                     83                     84
                      A                      A                      A
 Frequencies --   3245.6686              3457.0038              3520.7307
 Red. masses --      1.0984                 1.0523                 1.0946
 Frc consts  --      6.8176                 7.4094                 7.9944
 IR Inten    --      1.3416                84.8605                75.9000

                     85                     86                     87
                      A                      A                      A
 Frequencies --   3616.7109              3641.5777              3737.9507
 Red. masses --      1.0783                 1.0812                 1.0648
 Frc consts  --      8.3102                 8.4475                 8.7653
 IR Inten    --     51.5231                48.5675               111.4597

 - Thermochemistry -
 -------------------
 Temperature   298.150 Kelvin.  Pressure   1.00000 Atm.
 Atom     1 has atomic number  8 and mass  15.99491

 Molecular mass:   227.11442 amu.
 Principal axes and moments of inertia in atomic units:
                           1         2         3
     Eigenvalues --  1436.714057413.238227691.79193
           X            0.97999  -0.02423  -0.19755
           Y            0.19748   0.24202   0.94996
           Z           -0.02480   0.96997  -0.24197
 This molecule is an asymmetric top.
 Rotational symmetry number  1.
 Warning -- assumption of classical behavior for rotation
           may cause significant error
 Rotational temperatures (Kelvin)      0.06029     0.01168     0.01126
 Rotational constants (GHZ):           1.25616     0.24345     0.23463
 Zero-point vibrational energy     678302.9 (Joules/Mol)
                                  162.11828 (Kcal/Mol)
 Warning -- explicit consideration of  23 degrees of freedom as
           vibrations may cause significant error
 Vibrational temperatures:     26.20    37.74    61.37    90.07   101.23
          (Kelvin)            113.68   166.41   205.52   263.78   299.89
                              396.11   438.44   461.81   500.08   524.37
                              539.71   560.86   645.15   710.40   749.56
                              804.52   853.61   875.33   941.83   967.40
                              999.36  1055.72  1065.77  1117.88  1131.64
                             1189.20  1211.40  1237.20  1275.72  1333.82
                             1338.79  1373.61  1410.83  1433.98  1463.17
                             1491.77  1551.24  1587.16  1618.82  1633.44
                             1653.69  1685.14  1708.95  1811.43  1817.10
                             1836.99  1874.61  1886.74  1910.78  1917.11
                             1944.96  1993.88  1997.08  2022.37  2033.77
                             2052.60  2118.59  2122.76  2144.15  2157.61
                             2171.16  2264.87  2313.66  2347.26  2412.36
                             2444.45  2590.12  3781.58  4351.26  4381.39
                             4430.53  4443.68  4471.04  4506.31  4526.06
                             4650.06  4669.79  4973.85  5065.54  5203.63
                             5239.41  5378.07

 Zero-point correction=                           0.258352 (Hartree/Particle)
 Thermal correction to Energy=                    0.274125
 Thermal correction to Enthalpy=                  0.275069
 Thermal correction to Gibbs Free Energy=         0.212360
 Sum of electronic and zero-point Energies=           -796.447138
 Sum of electronic and thermal Energies=              -796.431365
 Sum of electronic and thermal Enthalpies=            -796.430421
 Sum of electronic and thermal Free Energies=         -796.493130

                     E (Thermal)             CV                S
                      KCal/Mol        Cal/Mol-Kelvin    Cal/Mol-Kelvin
 Total                  172.016             58.258            131.983
 Electronic               0.000              0.000              0.000
 Translational            0.889              2.981             42.163
 Rotational               0.889              2.981             32.771
 Vibrational            170.239             52.297             57.049
 Vibration     1          0.593              1.986              6.821
 Vibration     2          0.593              1.985              6.096
 Vibration     3          0.595              1.980              5.132
 Vibration     4          0.597              1.972              4.374
 Vibration     5          0.598              1.968              4.143
 Vibration     6          0.600              1.963              3.915
 Vibration     7          0.608              1.936              3.172
 Vibration     8          0.616              1.910              2.765
 Vibration     9          0.631              1.863              2.294
 Vibration    10          0.642              1.828              2.057
 Vibration    11          0.677              1.719              1.563
 Vibration    12          0.696              1.665              1.391
 Vibration    13          0.706              1.633              1.305
 Vibration    14          0.725              1.580              1.177
 Vibration    15          0.738              1.545              1.103
 Vibration    16          0.746              1.523              1.059
 Vibration    17          0.758              1.492              1.001
 Vibration    18          0.807              1.364              0.801
 Vibration    19          0.849              1.264              0.674
 Vibration    20          0.876              1.204              0.608
 Vibration    21          0.915              1.120              0.525
 Vibration    22          0.951              1.046              0.461
 Vibration    23          0.967              1.014              0.435

 Normal termination of Gaussian 09 at Thu Jul 29 02:52:57 2021.
