 Gaussian 09, Revision D.01,
 Gaussian 09:  ES64L-G09RevD.01 24-Apr-2013

 ----------------------------------------------------------------------
 # B3LYP/6-311++G(d,p) opt=calcfc freq=noraman nosymm integral(ultrafin
 egrid)
 ----------------------------------------------------------------------

 ------------------------------------------------------------
 Candidate Structure: Conf:301 OPT and FREQ calc in gas phase
 ------------------------------------------------------------
 Symbolic Z-matrix:
 Charge =  1 Multiplicity = 1

 SCF Done:  E(RB3LYP) =  -796.716123572     A.U. after   15 cycles
 SCF Done:  E(RB3LYP) =  -794.486225670     A.U. after   18 cycles
 SCF Done:  E(RB3LYP) =  -796.678162705     A.U. after   15 cycles
 SCF Done:  E(RB3LYP) =  -796.720411134     A.U. after   13 cycles
 SCF Done:  E(RB3LYP) =  -796.724004796     A.U. after   14 cycles
 SCF Done:  E(RB3LYP) =  -796.713309722     A.U. after   14 cycles
 SCF Done:  E(RB3LYP) =  -796.724050003     A.U. after   10 cycles
 SCF Done:  E(RB3LYP) =  -796.726103174     A.U. after   13 cycles
 SCF Done:  E(RB3LYP) =  -796.726718400     A.U. after   13 cycles
 SCF Done:  E(RB3LYP) =  -796.726879622     A.U. after   13 cycles
 SCF Done:  E(RB3LYP) =  -796.726960995     A.U. after   12 cycles
 SCF Done:  E(RB3LYP) =  -796.727017817     A.U. after   12 cycles
 SCF Done:  E(RB3LYP) =  -796.727048181     A.U. after   12 cycles
 SCF Done:  E(RB3LYP) =  -796.727065068     A.U. after   12 cycles
 SCF Done:  E(RB3LYP) =  -796.727070704     A.U. after   11 cycles
 SCF Done:  E(RB3LYP) =  -796.727071729     A.U. after   11 cycles
 SCF Done:  E(RB3LYP) =  -796.727071801     A.U. after    8 cycles
 Optimization completed.
    -- Stationary point found.
 Normal termination of Gaussian 09 at Thu Jul 29 01:55:32 2021.

 ----------------------------------------------------------------------
 #N Geom=AllCheck Guess=TCheck SCRF=Check GenChk RB3LYP/6-311++G(d,p) F
 req
 ----------------------------------------------------------------------

 Structure from the checkpoint file:  "conf-301.chk"
 ------------------------------------------------------------
 Candidate Structure: Conf:301 OPT and FREQ calc in gas phase
 ------------------------------------------------------------
 Charge =  1 Multiplicity = 1

                          Input orientation:
 ---------------------------------------------------------------------
 Center     Atomic      Atomic             Coordinates (Angstroms)
 Number     Number       Type             X           Y           Z
 ---------------------------------------------------------------------
      1          8           0       -0.023914   -0.199194   -1.699492
      2          6           0        0.421502    0.729374   -1.016911
      3          7           0       -0.352522    1.493949   -0.223298
      4          6           0       -1.721098    1.144223    0.117029
      5          6           0       -2.478964    2.434970    0.404502
      6          8           0       -3.802548    2.230800    0.410533
      7          8           0       -1.941314    3.486277    0.639235
      8          6           0       -1.783965    0.214668    1.388632
      9          6           0       -0.878525   -0.963433    1.266012
     10          6           0        0.474365   -1.070886    1.480592
     11          7           0        0.958145   -2.263339    0.985214
     12          6           0       -0.099253   -2.899271    0.512508
     13          7           0       -1.225998   -2.154076    0.658945
     14          6           0        1.922615    1.033011   -0.975378
     15          6           0        2.771829    0.004871   -1.729555
     16          7           0        2.301512   -1.408519   -1.475403
     17          1           0        0.027396    2.313529    0.235440
     18          1           0       -2.172699    0.632720   -0.732958
     19          1           0       -4.247833    3.064031    0.635884
     20          1           0       -1.485565    0.801832    2.260972
     21          1           0       -2.823852   -0.082895    1.542281
     22          1           0        1.121645   -0.359011    1.969657
     23          1           0       -0.104892   -3.887753    0.078954
     24          1           0       -2.155030   -2.429894    0.374445
     25          1           0        2.239755    1.095976    0.068758
     26          1           0        2.114284    2.015585   -1.417680
     27          1           0        2.699913    0.149924   -2.807322
     28          1           0        3.818176    0.078405   -1.436109
     29          1           0        2.870027   -2.091390   -1.977239
     30          1           0        1.316072   -1.422439   -1.809011
     31          1           0        2.240928   -1.692461   -0.473560
 ---------------------------------------------------------------------

 SCF Done:  E(RB3LYP) =  -796.727071801     A.U. after    2 cycles

 Alpha  occ. eigenvalues --  -19.29981 -19.24757 -19.24599 -14.56804 -14.50509
 Alpha  occ. eigenvalues --  -14.48715 -14.43808 -10.43832 -10.43361 -10.39261
 Alpha  occ. eigenvalues --  -10.36833 -10.36340 -10.34768 -10.34317 -10.32750
 Alpha  occ. eigenvalues --  -10.31842  -1.24428  -1.20077  -1.15803  -1.15682
 Alpha  occ. eigenvalues --   -1.14158  -1.08119  -1.01337  -0.95319  -0.93152
 Alpha  occ. eigenvalues --   -0.88653  -0.83060  -0.81034  -0.76205  -0.75388
 Alpha  occ. eigenvalues --   -0.73984  -0.73130  -0.72846  -0.71995  -0.68348
 Alpha  occ. eigenvalues --   -0.66596  -0.64519  -0.63536  -0.62320  -0.61489
 Alpha  occ. eigenvalues --   -0.60712  -0.59541  -0.58917  -0.57576  -0.56544
 Alpha  occ. eigenvalues --   -0.55848  -0.55198  -0.54757  -0.54509  -0.53779
 Alpha  occ. eigenvalues --   -0.53168  -0.51337  -0.50609  -0.45660  -0.43512
 Alpha  occ. eigenvalues --   -0.42521  -0.41957  -0.41495  -0.41087  -0.36674
 Alpha virt. eigenvalues --   -0.14909  -0.14507  -0.14032  -0.12080  -0.11839
 Alpha virt. eigenvalues --   -0.11245  -0.10229  -0.10001  -0.09720  -0.08876
 Alpha virt. eigenvalues --   -0.08240  -0.07781  -0.07389  -0.06662  -0.05924

 Mulliken charges:
               1
     1  O   -0.294988
     2  C   -0.351429
     3  N    0.079527
     4  C   -0.197454
     5  C    0.081690
     6  O   -0.113531
     7  O   -0.209935
     8  C   -0.973602
     9  C    0.694319
    10  C   -0.538180
    11  N   -0.132376
    12  C    0.035386
    13  N   -0.116500
    14  C   -0.110440
    15  C   -0.638774
    16  N   -0.314480
    17  H    0.326711
    18  H    0.304438
    19  H    0.320064
    20  H    0.227464
    21  H    0.211051
    22  H    0.187395
    23  H    0.184543
    24  H    0.332135
    25  H    0.241330
    26  H    0.241661
    27  H    0.253770
    28  H    0.231114
    29  H    0.360068
    30  H    0.347984
    31  H    0.331038
 Sum of Mulliken charges =   1.00000

 Dipole moment (field-independent basis, Debye):
    X=              3.0524    Y=             -2.3410    Z=             -3.3042  Tot=              5.0710
 Quadrupole moment (field-independent basis, Debye-Ang):
   XX=            -49.3313   YY=            -75.1872   ZZ=            -84.8107
   XY=             -5.5158   XZ=            -20.5813   YZ=              8.2003

  Exact polarizability: 151.031 -13.765 149.246 -13.797   9.357 109.459
 Approx polarizability: 220.584  -1.961 221.089  -1.184  28.720 169.682

                      1                      2                      3
                      A                      A                      A
 Frequencies --     56.3179                68.3164                94.9140
 Red. masses --     10.8067                 4.7410                 4.7980
 Frc consts  --      0.0202                 0.0130                 0.0255
 IR Inten    --      1.5911                 0.5222                 5.7115

                      4                      5                      6
                      A                      A                      A
 Frequencies --    104.7248               110.1727               115.2483
 Red. masses --      3.9595                 4.5566                 3.9522
 Frc consts  --      0.0256                 0.0326                 0.0309
 IR Inten    --     10.9189                 2.7287                12.6600

                      7                      8                      9
                      A                      A                      A
 Frequencies --    140.8861               153.6544               164.1711
 Red. masses --      3.9034                 4.0761                 5.3705
 Frc consts  --      0.0456                 0.0567                 0.0853
 IR Inten    --     12.4613                 6.6018                 7.0912

                     10                     11                     12
                      A                      A                      A
 Frequencies --    196.0962               256.8469               305.4516
 Red. masses --      2.4254                 4.4054                 5.6224
 Frc consts  --      0.0550                 0.1712                 0.3091
 IR Inten    --     28.0052                44.7176                 0.7673

                     13                     14                     15
                      A                      A                      A
 Frequencies --    312.3723               341.1534               349.5181
 Red. masses --      3.8836                 2.7532                 2.3859
 Frc consts  --      0.2233                 0.1888                 0.1717
 IR Inten    --      1.7537                 9.9962                26.9485

                     16                     17                     18
                      A                      A                      A
 Frequencies --    382.9420               416.7735               442.0436
 Red. masses --      1.8871                 2.8030                 2.2190
 Frc consts  --      0.1630                 0.2869                 0.2555
 IR Inten    --     18.9046                 6.2848                 2.6588

                     19                     20                     21
                      A                      A                      A
 Frequencies --    534.8961               548.4030               590.8257
 Red. masses --      1.8716                 3.6844                 1.5813
 Frc consts  --      0.3155                 0.6529                 0.3252
 IR Inten    --     58.5755                18.9183               139.3555

                     22                     23                     24
                      A                      A                      A
 Frequencies --    607.4845               617.1898               635.2457
 Red. masses --      1.3432                 1.5536                 4.1605
 Frc consts  --      0.2921                 0.3487                 0.9892
 IR Inten    --     26.2822                 4.4052                74.5986

                     25                     26                     27
                      A                      A                      A
 Frequencies --    673.5656               685.5444               692.0833
 Red. masses --      2.5081                 2.9348                 3.0761
 Frc consts  --      0.6704                 0.8126                 0.8681
 IR Inten    --     79.6421                11.6965                 1.5600

                     28                     29                     30
                      A                      A                      A
 Frequencies --    719.6165               768.5280               833.4113
 Red. masses --      3.4962                 4.3135                 1.4077
 Frc consts  --      1.0667                 1.5011                 0.5761
 IR Inten    --      1.9456                14.0628                12.3678

                     31                     32                     33
                      A                      A                      A
 Frequencies --    842.0033               845.9474               860.4981
 Red. masses --      1.8144                 2.0365                 2.0320
 Frc consts  --      0.7579                 0.8587                 0.8865
 IR Inten    --     27.1386                13.7870                24.7224

                     34                     35                     36
                      A                      A                      A
 Frequencies --    875.7616               917.3401               940.1147
 Red. masses --      2.0990                 2.6552                 5.6490
 Frc consts  --      0.9485                 1.3165                 2.9416
 IR Inten    --      2.8920                13.6761                10.5823

                     37                     38                     39
                      A                      A                      A
 Frequencies --    960.4364               973.1743              1001.8280
 Red. masses --      1.5919                 3.0347                 3.2234
 Frc consts  --      0.8652                 1.6934                 1.9061
 IR Inten    --      9.0361                 5.5265                 8.6774

                     40                     41                     42
                      A                      A                      A
 Frequencies --   1027.3206              1039.9265              1092.5487
 Red. masses --      3.7211                 3.0473                 2.3326
 Frc consts  --      2.3139                 1.9416                 1.6405
 IR Inten    --      2.9157                16.4343                10.1433

                     43                     44                     45
                      A                      A                      A
 Frequencies --   1120.7913              1128.9405              1131.4922
 Red. masses --      1.4483                 1.5937                 1.7927
 Frc consts  --      1.0719                 1.1968                 1.3522
 IR Inten    --     88.0423                18.3664                47.4707

                     46                     47                     48
                      A                      A                      A
 Frequencies --   1142.6301              1167.5409              1204.8415
 Red. masses --      1.7539                 2.0483                 1.7807
 Frc consts  --      1.3491                 1.6450                 1.5230
 IR Inten    --      2.5714               221.9269                 7.4333

                     49                     50                     51
                      A                      A                      A
 Frequencies --   1249.6532              1257.0478              1277.2513
 Red. masses --      1.6796                 1.6113                 1.7154
 Frc consts  --      1.5454                 1.5001                 1.6488
 IR Inten    --      1.9132                30.9521                 1.8565

                     52                     53                     54
                      A                      A                      A
 Frequencies --   1283.3437              1284.0361              1332.3366
 Red. masses --      1.3848                 1.4270                 1.4017
 Frc consts  --      1.3438                 1.3862                 1.4660
 IR Inten    --      4.7811                 9.4042                15.7868

                     55                     56                     57
                      A                      A                      A
 Frequencies --   1341.2951              1351.7115              1382.0761
 Red. masses --      1.3665                 1.2671                 1.6618
 Frc consts  --      1.4485                 1.3640                 1.8702
 IR Inten    --     26.3771                 7.1766                81.4433

                     58                     59                     60
                      A                      A                      A
 Frequencies --   1389.5786              1411.7841              1426.1059
 Red. masses --      3.0285                 2.1319                 1.3229
 Frc consts  --      3.4455                 2.5036                 1.5852
 IR Inten    --      5.8906               119.3128                 5.7038

                     61                     62                     63
                      A                      A                      A
 Frequencies --   1433.4545              1467.6602              1484.8084
 Red. masses --      2.6759                 1.0964                 1.2542
 Frc consts  --      3.2396                 1.3914                 1.6292
 IR Inten    --     23.7858                30.3279                73.8818

                     64                     65                     66
                      A                      A                      A
 Frequencies --   1490.8281              1500.3350              1508.3951
 Red. masses --      1.2707                 2.1936                 1.0956
 Frc consts  --      1.6640                 2.9093                 1.4687
 IR Inten    --     90.6365                63.7129                19.3230

                     67                     68                     69
                      A                      A                      A
 Frequencies --   1558.4257              1606.8790              1636.9140
 Red. masses --      2.1714                 4.0996                 1.1501
 Frc consts  --      3.1072                 6.2368                 1.8157
 IR Inten    --    209.7361                 7.2587               132.5498

                     70                     71                     72
                      A                      A                      A
 Frequencies --   1688.6111              1705.1342              1817.1417
 Red. masses --      1.1814                 2.9917                10.1906
 Frc consts  --      1.9847                 5.1249                19.8256
 IR Inten    --    185.1984                86.2177               296.9250

                     73                     74                     75
                      A                      A                      A
 Frequencies --   3052.1427              3054.9762              3085.4657
 Red. masses --      1.0613                 1.0606                 1.0855
 Frc consts  --      5.8249                 5.8321                 6.0886
 IR Inten    --      1.9475                 5.8860                 7.2059

                     76                     77                     78
                      A                      A                      A
 Frequencies --   3094.0017              3097.9670              3113.7762
 Red. masses --      1.0766                 1.0999                 1.0900
 Frc consts  --      6.0723                 6.2194                 6.2268
 IR Inten    --     14.8222                 1.4207                 3.1837

                     79                     80                     81
                      A                      A                      A
 Frequencies --   3132.1503              3144.7765              3177.2002
 Red. masses --      1.0830                 1.1029                 1.0674
 Frc consts  --      6.2596                 6.4264                 6.3484
 IR Inten    --    371.1849                53.4640               252.2500

                     82                     83                     84
                      A                      A                      A
 Frequencies --   3237.5815              3249.3275              3501.5312
 Red. masses --      1.0967                 1.0992                 1.0790
 Frc consts  --      6.7729                 6.8379                 7.7946
 IR Inten    --      2.3393                 3.5554               108.0543

                     85                     86                     87
                      A                      A                      A
 Frequencies --   3572.8985              3630.1713              3736.3554
 Red. masses --      1.0781                 1.0821                 1.0648
 Frc consts  --      8.1085                 8.4021                 8.7579
 IR Inten    --     91.7383                90.1797               143.6196

 - Thermochemistry -
 -------------------
 Temperature   298.150 Kelvin.  Pressure   1.00000 Atm.
 Atom     1 has atomic number  8 and mass  15.99491

 Molecular mass:   227.11442 amu.
 Principal axes and moments of inertia in atomic units:
                           1         2         3
     Eigenvalues --  2262.954344488.502095957.06703
           X            0.73201   0.47306   0.49029
           Y           -0.65179   0.69576   0.30181
           Z           -0.19835  -0.54049   0.81764
 This molecule is an asymmetric top.
 Rotational symmetry number  1.
 Warning -- assumption of classical behavior for rotation
           may cause significant error
 Rotational temperatures (Kelvin)      0.03827     0.01930     0.01454
 Rotational constants (GHZ):           0.79752     0.40208     0.30296
 Zero-point vibrational energy     681612.2 (Joules/Mol)
                                  162.90923 (Kcal/Mol)
 Warning -- explicit consideration of  23 degrees of freedom as
           vibrations may cause significant error
 Vibrational temperatures:     81.03    98.29   136.56   150.68   158.51
          (Kelvin)            165.82   202.70   221.07   236.21   282.14
                              369.54   439.48   449.43   490.84   502.88
                              550.97   599.64   636.00   769.60   789.03
                              850.07   874.03   888.00   913.98   969.11
                              986.34   995.75  1035.37  1105.74  1199.09
                             1211.45  1217.13  1238.06  1260.02  1319.85
                             1352.61  1381.85  1400.18  1441.41  1478.08
                             1496.22  1571.93  1612.57  1624.29  1627.96
                             1643.99  1679.83  1733.50  1797.97  1808.61
                             1837.68  1846.44  1847.44  1916.93  1929.82
                             1944.81  1988.50  1999.29  2031.24  2051.85
                             2062.42  2111.63  2136.31  2144.97  2158.64
                             2170.24  2242.22  2311.94  2355.15  2429.53
                             2453.30  2614.46  4391.35  4395.42  4439.29
                             4451.57  4457.28  4480.02  4506.46  4524.63
                             4571.28  4658.15  4675.05  5037.92  5140.60
                             5223.00  5375.78

 Zero-point correction=                           0.259612 (Hartree/Particle)
 Thermal correction to Energy=                    0.274835
 Thermal correction to Enthalpy=                  0.275779
 Thermal correction to Gibbs Free Energy=         0.217290
 Sum of electronic and zero-point Energies=           -796.467459
 Sum of electronic and thermal Energies=              -796.452237
 Sum of electronic and thermal Enthalpies=            -796.451293
 Sum of electronic and thermal Free Energies=         -796.509782

                     E (Thermal)             CV                S
                      KCal/Mol        Cal/Mol-Kelvin    Cal/Mol-Kelvin
 Total                  172.461             57.953            123.100
 Electronic               0.000              0.000              0.000
 Translational            0.889              2.981             42.163
 Rotational               0.889              2.981             32.470
 Vibrational            170.684             51.992             48.467
 Vibration     1          0.596              1.975              4.582
 Vibration     2          0.598              1.969              4.201
 Vibration     3          0.603              1.953              3.556
 Vibration     4          0.605              1.945              3.364
 Vibration     5          0.606              1.941              3.266
 Vibration     6          0.608              1.937              3.179
 Vibration     7          0.615              1.912              2.792
 Vibration     8          0.619              1.899              2.626
 Vibration     9          0.623              1.886              2.501
 Vibration    10          0.636              1.845              2.169
 Vibration    11          0.666              1.751              1.683
 Vibration    12          0.696              1.663              1.387
 Vibration    13          0.701              1.650              1.350
 Vibration    14          0.721              1.593              1.207
 Vibration    15          0.727              1.576              1.168
 Vibration    16          0.752              1.507              1.028
 Vibration    17          0.780              1.434              0.903
 Vibration    18          0.802              1.378              0.820
 Vibration    19          0.890              1.173              0.576
 Vibration    20          0.904              1.143              0.547
 Vibration    21          0.948              1.051              0.466
 Vibration    22          0.966              1.016              0.437
 Vibration    23          0.977              0.996              0.421

 Optimization completed.
    -- Stationary point found.
 Normal termination of Gaussian 09 at Thu Jul 29 03:18:25 2021.
