 Gaussian 09, Revision D.01,
 Gaussian 09:  ES64L-G09RevD.01 24-Apr-2013

 ----------------------------------------------------------------------
 # B3LYP/6-311++G(d,p) opt=calcfc freq=noraman nosymm integral(ultrafin
 egrid)
 ----------------------------------------------------------------------

 ------------------------------------------------------------
 Candidate Structure: Conf:715 OPT and FREQ calc in gas phase
 ------------------------------------------------------------
 Symbolic Z-matrix:
 Charge =  1 Multiplicity = 1

 SCF Done:  E(RB3LYP) =  -796.694944063     A.U. after   15 cycles
 SCF Done:  E(RB3LYP) =  -796.703339139     A.U. after   16 cycles
 SCF Done:  E(RB3LYP) =  -796.703788166     A.U. after   15 cycles
 SCF Done:  E(RB3LYP) =  -796.693597969     A.U. after   16 cycles
 SCF Done:  E(RB3LYP) =  -796.703803606     A.U. after   10 cycles
 SCF Done:  E(RB3LYP) =  -796.705328002     A.U. after   13 cycles
 SCF Done:  E(RB3LYP) =  -796.706332759     A.U. after   13 cycles
 SCF Done:  E(RB3LYP) =  -796.706995894     A.U. after   14 cycles
 SCF Done:  E(RB3LYP) =  -796.707218001     A.U. after   12 cycles
 SCF Done:  E(RB3LYP) =  -796.707276615     A.U. after   13 cycles
 SCF Done:  E(RB3LYP) =  -796.707335613     A.U. after   11 cycles
 SCF Done:  E(RB3LYP) =  -796.707387638     A.U. after   12 cycles
 SCF Done:  E(RB3LYP) =  -796.707429955     A.U. after   13 cycles
 SCF Done:  E(RB3LYP) =  -796.707468169     A.U. after   12 cycles
 SCF Done:  E(RB3LYP) =  -796.707482207     A.U. after   12 cycles
 SCF Done:  E(RB3LYP) =  -796.707483186     A.U. after   10 cycles
 SCF Done:  E(RB3LYP) =  -796.707483723     A.U. after   10 cycles
 SCF Done:  E(RB3LYP) =  -796.707483910     A.U. after    9 cycles
 SCF Done:  E(RB3LYP) =  -796.707483988     A.U. after    8 cycles
 Optimization completed.
    -- Stationary point found.
 Normal termination of Gaussian 09 at Thu Jul 29 01:54:36 2021.

 ----------------------------------------------------------------------
 #N Geom=AllCheck Guess=TCheck SCRF=Check GenChk RB3LYP/6-311++G(d,p) F
 req
 ----------------------------------------------------------------------

 Structure from the checkpoint file:  "conf-715.chk"
 ------------------------------------------------------------
 Candidate Structure: Conf:715 OPT and FREQ calc in gas phase
 ------------------------------------------------------------
 Charge =  1 Multiplicity = 1

                          Input orientation:
 ---------------------------------------------------------------------
 Center     Atomic      Atomic             Coordinates (Angstroms)
 Number     Number       Type             X           Y           Z
 ---------------------------------------------------------------------
      1          8           0       -2.162042    1.110615   -0.378258
      2          6           0       -1.505253    0.336598    0.342845
      3          7           0       -0.200822    0.506117    0.570552
      4          6           0        0.593432    1.462292   -0.182761
      5          6           0        0.653214    1.024904   -1.662731
      6          8           0        1.108221    1.954220   -2.526224
      7          8           0        0.364652   -0.075912   -2.038904
      8          6           0        2.016888    1.563561    0.449389
      9          6           0        2.666800    0.243281    0.706404
     10          6           0        2.759079   -0.497355    1.864967
     11          7           0        3.409163   -1.685673    1.639240
     12          6           0        3.717881   -1.677719    0.364436
     13          7           0        3.290780   -0.535680   -0.252525
     14          6           0       -2.201498   -0.849408    1.003332
     15          6           0       -3.147599   -1.538429    0.011588
     16          7           0       -4.135320   -0.527397   -0.535026
     17          1           0        0.323758   -0.219491    1.051165
     18          1           0        0.107939    2.440602   -0.128416
     19          1           0        1.221878    2.820651   -2.113273
     20          1           0        2.641074    2.199280   -0.185528
     21          1           0        1.916398    2.085307    1.403457
     22          1           0        2.426421   -0.216472    2.854239
     23          1           0        4.246086   -2.456296   -0.164848
     24          1           0        3.411390   -0.315193   -1.230362
     25          1           0       -1.487532   -1.590063    1.367670
     26          1           0       -2.756218   -0.483409    1.874488
     27          1           0       -3.697041   -2.356312    0.475369
     28          1           0       -2.594813   -1.923623   -0.845684
     29          1           0       -3.543918    0.359782   -0.670610
     30          1           0       -4.553672   -0.830901   -1.415450
     31          1           0       -4.889169   -0.327864    0.125069
 ---------------------------------------------------------------------

 SCF Done:  E(RB3LYP) =  -796.707483988     A.U. after    1 cycles

 Alpha  occ. eigenvalues --  -19.30022 -19.26498 -19.24135 -14.58584 -14.50009
 Alpha  occ. eigenvalues --  -14.47704 -14.39586 -10.44544 -10.43652 -10.40674
 Alpha  occ. eigenvalues --  -10.37488 -10.36021 -10.32873 -10.32857 -10.32181
 Alpha  occ. eigenvalues --  -10.29338  -1.23957  -1.21665  -1.16005  -1.15666
 Alpha  occ. eigenvalues --   -1.12616  -1.09382  -0.98226  -0.96402  -0.93220
 Alpha  occ. eigenvalues --   -0.86951  -0.83424  -0.79514  -0.77248  -0.75519
 Alpha  occ. eigenvalues --   -0.74963  -0.73673  -0.72305  -0.70469  -0.68829
 Alpha  occ. eigenvalues --   -0.67623  -0.66254  -0.65217  -0.62397  -0.60888
 Alpha  occ. eigenvalues --   -0.59401  -0.58921  -0.57391  -0.57203  -0.56950
 Alpha  occ. eigenvalues --   -0.56431  -0.55405  -0.53877  -0.52754  -0.52297
 Alpha  occ. eigenvalues --   -0.51695  -0.51498  -0.51018  -0.45544  -0.44161
 Alpha  occ. eigenvalues --   -0.43307  -0.40946  -0.39303  -0.37443  -0.34381
 Alpha virt. eigenvalues --   -0.16974  -0.15498  -0.13669  -0.12474  -0.12233
 Alpha virt. eigenvalues --   -0.12030  -0.10740  -0.09209  -0.08877  -0.08622
 Alpha virt. eigenvalues --   -0.08188  -0.07311  -0.06919  -0.06593  -0.06356

 Mulliken charges:
               1
     1  O   -0.287738
     2  C   -0.233694
     3  N    0.060857
     4  C    0.068761
     5  C   -0.182677
     6  O   -0.060288
     7  O   -0.186044
     8  C   -1.281666
     9  C    0.756794
    10  C   -0.509581
    11  N   -0.070010
    12  C    0.100654
    13  N   -0.128251
    14  C   -0.221263
    15  C   -0.510884
    16  N   -0.313523
    17  H    0.300939
    18  H    0.293186
    19  H    0.265775
    20  H    0.210595
    21  H    0.227051
    22  H    0.150484
    23  H    0.185378
    24  H    0.343049
    25  H    0.190505
    26  H    0.254270
    27  H    0.263151
    28  H    0.257450
    29  H    0.391583
    30  H    0.336049
    31  H    0.329090
 Sum of Mulliken charges =   1.00000

 Dipole moment (field-independent basis, Debye):
    X=            -10.9238    Y=              0.6650    Z=             -0.3316  Tot=             10.9490
 Quadrupole moment (field-independent basis, Debye-Ang):
   XX=            -23.1401   YY=            -78.8221   ZZ=            -95.4023
   XY=             22.7558   XZ=             -7.0549   YZ=              3.1116

  Exact polarizability: 153.674  -4.545 135.465   3.933 -10.250 127.626
 Approx polarizability: 193.523 -10.781 214.159   2.102 -13.552 201.784

                      1                      2                      3
                      A                      A                      A
 Frequencies --     24.4450                30.4378                52.0312
 Red. masses --      4.4235                 5.3340                 5.6588
 Frc consts  --      0.0016                 0.0029                 0.0090
 IR Inten    --      3.7013                14.3656                10.9617

                      4                      5                      6
                      A                      A                      A
 Frequencies --     57.7479                66.5622                83.5187
 Red. masses --      4.9087                 4.7052                 4.4921
 Frc consts  --      0.0096                 0.0123                 0.0185
 IR Inten    --     11.3850                 7.9519                 5.9998

                      7                      8                      9
                      A                      A                      A
 Frequencies --    106.6334               129.7373               198.2271
 Red. masses --      7.6812                 4.3021                 4.8235
 Frc consts  --      0.0515                 0.0427                 0.1117
 IR Inten    --      6.0237                 3.9493                 4.4152

                     10                     11                     12
                      A                      A                      A
 Frequencies --    215.6853               239.9797               319.6134
 Red. masses --      2.4039                 4.9549                 3.9956
 Frc consts  --      0.0659                 0.1681                 0.2405
 IR Inten    --     26.7267                14.6614                 7.3474

                     13                     14                     15
                      A                      A                      A
 Frequencies --    327.0003               335.5556               369.2070
 Red. masses --      4.0066                 2.5996                 2.7474
 Frc consts  --      0.2524                 0.1725                 0.2207
 IR Inten    --     10.6213                71.8269                39.9831

                     16                     17                     18
                      A                      A                      A
 Frequencies --    383.4171               446.1775               454.3823
 Red. masses --      1.2726                 3.0091                 1.7822
 Frc consts  --      0.1102                 0.3529                 0.2168
 IR Inten    --      1.1799                42.6372               130.0756

                     19                     20                     21
                      A                      A                      A
 Frequencies --    494.8565               528.5200               550.8880
 Red. masses --      1.7908                 2.6452                 1.5165
 Frc consts  --      0.2584                 0.4353                 0.2711
 IR Inten    --     19.1315                 6.6445                54.3608

                     22                     23                     24
                      A                      A                      A
 Frequencies --    592.4216               633.0159               663.1885
 Red. masses --      3.4180                 3.7716                 1.5322
 Frc consts  --      0.7068                 0.8904                 0.3970
 IR Inten    --      4.7354                 4.9590                58.2914

                     25                     26                     27
                      A                      A                      A
 Frequencies --    676.0749               680.3364               697.0495
 Red. masses --      2.9940                 2.4838                 4.1482
 Frc consts  --      0.8063                 0.6773                 1.1875
 IR Inten    --     35.7468                 5.0223                 1.2303

                     28                     29                     30
                      A                      A                      A
 Frequencies --    737.8679               770.7587               831.6636
 Red. masses --      3.4591                 5.2238                 2.5146
 Frc consts  --      1.1096                 1.8284                 1.0248
 IR Inten    --     16.1248                 3.3502                31.0899

                     31                     32                     33
                      A                      A                      A
 Frequencies --    844.0444               849.1070               862.6296
 Red. masses --      1.3750                 2.5424                 1.6659
 Frc consts  --      0.5771                 1.0800                 0.7304
 IR Inten    --     30.1034                 0.3556                 4.6125

                     34                     35                     36
                      A                      A                      A
 Frequencies --    884.5852               929.7775               939.8035
 Red. masses --      1.9923                 5.1176                 2.7376
 Frc consts  --      0.9185                 2.6066                 1.4246
 IR Inten    --     60.1919                12.7815                 7.3150

                     37                     38                     39
                      A                      A                      A
 Frequencies --    952.1395               958.1913               995.0451
 Red. masses --      1.3867                 2.7263                 3.2095
 Frc consts  --      0.7407                 1.4748                 1.8723
 IR Inten    --      5.6434                 2.4335                 4.9212

                     40                     41                     42
                      A                      A                      A
 Frequencies --   1011.3393              1038.3964              1105.7227
 Red. masses --      3.4679                 2.9404                 2.2241
 Frc consts  --      2.0898                 1.8680                 1.6021
 IR Inten    --     14.8579                 8.6668                16.6983

                     43                     44                     45
                      A                      A                      A
 Frequencies --   1112.3076              1126.4150              1135.5293
 Red. masses --      1.7422                 1.4834                 1.5157
 Frc consts  --      1.2700                 1.1090                 1.1515
 IR Inten    --     16.7282                87.8882                15.8697

                     46                     47                     48
                      A                      A                      A
 Frequencies --   1150.3123              1153.8400              1206.6478
 Red. masses --      1.9599                 1.9811                 1.6226
 Frc consts  --      1.5280                 1.5540                 1.3920
 IR Inten    --     19.2928                11.1605                43.8427

                     49                     50                     51
                      A                      A                      A
 Frequencies --   1236.1911              1261.6620              1266.8795
 Red. masses --      1.4225                 1.7414                 1.8139
 Frc consts  --      1.2808                 1.6332                 1.7153
 IR Inten    --     37.0786               112.4993                14.9982

                     52                     53                     54
                      A                      A                      A
 Frequencies --   1278.1509              1290.2707              1314.6557
 Red. masses --      1.6077                 1.3440                 1.6353
 Frc consts  --      1.5475                 1.3182                 1.6653
 IR Inten    --    222.0862                39.4387                30.6542

                     55                     56                     57
                      A                      A                      A
 Frequencies --   1333.4010              1366.8267              1379.8971
 Red. masses --      1.2659                 1.5013                 1.6911
 Frc consts  --      1.3261                 1.6525                 1.8972
 IR Inten    --     39.2180                11.0799                22.3627

                     58                     59                     60
                      A                      A                      A
 Frequencies --   1390.5735              1402.6230              1411.4014
 Red. masses --      2.5545                 1.3903                 1.4426
 Frc consts  --      2.9104                 1.6115                 1.6931
 IR Inten    --     14.8213                63.8401                34.1788

                     61                     62                     63
                      A                      A                      A
 Frequencies --   1430.2946              1470.1608              1473.6209
 Red. masses --      2.5944                 1.1009                 1.2530
 Frc consts  --      3.1271                 1.4020                 1.6031
 IR Inten    --     28.7459                45.9296               635.6581

                     64                     65                     66
                      A                      A                      A
 Frequencies --   1477.8553              1497.3475              1509.9632
 Red. masses --      1.1697                 3.2122                 1.0737
 Frc consts  --      1.5051                 4.2432                 1.4423
 IR Inten    --     13.4432                24.6383                45.8910

                     67                     68                     69
                      A                      A                      A
 Frequencies --   1570.6651              1598.2008              1631.0911
 Red. masses --      2.3317                 4.0095                 1.1817
 Frc consts  --      3.3892                 6.0340                 1.8523
 IR Inten    --    264.7436                10.3869                11.4548

                     70                     71                     72
                      A                      A                      A
 Frequencies --   1678.8756              1690.6084              1839.6244
 Red. masses --      1.0655                 3.0777                10.5980
 Frc consts  --      1.7694                 5.1828                21.1315
 IR Inten    --     38.2329               211.2036               201.7524

                     73                     74                     75
                      A                      A                      A
 Frequencies --   2646.3119              3042.6956              3047.3483
 Red. masses --      1.0874                 1.0674                 1.0650
 Frc consts  --      4.4865                 5.8223                 5.8270
 IR Inten    --   1006.1134                 0.8436                10.3210

                     76                     77                     78
                      A                      A                      A
 Frequencies --   3064.2763              3088.7592              3095.4628
 Red. masses --      1.0842                 1.0617                 1.1004
 Frc consts  --      5.9983                 5.9678                 6.2124
 IR Inten    --      9.7168                 1.0034                 2.9137

                     79                     80                     81
                      A                      A                      A
 Frequencies --   3107.8196              3145.7721              3222.5967
 Red. masses --      1.0960                 1.1117                 1.0967
 Frc consts  --      6.2368                 6.4815                 6.7106
 IR Inten    --      0.7068                 0.3015                 3.6586

                     82                     83                     84
                      A                      A                      A
 Frequencies --   3248.3742              3456.2163              3506.0202
 Red. masses --      1.0987                 1.0524                 1.0791
 Frc consts  --      6.8306                 7.4066                 7.8151
 IR Inten    --      1.7229                91.9129               231.7173

                     85                     86                     87
                      A                      A                      A
 Frequencies --   3519.5175              3631.2461              3789.2047
 Red. masses --      1.0946                 1.0819                 1.0666
 Frc consts  --      7.9885                 8.4056                 9.0226
 IR Inten    --     75.5080                68.3857                71.0234

 - Thermochemistry -
 -------------------
 Temperature   298.150 Kelvin.  Pressure   1.00000 Atm.
 Atom     1 has atomic number  8 and mass  15.99491

 Molecular mass:   227.11442 amu.
 Principal axes and moments of inertia in atomic units:
                           1         2         3
     Eigenvalues --  2289.431395524.145256620.66837
           X            0.99135  -0.11425  -0.06462
           Y           -0.03344  -0.69591   0.71735
           Z            0.12693   0.70898   0.69371
 This molecule is an asymmetric top.
 Rotational symmetry number  1.
 Warning -- assumption of classical behavior for rotation
           may cause significant error
 Rotational temperatures (Kelvin)      0.03783     0.01568     0.01308
 Rotational constants (GHZ):           0.78829     0.32670     0.27259
 Zero-point vibrational energy     678075.0 (Joules/Mol)
                                  162.06383 (Kcal/Mol)
 Warning -- explicit consideration of  22 degrees of freedom as
           vibrations may cause significant error
 Vibrational temperatures:     35.17    43.79    74.86    83.09    95.77
          (Kelvin)            120.16   153.42   186.66   285.20   310.32
                              345.28   459.85   470.48   482.79   531.21
                              551.65   641.95   653.75   711.99   760.42
                              792.60   852.36   910.77   954.18   972.72
                              978.85  1002.90  1061.63  1108.95  1196.58
                             1214.39  1221.67  1241.13  1272.72  1337.74
                             1352.17  1369.91  1378.62  1431.65  1455.09
                             1494.02  1590.89  1600.36  1620.66  1633.77
                             1655.04  1660.12  1736.09  1778.60  1815.25
                             1822.75  1838.97  1856.41  1891.49  1918.46
                             1966.56  1985.36  2000.72  2018.06  2030.69
                             2057.87  2115.23  2120.21  2126.30  2154.35
                             2172.50  2259.83  2299.45  2346.77  2415.52
                             2432.41  2646.81  3807.45  4377.75  4384.45
                             4408.80  4444.03  4453.68  4471.45  4526.06
                             4636.59  4673.68  4972.72  5044.37  5063.79
                             5224.55  5451.81

 Zero-point correction=                           0.258265 (Hartree/Particle)
 Thermal correction to Energy=                    0.273965
 Thermal correction to Enthalpy=                  0.274909
 Thermal correction to Gibbs Free Energy=         0.212707
 Sum of electronic and zero-point Energies=           -796.449219
 Sum of electronic and thermal Energies=              -796.433519
 Sum of electronic and thermal Enthalpies=            -796.432575
 Sum of electronic and thermal Free Energies=         -796.494777

                     E (Thermal)             CV                S
                      KCal/Mol        Cal/Mol-Kelvin    Cal/Mol-Kelvin
 Total                  171.916             58.085            130.914
 Electronic               0.000              0.000              0.000
 Translational            0.889              2.981             42.163
 Rotational               0.889              2.981             32.793
 Vibrational            170.138             52.124             55.958
 Vibration     1          0.593              1.985              6.236
 Vibration     2          0.594              1.984              5.801
 Vibration     3          0.596              1.977              4.739
 Vibration     4          0.596              1.974              4.533
 Vibration     5          0.598              1.970              4.253
 Vibration     6          0.600              1.961              3.806
 Vibration     7          0.606              1.944              3.329
 Vibration     8          0.612              1.924              2.950
 Vibration     9          0.637              1.842              2.149
 Vibration    10          0.645              1.817              1.995
 Vibration    11          0.657              1.779              1.803
 Vibration    12          0.706              1.636              1.312
 Vibration    13          0.711              1.622              1.275
 Vibration    14          0.717              1.604              1.233
 Vibration    15          0.742              1.536              1.083
 Vibration    16          0.753              1.506              1.026
 Vibration    17          0.805              1.369              0.807
 Vibration    18          0.813              1.351              0.783
 Vibration    19          0.850              1.261              0.671
 Vibration    20          0.883              1.187              0.591
 Vibration    21          0.906              1.138              0.542
 Vibration    22          0.950              1.048              0.463

 Optimization completed.
    -- Stationary point found.
 Normal termination of Gaussian 09 at Thu Jul 29 03:10:41 2021.
