 Gaussian 09, Revision D.01,
 Gaussian 09:  ES64L-G09RevD.01 24-Apr-2013

 ----------------------------------------------------------------------
 # B3LYP/6-311++G(d,p) opt=calcfc freq=noraman nosymm integral(ultrafin
 egrid)
 ----------------------------------------------------------------------

 ------------------------------------------------------------
 Candidate Structure: Conf:862 OPT and FREQ calc in gas phase
 ------------------------------------------------------------
 Symbolic Z-matrix:
 Charge =  1 Multiplicity = 1

 SCF Done:  E(RB3LYP) =  -796.712561411     A.U. after   15 cycles
 SCF Done:  E(RB3LYP) =  -796.678693377     A.U. after   17 cycles
 SCF Done:  E(RB3LYP) =  -796.717876447     A.U. after   13 cycles
 SCF Done:  E(RB3LYP) =  -796.720382972     A.U. after   14 cycles
 SCF Done:  E(RB3LYP) =  -796.712035491     A.U. after   16 cycles
 SCF Done:  E(RB3LYP) =  -796.721130847     A.U. after   12 cycles
 SCF Done:  E(RB3LYP) =  -796.715338923     A.U. after   13 cycles
 SCF Done:  E(RB3LYP) =  -796.721351171     A.U. after   10 cycles
 SCF Done:  E(RB3LYP) =  -796.722562085     A.U. after   14 cycles
 SCF Done:  E(RB3LYP) =  -796.722813210     A.U. after   13 cycles
 SCF Done:  E(RB3LYP) =  -796.722902011     A.U. after   12 cycles
 SCF Done:  E(RB3LYP) =  -796.722948361     A.U. after   12 cycles
 SCF Done:  E(RB3LYP) =  -796.722975136     A.U. after   12 cycles
 SCF Done:  E(RB3LYP) =  -796.722997110     A.U. after   12 cycles
 SCF Done:  E(RB3LYP) =  -796.723008476     A.U. after   12 cycles
 SCF Done:  E(RB3LYP) =  -796.723009541     A.U. after   10 cycles
 SCF Done:  E(RB3LYP) =  -796.723009804     A.U. after    9 cycles
 SCF Done:  E(RB3LYP) =  -796.723009876     A.U. after    9 cycles
 Optimization completed.
    -- Stationary point found.
 Normal termination of Gaussian 09 at Thu Jul 29 02:05:19 2021.

 ----------------------------------------------------------------------
 #N Geom=AllCheck Guess=TCheck SCRF=Check GenChk RB3LYP/6-311++G(d,p) F
 req
 ----------------------------------------------------------------------

 Structure from the checkpoint file:  "conf-862.chk"
 ------------------------------------------------------------
 Candidate Structure: Conf:862 OPT and FREQ calc in gas phase
 ------------------------------------------------------------
 Charge =  1 Multiplicity = 1

                          Input orientation:
 ---------------------------------------------------------------------
 Center     Atomic      Atomic             Coordinates (Angstroms)
 Number     Number       Type             X           Y           Z
 ---------------------------------------------------------------------
      1          8           0       -0.702435    1.819845   -0.136322
      2          6           0        0.354704    1.274763    0.187434
      3          7           0        0.506234    0.568413    1.327721
      4          6           0       -0.616307    0.157872    2.155874
      5          6           0       -0.184135    0.208761    3.615150
      6          8           0       -1.241477    0.211394    4.436043
      7          8           0        0.966784    0.191429    3.970259
      8          6           0       -1.112826   -1.308937    1.814922
      9          6           0       -0.896616   -1.643617    0.373603
     10          6           0       -1.403788   -1.089668   -0.772242
     11          7           0       -0.674025   -1.485980   -1.876413
     12          6           0        0.236785   -2.325588   -1.416117
     13          7           0        0.147568   -2.443317   -0.065563
     14          6           0        1.561291    1.282052   -0.756559
     15          6           0        1.218244    1.806832   -2.154688
     16          7           0       -0.086817    1.239550   -2.665786
     17          1           0        1.425072    0.258591    1.618363
     18          1           0       -1.431738    0.858730    1.983677
     19          1           0       -0.927210    0.197073    5.354988
     20          1           0       -2.166571   -1.380831    2.088699
     21          1           0       -0.576990   -2.028624    2.440352
     22          1           0       -2.226409   -0.397309   -0.854616
     23          1           0        0.958439   -2.867498   -2.007957
     24          1           0        0.703149   -3.060827    0.509661
     25          1           0        1.970354    0.270246   -0.819129
     26          1           0        2.353202    1.915685   -0.345072
     27          1           0        2.003020    1.548979   -2.864770
     28          1           0        1.092131    2.889050   -2.149247
     29          1           0       -0.151625    0.190280   -2.636604
     30          1           0       -0.291424    1.559743   -3.613012
     31          1           0       -0.806480    1.583117   -2.004453
 ---------------------------------------------------------------------

 SCF Done:  E(RB3LYP) =  -796.723009876     A.U. after    1 cycles

 Alpha  occ. eigenvalues --  -19.29828 -19.24533 -19.24433 -14.56654 -14.51143
 Alpha  occ. eigenvalues --  -14.48714 -14.44509 -10.43673 -10.43208 -10.39159
 Alpha  occ. eigenvalues --  -10.36938 -10.36698 -10.34708 -10.34663 -10.32913
 Alpha  occ. eigenvalues --  -10.32115  -1.24269  -1.19931  -1.16225  -1.15616
 Alpha  occ. eigenvalues --   -1.13992  -1.08012  -1.01855  -0.95256  -0.93116
 Alpha  occ. eigenvalues --   -0.88791  -0.83010  -0.81134  -0.76307  -0.75715
 Alpha  occ. eigenvalues --   -0.74155  -0.73403  -0.72540  -0.71866  -0.68492
 Alpha  occ. eigenvalues --   -0.66697  -0.64421  -0.63326  -0.62528  -0.61551
 Alpha  occ. eigenvalues --   -0.60435  -0.59428  -0.59153  -0.58033  -0.56614
 Alpha  occ. eigenvalues --   -0.55840  -0.55349  -0.54689  -0.54592  -0.53868
 Alpha  occ. eigenvalues --   -0.53026  -0.51142  -0.50615  -0.45535  -0.43957
 Alpha  occ. eigenvalues --   -0.42707  -0.42353  -0.41356  -0.41109  -0.36926
 Alpha virt. eigenvalues --   -0.14909  -0.14484  -0.14076  -0.12626  -0.12147
 Alpha virt. eigenvalues --   -0.11015  -0.10356  -0.10135  -0.09402  -0.09249
 Alpha virt. eigenvalues --   -0.08456  -0.07659  -0.06884  -0.06717  -0.06315

 Mulliken charges:
               1
     1  O   -0.313574
     2  C   -0.250059
     3  N    0.120783
     4  C   -0.278245
     5  C    0.112748
     6  O   -0.095054
     7  O   -0.217856
     8  C   -0.923550
     9  C    0.677986
    10  C   -0.625845
    11  N   -0.093774
    12  C   -0.035052
    13  N   -0.114602
    14  C   -0.160835
    15  C   -0.619437
    16  N   -0.322367
    17  H    0.313106
    18  H    0.319341
    19  H    0.314088
    20  H    0.244933
    21  H    0.193896
    22  H    0.205550
    23  H    0.193619
    24  H    0.340026
    25  H    0.231288
    26  H    0.244799
    27  H    0.227780
    28  H    0.260606
    29  H    0.350503
    30  H    0.359755
    31  H    0.339444
 Sum of Mulliken charges =   1.00000

 Dipole moment (field-independent basis, Debye):
    X=              2.5158    Y=              0.2832    Z=             -3.5261  Tot=              4.3408
 Quadrupole moment (field-independent basis, Debye-Ang):
   XX=            -85.8816   YY=            -74.5987   ZZ=            -52.6360
   XY=             -0.0026   XZ=            -12.0251   YZ=            -16.8283

  Exact polarizability: 122.242  -2.473 120.364  -6.980  -6.608 164.330
 Approx polarizability: 207.978 -23.307 176.814   0.895 -13.869 224.012

                      1                      2                      3
                      A                      A                      A
 Frequencies --     39.3360                54.5782                80.4892
 Red. masses --      5.0210                 8.0820                 3.9092
 Frc consts  --      0.0046                 0.0142                 0.0149
 IR Inten    --      3.0540                 1.1906                 1.0717

                      4                      5                      6
                      A                      A                      A
 Frequencies --    106.6992               108.9252               119.4043
 Red. masses --      4.4319                 6.0241                 3.9936
 Frc consts  --      0.0297                 0.0421                 0.0335
 IR Inten    --     13.3512                 3.0606                 5.1386

                      7                      8                      9
                      A                      A                      A
 Frequencies --    136.6609               152.1452               170.9476
 Red. masses --      3.8896                 4.6497                 4.8074
 Frc consts  --      0.0428                 0.0634                 0.0828
 IR Inten    --     24.1766                 6.9656                12.5690

                     10                     11                     12
                      A                      A                      A
 Frequencies --    195.5450               256.3577               304.5596
 Red. masses --      2.3291                 4.3100                 5.7548
 Frc consts  --      0.0525                 0.1669                 0.3145
 IR Inten    --     25.4209                39.4525                 1.0311

                     13                     14                     15
                      A                      A                      A
 Frequencies --    313.0745               329.5393               346.1714
 Red. masses --      2.7684                 3.4966                 3.8805
 Frc consts  --      0.1599                 0.2237                 0.2740
 IR Inten    --      5.7709                 8.3701                31.4375

                     16                     17                     18
                      A                      A                      A
 Frequencies --    402.9276               429.5994               451.8937
 Red. masses --      2.5617                 1.8162                 1.8001
 Frc consts  --      0.2450                 0.1975                 0.2166
 IR Inten    --      7.6116                12.6441                 3.3850

                     19                     20                     21
                      A                      A                      A
 Frequencies --    522.5733               547.9921               593.4767
 Red. masses --      1.7914                 3.7543                 1.7703
 Frc consts  --      0.2882                 0.6643                 0.3674
 IR Inten    --     79.1262                21.0406               103.6508

                     22                     23                     24
                      A                      A                      A
 Frequencies --    618.1911               620.3545               634.9518
 Red. masses --      1.6367                 1.3718                 3.7123
 Frc consts  --      0.3685                 0.3110                 0.8818
 IR Inten    --      3.0149                62.0163                74.4451

                     25                     26                     27
                      A                      A                      A
 Frequencies --    677.3244               686.8798               688.2543
 Red. masses --      2.8075                 2.4757                 3.0292
 Frc consts  --      0.7589                 0.6882                 0.8454
 IR Inten    --     58.7497                 6.0339                 2.0393

                     28                     29                     30
                      A                      A                      A
 Frequencies --    717.0741               768.2767               828.7410
 Red. masses --      3.2100                 4.3225                 1.5158
 Frc consts  --      0.9725                 1.5032                 0.6134
 IR Inten    --      9.0253                20.4990                 7.8735

                     31                     32                     33
                      A                      A                      A
 Frequencies --    839.2284               849.8003               866.1542
 Red. masses --      2.3261                 1.9833                 1.7167
 Frc consts  --      0.9652                 0.8439                 0.7588
 IR Inten    --     14.7388                18.9092                16.7802

                     34                     35                     36
                      A                      A                      A
 Frequencies --    876.8983               924.6543               942.3644
 Red. masses --      1.9985                 2.7412                 5.2693
 Frc consts  --      0.9054                 1.3808                 2.7570
 IR Inten    --      6.6806                12.9685                 9.3039

                     37                     38                     39
                      A                      A                      A
 Frequencies --    955.5600               975.3272               998.0556
 Red. masses --      3.5591                 1.5403                 3.2012
 Frc consts  --      1.9147                 0.8633                 1.8788
 IR Inten    --      0.8846                 3.0537                14.4093

                     40                     41                     42
                      A                      A                      A
 Frequencies --   1028.3247              1038.4991              1097.1948
 Red. masses --      3.5026                 3.1793                 2.5486
 Frc consts  --      2.1822                 2.0202                 1.8076
 IR Inten    --      5.0564                10.3187                22.7017

                     43                     44                     45
                      A                      A                      A
 Frequencies --   1121.2656              1129.7795              1133.0811
 Red. masses --      1.4562                 1.8173                 1.8853
 Frc consts  --      1.0786                 1.3667                 1.4261
 IR Inten    --    100.5916                18.0057                16.2722

                     46                     47                     48
                      A                      A                      A
 Frequencies --   1142.8261              1163.1357              1202.7822
 Red. masses --      1.4489                 1.8904                 1.8725
 Frc consts  --      1.1150                 1.5068                 1.5961
 IR Inten    --     32.8689               160.1377                54.2044

                     49                     50                     51
                      A                      A                      A
 Frequencies --   1246.7406              1252.6966              1277.4938
 Red. masses --      1.7491                 1.8402                 1.4015
 Frc consts  --      1.6018                 1.7014                 1.3476
 IR Inten    --      1.5708                13.5257                 8.5581

                     52                     53                     54
                      A                      A                      A
 Frequencies --   1281.6475              1294.9683              1334.9843
 Red. masses --      1.3151                 1.5379                 1.6928
 Frc consts  --      1.2728                 1.5194                 1.7775
 IR Inten    --     13.8311                 7.4324                 1.9142

                     55                     56                     57
                      A                      A                      A
 Frequencies --   1341.4307              1351.7942              1384.2079
 Red. masses --      1.2716                 1.2619                 1.6621
 Frc consts  --      1.3482                 1.3586                 1.8763
 IR Inten    --     13.6232                 8.3033                78.5208

                     58                     59                     60
                      A                      A                      A
 Frequencies --   1391.6923              1413.2608              1425.4370
 Red. masses --      2.3044                 2.1424                 1.3232
 Frc consts  --      2.6296                 2.5211                 1.5841
 IR Inten    --      2.3571               140.9027                 4.6708

                     61                     62                     63
                      A                      A                      A
 Frequencies --   1435.8580              1466.3359              1485.8988
 Red. masses --      2.6378                 1.0946                 1.3265
 Frc consts  --      3.2042                 1.3867                 1.7256
 IR Inten    --     20.6717                23.8333                20.4690

                     64                     65                     66
                      A                      A                      A
 Frequencies --   1495.2280              1504.5248              1510.3987
 Red. masses --      2.0192                 1.1317                 1.2189
 Frc consts  --      2.6597                 1.5093                 1.6384
 IR Inten    --      4.2266                50.9530               175.7700

                     67                     68                     69
                      A                      A                      A
 Frequencies --   1556.0095              1611.8170              1642.0394
 Red. masses --      2.0692                 4.1303                 1.1238
 Frc consts  --      2.9517                 6.3221                 1.7853
 IR Inten    --    195.3707                15.2500                66.6562

                     70                     71                     72
                      A                      A                      A
 Frequencies --   1697.1326              1711.0922              1814.0440
 Red. masses --      1.2987                 2.5544                10.1809
 Frc consts  --      2.2039                 4.4063                19.7392
 IR Inten    --    241.9126                57.0688               290.6317

                     73                     74                     75
                      A                      A                      A
 Frequencies --   2973.9264              3050.5958              3052.0938
 Red. masses --      1.0796                 1.0610                 1.0652
 Frc consts  --      5.6256                 5.8173                 5.8460
 IR Inten    --    753.3169                 5.2655                 8.8007

                     76                     77                     78
                      A                      A                      A
 Frequencies --   3086.2581              3095.0011              3103.6918
 Red. masses --      1.0927                 1.0696                 1.0982
 Frc consts  --      6.1322                 6.0368                 6.2331
 IR Inten    --      2.7587                 2.7983                 1.7168

                     79                     80                     81
                      A                      A                      A
 Frequencies --   3124.6188              3145.3107              3246.9970
 Red. masses --      1.0874                 1.1104                 1.0684
 Frc consts  --      6.2549                 6.4721                 6.6367
 IR Inten    --      3.2598                 1.8926               173.5798

                     82                     83                     84
                      A                      A                      A
 Frequencies --   3249.0630              3252.8619              3500.4156
 Red. masses --      1.0956                 1.1008                 1.0790
 Frc consts  --      6.8140                 6.8623                 7.7894
 IR Inten    --      4.3036                 8.6921               111.4974

                     85                     86                     87
                      A                      A                      A
 Frequencies --   3584.4272              3624.7985              3735.0531
 Red. masses --      1.0779                 1.0821                 1.0647
 Frc consts  --      8.1594                 8.3766                 8.7515
 IR Inten    --     70.7870                88.0062               138.9560

 - Thermochemistry -
 -------------------
 Temperature   298.150 Kelvin.  Pressure   1.00000 Atm.
 Atom     1 has atomic number  8 and mass  15.99491

 Molecular mass:   227.11442 amu.
 Principal axes and moments of inertia in atomic units:
                           1         2         3
     Eigenvalues --  2250.121294548.892285728.34019
           X           -0.09780   0.30210   0.94825
           Y           -0.03567   0.95114  -0.30670
           Z            0.99457   0.06382   0.08225
 This molecule is an asymmetric top.
 Rotational symmetry number  1.
 Warning -- assumption of classical behavior for rotation
           may cause significant error
 Rotational temperatures (Kelvin)      0.03849     0.01904     0.01512
 Rotational constants (GHZ):           0.80206     0.39674     0.31505
 Zero-point vibrational energy     681510.9 (Joules/Mol)
                                  162.88501 (Kcal/Mol)
 Warning -- explicit consideration of  23 degrees of freedom as
           vibrations may cause significant error
 Vibrational temperatures:     56.60    78.53   115.81   153.52   156.72
          (Kelvin)            171.80   196.62   218.90   245.96   281.35
                              368.84   438.19   450.44   474.13   498.06
                              579.72   618.10   650.17   751.87   788.44
                              853.88   889.44   892.55   913.55   974.52
                              988.27   990.24  1031.71  1105.38  1192.37
                             1207.46  1222.67  1246.20  1261.66  1330.37
                             1355.85  1374.84  1403.28  1435.98  1479.53
                             1494.17  1578.62  1613.25  1625.50  1630.25
                             1644.27  1673.49  1730.53  1793.78  1802.35
                             1838.03  1844.00  1863.17  1920.74  1930.02
                             1944.93  1991.56  2002.33  2033.36  2050.88
                             2065.88  2109.73  2137.87  2151.30  2164.67
                             2173.12  2238.75  2319.04  2362.53  2441.79
                             2461.88  2610.00  4278.81  4389.12  4391.28
                             4440.43  4453.01  4465.51  4495.62  4525.39
                             4671.70  4674.67  4680.14  5036.31  5157.18
                             5215.27  5373.90

 Zero-point correction=                           0.259574 (Hartree/Particle)
 Thermal correction to Energy=                    0.274855
 Thermal correction to Enthalpy=                  0.275799
 Thermal correction to Gibbs Free Energy=         0.216697
 Sum of electronic and zero-point Energies=           -796.463436
 Sum of electronic and thermal Energies=              -796.448155
 Sum of electronic and thermal Enthalpies=            -796.447211
 Sum of electronic and thermal Free Energies=         -796.506313

                     E (Thermal)             CV                S
                      KCal/Mol        Cal/Mol-Kelvin    Cal/Mol-Kelvin
 Total                  172.474             57.885            124.391
 Electronic               0.000              0.000              0.000
 Translational            0.889              2.981             42.163
 Rotational               0.889              2.981             32.439
 Vibrational            170.697             51.923             49.789
 Vibration     1          0.594              1.981              5.292
 Vibration     2          0.596              1.976              4.644
 Vibration     3          0.600              1.962              3.879
 Vibration     4          0.606              1.944              3.328
 Vibration     5          0.606              1.942              3.288
 Vibration     6          0.609              1.933              3.110
 Vibration     7          0.614              1.917              2.850
 Vibration     8          0.619              1.900              2.645
 Vibration     9          0.626              1.878              2.425
 Vibration    10          0.636              1.846              2.175
 Vibration    11          0.666              1.752              1.686
 Vibration    12          0.695              1.665              1.392
 Vibration    13          0.701              1.649              1.346
 Vibration    14          0.712              1.616              1.262
 Vibration    15          0.724              1.583              1.184
 Vibration    16          0.768              1.464              0.952
 Vibration    17          0.791              1.406              0.860
 Vibration    18          0.811              1.357              0.790
 Vibration    19          0.878              1.200              0.604
 Vibration    20          0.903              1.144              0.548
 Vibration    21          0.951              1.046              0.461
 Vibration    22          0.978              0.993              0.419
 Vibration    23          0.980              0.989              0.416

 Optimization completed.
    -- Stationary point found.
 Normal termination of Gaussian 09 at Thu Jul 29 03:28:44 2021.
