 Gaussian 09, Revision D.01,
 Gaussian 09:  ES64L-G09RevD.01 24-Apr-2013

 ----------------------------------------------------------------------
 # B3LYP/6-311++G(d,p) opt=calcfc freq=noraman nosymm integral(ultrafin
 egrid)
 ----------------------------------------------------------------------

 ------------------------------------------------------------
 Candidate Structure: Conf:580 OPT and FREQ calc in gas phase
 ------------------------------------------------------------
 Symbolic Z-matrix:
 Charge =  1 Multiplicity = 1

 SCF Done:  E(RB3LYP) =  -796.683860927     A.U. after   18 cycles
 SCF Done:  E(RB3LYP) =  -796.689551298     A.U. after   15 cycles
 SCF Done:  E(RB3LYP) =  -796.690065465     A.U. after   16 cycles
 SCF Done:  E(RB3LYP) =  -796.670691569     A.U. after   16 cycles
 SCF Done:  E(RB3LYP) =  -796.690074545     A.U. after    9 cycles
 SCF Done:  E(RB3LYP) =  -796.690748989     A.U. after   13 cycles
 SCF Done:  E(RB3LYP) =  -796.690837598     A.U. after   12 cycles
 SCF Done:  E(RB3LYP) =  -796.690896298     A.U. after   12 cycles
 SCF Done:  E(RB3LYP) =  -796.690915850     A.U. after   12 cycles
 SCF Done:  E(RB3LYP) =  -796.690925205     A.U. after   12 cycles
 SCF Done:  E(RB3LYP) =  -796.690925842     A.U. after   11 cycles
 SCF Done:  E(RB3LYP) =  -796.690925985     A.U. after   11 cycles
 SCF Done:  E(RB3LYP) =  -796.690926013     A.U. after   10 cycles
 SCF Done:  E(RB3LYP) =  -796.690926017     A.U. after    8 cycles
 Optimization completed.
    -- Stationary point found.
 Normal termination of Gaussian 09 at Thu Jul 29 00:54:57 2021.

 ----------------------------------------------------------------------
 #N Geom=AllCheck Guess=TCheck SCRF=Check GenChk RB3LYP/6-311++G(d,p) F
 req
 ----------------------------------------------------------------------

 Structure from the checkpoint file:  "conf-580.chk"
 ------------------------------------------------------------
 Candidate Structure: Conf:580 OPT and FREQ calc in gas phase
 ------------------------------------------------------------
 Charge =  1 Multiplicity = 1

                          Input orientation:
 ---------------------------------------------------------------------
 Center     Atomic      Atomic             Coordinates (Angstroms)
 Number     Number       Type             X           Y           Z
 ---------------------------------------------------------------------
      1          8           0        1.317918    0.324392   -1.248839
      2          6           0        1.474457    0.309293   -0.036003
      3          7           0        0.480096    0.329630    0.867625
      4          6           0       -0.932688    0.365153    0.494889
      5          6           0       -1.670994    0.967859    1.684140
      6          8           0       -2.838762    1.503305    1.331314
      7          8           0       -1.235996    0.939627    2.811639
      8          6           0       -1.451104   -1.070631    0.156056
      9          6           0       -2.863788   -1.156433   -0.308753
     10          6           0       -3.996048   -1.634021    0.304593
     11          7           0       -5.092654   -1.502071   -0.512483
     12          6           0       -4.644084   -0.952357   -1.614753
     13          7           0       -3.297884   -0.717594   -1.548844
     14          6           0        2.901424    0.233839    0.552977
     15          6           0        3.854045    0.894130   -0.433127
     16          7           0        5.306206    0.533451   -0.129093
     17          1           0        0.664063    0.353052    1.864342
     18          1           0       -1.051060    1.012372   -0.375098
     19          1           0       -3.301949    1.806512    2.129323
     20          1           0       -1.339260   -1.692055    1.048354
     21          1           0       -0.767211   -1.468526   -0.600499
     22          1           0       -4.077081   -2.070370    1.289160
     23          1           0       -5.231881   -0.705291   -2.485819
     24          1           0       -2.727262   -0.335557   -2.287593
     25          1           0        3.140640   -0.830866    0.665256
     26          1           0        2.954179    0.696039    1.542393
     27          1           0        3.645402    0.555618   -1.447361
     28          1           0        3.797909    1.982210   -0.404328
     29          1           0        5.944928    0.974974   -0.797912
     30          1           0        5.585058    0.833758    0.809905
     31          1           0        5.453572   -0.479290   -0.184269
 ---------------------------------------------------------------------

 SCF Done:  E(RB3LYP) =  -796.690926017     A.U. after    1 cycles

 Alpha  occ. eigenvalues --  -19.28331 -19.23158 -19.23101 -14.64344 -14.47760
 Alpha  occ. eigenvalues --  -14.44697 -14.36485 -10.42291 -10.42280 -10.42007
 Alpha  occ. eigenvalues --  -10.36181 -10.34870 -10.29845 -10.29586 -10.28721
 Alpha  occ. eigenvalues --  -10.25836  -1.22939  -1.20840  -1.18635  -1.14219
 Alpha  occ. eigenvalues --   -1.09441  -1.06864  -0.97078  -0.95115  -0.91178
 Alpha  occ. eigenvalues --   -0.85750  -0.83325  -0.79362  -0.78819  -0.77942
 Alpha  occ. eigenvalues --   -0.74516  -0.71787  -0.69645  -0.69291  -0.67159
 Alpha  occ. eigenvalues --   -0.65719  -0.64615  -0.62585  -0.61273  -0.60193
 Alpha  occ. eigenvalues --   -0.59192  -0.58513  -0.57777  -0.56012  -0.54639
 Alpha  occ. eigenvalues --   -0.54023  -0.53172  -0.51672  -0.51248  -0.50206
 Alpha  occ. eigenvalues --   -0.48942  -0.48563  -0.47722  -0.44035  -0.41098
 Alpha  occ. eigenvalues --   -0.40297  -0.39863  -0.36126  -0.34391  -0.30785
 Alpha virt. eigenvalues --   -0.20368  -0.14900  -0.14439  -0.13768  -0.12401
 Alpha virt. eigenvalues --   -0.11646  -0.10900  -0.09659  -0.09066  -0.08417
 Alpha virt. eigenvalues --   -0.08134  -0.07488  -0.06965  -0.06305  -0.06288

 Mulliken charges:
               1
     1  O   -0.290614
     2  C   -0.100638
     3  N    0.097213
     4  C   -0.534714
     5  C   -0.017569
     6  O   -0.072128
     7  O   -0.256146
     8  C   -0.893171
     9  C    0.945507
    10  C   -0.603850
    11  N   -0.104956
    12  C    0.153906
    13  N   -0.156935
    14  C   -0.283579
    15  C   -0.584817
    16  N   -0.220352
    17  H    0.282671
    18  H    0.320732
    19  H    0.307939
    20  H    0.221700
    21  H    0.234723
    22  H    0.148860
    23  H    0.177931
    24  H    0.305451
    25  H    0.205895
    26  H    0.175283
    27  H    0.279874
    28  H    0.235750
    29  H    0.346499
    30  H    0.341583
    31  H    0.337952
 Sum of Mulliken charges =   1.00000

 Dipole moment (field-independent basis, Debye):
    X=             22.2082    Y=              3.7385    Z=              0.0758  Tot=             22.5208
 Quadrupole moment (field-independent basis, Debye-Ang):
   XX=             17.7985   YY=            -89.3421   ZZ=            -87.2200
   XY=              1.4618   XZ=              2.8384   YZ=              0.1208

  Exact polarizability: 188.771   9.513 105.077   4.773  -0.861 136.577
 Approx polarizability: 231.098   5.269 156.536   4.976 -12.441 225.439

                      1                      2                      3
                      A                      A                      A
 Frequencies --     18.9533                30.9708                44.4858
 Red. masses --      5.4257                 3.9598                 2.0252
 Frc consts  --      0.0011                 0.0022                 0.0024
 IR Inten    --      0.7761                 3.4149                11.2840

                      4                      5                      6
                      A                      A                      A
 Frequencies --     52.0364                66.5530                70.7599
 Red. masses --      4.5323                 6.2586                 4.9929
 Frc consts  --      0.0072                 0.0163                 0.0147
 IR Inten    --      6.0530                 9.0220                 1.9663

                      7                      8                      9
                      A                      A                      A
 Frequencies --     73.4754               105.4825               119.2162
 Red. masses --      6.3071                 3.9951                 4.3682
 Frc consts  --      0.0201                 0.0262                 0.0366
 IR Inten    --      8.9153                 3.4727                10.0186

                     10                     11                     12
                      A                      A                      A
 Frequencies --    177.5800               215.9959               236.3222
 Red. masses --      5.2018                 2.0201                 1.5664
 Frc consts  --      0.0966                 0.0555                 0.0515
 IR Inten    --      4.8814                 9.4670                 2.5425

                     13                     14                     15
                      A                      A                      A
 Frequencies --    258.8733               316.9460               330.9944
 Red. masses --      5.3436                 6.5331                 2.1146
 Frc consts  --      0.2110                 0.3867                 0.1365
 IR Inten    --     11.4441                 8.5499                 4.3811

                     16                     17                     18
                      A                      A                      A
 Frequencies --    343.1715               365.9164               388.1603
 Red. masses --      6.4724                 3.7228                 3.8961
 Frc consts  --      0.4491                 0.2937                 0.3459
 IR Inten    --     12.6416                 5.7383                 6.5967

                     19                     20                     21
                      A                      A                      A
 Frequencies --    510.5419               530.2618               562.4203
 Red. masses --      1.3986                 3.6968                 1.8162
 Frc consts  --      0.2148                 0.6124                 0.3385
 IR Inten    --     70.1429                54.0910                22.3570

                     22                     23                     24
                      A                      A                      A
 Frequencies --    612.3555               629.8186               650.4444
 Red. masses --      1.2435                 4.3089                 1.6842
 Frc consts  --      0.2747                 1.0070                 0.4198
 IR Inten    --    113.9516                10.3677                32.5419

                     25                     26                     27
                      A                      A                      A
 Frequencies --    658.5113               673.4354               714.8370
 Red. masses --      2.5777                 3.0528                 3.7115
 Frc consts  --      0.6586                 0.8157                 1.1174
 IR Inten    --     35.3624                 9.1664                 1.1291

                     28                     29                     30
                      A                      A                      A
 Frequencies --    753.4956               765.2222               793.4289
 Red. masses --      3.6906                 3.5999                 1.4236
 Frc consts  --      1.2345                 1.2420                 0.5280
 IR Inten    --     17.0368                10.3937                15.0417

                     31                     32                     33
                      A                      A                      A
 Frequencies --    812.9417               824.8642               856.8976
 Red. masses --      2.2749                 1.4089                 1.4290
 Frc consts  --      0.8858                 0.5648                 0.6182
 IR Inten    --      6.7746                18.5545                17.9545

                     34                     35                     36
                      A                      A                      A
 Frequencies --    883.0053               918.1253               928.4373
 Red. masses --      2.6911                 1.2942                 4.3069
 Frc consts  --      1.2362                 0.6427                 2.1873
 IR Inten    --     33.8868                 4.0253                 2.4769

                     37                     38                     39
                      A                      A                      A
 Frequencies --    932.5267               981.5757               994.6520
 Red. masses --      4.7684                 2.1380                 3.8999
 Frc consts  --      2.4431                 1.2137                 2.2733
 IR Inten    --     25.6968                14.6799                22.2485

                     40                     41                     42
                      A                      A                      A
 Frequencies --   1016.1962              1030.3909              1078.3258
 Red. masses --      3.2161                 3.1491                 2.5136
 Frc consts  --      1.9568                 1.9699                 1.7221
 IR Inten    --     30.0397                 2.7527                30.0222

                     43                     44                     45
                      A                      A                      A
 Frequencies --   1103.9866              1108.0433              1141.4325
 Red. masses --      1.6775                 1.8395                 2.2811
 Frc consts  --      1.2046                 1.3306                 1.7510
 IR Inten    --     18.7546                25.0642                 8.5749

                     46                     47                     48
                      A                      A                      A
 Frequencies --   1147.9506              1169.3756              1196.6747
 Red. masses --      2.0445                 1.5831                 1.8792
 Frc consts  --      1.5874                 1.2755                 1.5855
 IR Inten    --     24.0123                53.5587               116.8035

                     49                     50                     51
                      A                      A                      A
 Frequencies --   1236.3123              1261.0420              1275.1560
 Red. masses --      1.5488                 2.3947                 1.3714
 Frc consts  --      1.3948                 2.2437                 1.3139
 IR Inten    --     17.7017                10.1888                 3.2151

                     52                     53                     54
                      A                      A                      A
 Frequencies --   1288.9234              1298.5740              1324.9325
 Red. masses --      1.2882                 1.3566                 1.3326
 Frc consts  --      1.2610                 1.3479                 1.3783
 IR Inten    --      1.5994                 3.9671                13.8581

                     55                     56                     57
                      A                      A                      A
 Frequencies --   1328.8422              1353.1764              1359.2740
 Red. masses --      1.3227                 1.3007                 1.4257
 Frc consts  --      1.3761                 1.4033                 1.5520
 IR Inten    --      5.1700                 3.6490                21.1663

                     58                     59                     60
                      A                      A                      A
 Frequencies --   1386.2864              1406.0566              1426.7673
 Red. masses --      3.0895                 1.3369                 2.5632
 Frc consts  --      3.4982                 1.5572                 3.0743
 IR Inten    --      5.2234                24.1855               178.5704

                     61                     62                     63
                      A                      A                      A
 Frequencies --   1428.5646              1478.5317              1481.4559
 Red. masses --      2.8887                 1.1121                 1.1356
 Frc consts  --      3.4734                 1.4324                 1.4684
 IR Inten    --     29.5510                 1.3188                11.3170

                     64                     65                     66
                      A                      A                      A
 Frequencies --   1497.3725              1506.9238              1516.8906
 Red. masses --      3.4741                 1.0732                 1.1775
 Frc consts  --      4.5894                 1.4359                 1.5964
 IR Inten    --     35.3274                15.3092               186.0520

                     67                     68                     69
                      A                      A                      A
 Frequencies --   1544.7306              1607.5987              1664.1243
 Red. masses --      2.2345                 4.4419                 1.0421
 Frc consts  --      3.1414                 6.7635                 1.7004
 IR Inten    --    286.4451                 6.7929                47.4857

                     70                     71                     72
                      A                      A                      A
 Frequencies --   1667.9444              1738.5584              1796.8556
 Red. masses --      1.0437                 9.9757                 9.6725
 Frc consts  --      1.7108                17.7653                18.3999
 IR Inten    --     39.4466               346.5923               295.2778

                     73                     74                     75
                      A                      A                      A
 Frequencies --   3023.2309              3034.8384              3080.2205
 Red. masses --      1.0634                 1.0622                 1.1003
 Frc consts  --      5.7263                 5.7638                 6.1507
 IR Inten    --      3.9339                16.5230                 5.7531

                     76                     77                     78
                      A                      A                      A
 Frequencies --   3081.5727              3093.8558              3100.8626
 Red. masses --      1.0982                 1.0595                 1.0885
 Frc consts  --      6.1446                 5.9753                 6.1664
 IR Inten    --      3.9238                 5.1462                 3.7825

                     79                     80                     81
                      A                      A                      A
 Frequencies --   3153.8010              3231.0101              3245.4488
 Red. masses --      1.1118                 1.0968                 1.0983
 Frc consts  --      6.5156                 6.7461                 6.8157
 IR Inten    --      2.7944                 4.3406                 1.2356

                     82                     83                     84
                      A                      A                      A
 Frequencies --   3397.5822              3475.0037              3477.1245
 Red. masses --      1.0301                 1.0931                 1.0934
 Frc consts  --      7.0057                 7.7774                 7.7888
 IR Inten    --     54.5495                91.4213                89.7173

                     85                     86                     87
                      A                      A                      A
 Frequencies --   3558.0696              3640.0228              3735.9199
 Red. masses --      1.0784                 1.0814                 1.0646
 Frc consts  --      8.0435                 8.4420                 8.7548
 IR Inten    --    104.8356                50.5239               114.8980

 - Thermochemistry -
 -------------------
 Temperature   298.150 Kelvin.  Pressure   1.00000 Atm.
 Atom     1 has atomic number  8 and mass  15.99491

 Molecular mass:   227.11442 amu.
 Principal axes and moments of inertia in atomic units:
                           1         2         3
     Eigenvalues --  1706.771998119.843119197.56178
           X            0.98362  -0.11004  -0.14279
           Y            0.17737   0.44936   0.87557
           Z            0.03218   0.88655  -0.46152
 This molecule is an asymmetric top.
 Rotational symmetry number  1.
 Warning -- assumption of classical behavior for rotation
           may cause significant error
 Rotational temperatures (Kelvin)      0.05075     0.01067     0.00942
 Rotational constants (GHZ):           1.05740     0.22226     0.19622
 Zero-point vibrational energy     678279.8 (Joules/Mol)
                                  162.11276 (Kcal/Mol)
 Warning -- explicit consideration of  22 degrees of freedom as
           vibrations may cause significant error
 Vibrational temperatures:     27.27    44.56    64.01    74.87    95.75
          (Kelvin)            101.81   105.71   151.77   171.53   255.50
                              310.77   340.01   372.46   456.01   476.23
                              493.75   526.47   558.48   734.55   762.93
                              809.20   881.04   906.17   935.84   947.45
                              968.92  1028.49  1084.11  1100.98  1141.57
                             1169.64  1186.79  1232.88  1270.45  1320.98
                             1335.81  1341.70  1412.27  1431.08  1462.08
                             1482.50  1551.47  1588.39  1594.23  1642.26
                             1651.64  1682.47  1721.75  1778.78  1814.36
                             1834.66  1854.47  1868.36  1906.28  1911.91
                             1946.92  1955.69  1994.55  2023.00  2052.80
                             2055.38  2127.27  2131.48  2154.38  2168.12
                             2182.46  2222.52  2312.97  2394.30  2399.80
                             2501.39  2585.27  4349.75  4366.45  4431.74
                             4433.69  4451.36  4461.44  4537.61  4648.70
                             4669.47  4888.36  4999.75  5002.80  5119.26
                             5237.17  5375.15

 Zero-point correction=                           0.258343 (Hartree/Particle)
 Thermal correction to Energy=                    0.274899
 Thermal correction to Enthalpy=                  0.275843
 Thermal correction to Gibbs Free Energy=         0.210672
 Sum of electronic and zero-point Energies=           -796.432583
 Sum of electronic and thermal Energies=              -796.416027
 Sum of electronic and thermal Enthalpies=            -796.415083
 Sum of electronic and thermal Free Energies=         -796.480254

                     E (Thermal)             CV                S
                      KCal/Mol        Cal/Mol-Kelvin    Cal/Mol-Kelvin
 Total                  172.502             59.240            137.165
 Electronic               0.000              0.000              0.000
 Translational            0.889              2.981             42.163
 Rotational               0.889              2.981             33.210
 Vibrational            170.724             53.278             61.791
 Vibration     1          0.593              1.986              6.741
 Vibration     2          0.594              1.984              5.766
 Vibration     3          0.595              1.980              5.049
 Vibration     4          0.596              1.977              4.738
 Vibration     5          0.598              1.970              4.253
 Vibration     6          0.598              1.968              4.132
 Vibration     7          0.599              1.967              4.058
 Vibration     8          0.605              1.945              3.350
 Vibration     9          0.609              1.933              3.113
 Vibration    10          0.628              1.870              2.354
 Vibration    11          0.645              1.817              1.992
 Vibration    12          0.655              1.785              1.830
 Vibration    13          0.668              1.748              1.669
 Vibration    14          0.704              1.641              1.326
 Vibration    15          0.713              1.614              1.255
 Vibration    16          0.722              1.589              1.197
 Vibration    17          0.739              1.542              1.097
 Vibration    18          0.756              1.495              1.007
 Vibration    19          0.866              1.227              0.632
 Vibration    20          0.885              1.183              0.587
 Vibration    21          0.918              1.113              0.519
 Vibration    22          0.972              1.006              0.429

 Optimization completed.
    -- Stationary point found.
 Normal termination of Gaussian 09 at Thu Jul 29 02:08:28 2021.
