 Gaussian 09, Revision D.01,
 Gaussian 09:  ES64L-G09RevD.01 24-Apr-2013

 ----------------------------------------------------------------------
 # B3LYP/6-311++G(d,p) opt=calcfc freq=noraman nosymm integral(ultrafin
 egrid)
 ----------------------------------------------------------------------

 ------------------------------------------------------------
 Candidate Structure: Conf:214 OPT and FREQ calc in gas phase
 ------------------------------------------------------------
 Symbolic Z-matrix:
 Charge =  1 Multiplicity = 1

 SCF Done:  E(RB3LYP) =  -796.675928949     A.U. after   17 cycles
 SCF Done:  E(RB3LYP) =  -796.681029532     A.U. after   13 cycles
 SCF Done:  E(RB3LYP) =  -796.681769066     A.U. after   14 cycles
 SCF Done:  E(RB3LYP) =  -796.681898705     A.U. after   14 cycles
 SCF Done:  E(RB3LYP) =  -796.681913027     A.U. after   12 cycles
 SCF Done:  E(RB3LYP) =  -796.681914820     A.U. after   12 cycles
 SCF Done:  E(RB3LYP) =  -796.681915555     A.U. after   11 cycles
 SCF Done:  E(RB3LYP) =  -796.681915604     A.U. after   10 cycles
 Optimization completed.
    -- Stationary point found.
 Normal termination of Gaussian 09 at Thu Jul 29 00:12:05 2021.

 ----------------------------------------------------------------------
 #N Geom=AllCheck Guess=TCheck SCRF=Check GenChk RB3LYP/6-311++G(d,p) F
 req
 ----------------------------------------------------------------------

 Structure from the checkpoint file:  "conf-214.chk"
 ------------------------------------------------------------
 Candidate Structure: Conf:214 OPT and FREQ calc in gas phase
 ------------------------------------------------------------
 Charge =  1 Multiplicity = 1

                          Input orientation:
 ---------------------------------------------------------------------
 Center     Atomic      Atomic             Coordinates (Angstroms)
 Number     Number       Type             X           Y           Z
 ---------------------------------------------------------------------
      1          8           0       -1.175816   -0.832117   -1.139408
      2          6           0       -1.074586   -0.402625   -0.001448
      3          7           0       -0.025540   -0.621581    0.819566
      4          6           0        1.092628   -1.481113    0.456342
      5          6           0        1.172484   -2.609001    1.501459
      6          8           0        1.849141   -3.715285    1.149276
      7          8           0        0.695063   -2.494267    2.597020
      8          6           0        2.438928   -0.714814    0.429752
      9          6           0        2.468274    0.418731   -0.549062
     10          6           0        1.752187    0.709069   -1.685802
     11          7           0        2.181145    1.891434   -2.247496
     12          6           0        3.150933    2.316735   -1.475498
     13          7           0        3.364624    1.466097   -0.425777
     14          6           0       -2.164758    0.527714    0.569829
     15          6           0       -3.457832    0.276542   -0.193014
     16          7           0       -4.432812    1.439424   -0.029145
     17          1           0       -0.109616   -0.412929    1.806397
     18          1           0        0.871797   -1.888101   -0.533052
     19          1           0        2.123471   -3.698757    0.222955
     20          1           0        2.639285   -0.342563    1.441573
     21          1           0        3.237627   -1.434369    0.210431
     22          1           0        0.951773    0.139267   -2.131136
     23          1           0        3.729746    3.216820   -1.617152
     24          1           0        4.072018    1.569109    0.286357
     25          1           0       -1.810235    1.553003    0.405807
     26          1           0       -2.291065    0.385765    1.646671
     27          1           0       -3.982716   -0.614239    0.151336
     28          1           0       -3.255303    0.177958   -1.258881
     29          1           0       -4.027023    2.311089   -0.384387
     30          1           0       -5.300161    1.269570   -0.547768
     31          1           0       -4.683678    1.593545    0.952064
 ---------------------------------------------------------------------

 SCF Done:  E(RB3LYP) =  -796.681915604     A.U. after    2 cycles

 Alpha  occ. eigenvalues --  -19.28570 -19.23207 -19.22707 -14.63967 -14.47768
 Alpha  occ. eigenvalues --  -14.46109 -14.38056 -10.42285 -10.42274 -10.41587
 Alpha  occ. eigenvalues --  -10.35904 -10.35707 -10.31236 -10.31036 -10.30398
 Alpha  occ. eigenvalues --  -10.27180  -1.22534  -1.20474  -1.18749  -1.14575
 Alpha  occ. eigenvalues --   -1.10910  -1.07058  -0.96830  -0.96476  -0.92017
 Alpha  occ. eigenvalues --   -0.85929  -0.83495  -0.78987  -0.78851  -0.77609
 Alpha  occ. eigenvalues --   -0.74523  -0.72761  -0.70783  -0.69380  -0.68476
 Alpha  occ. eigenvalues --   -0.68086  -0.65214  -0.63343  -0.61340  -0.60899
 Alpha  occ. eigenvalues --   -0.59193  -0.57392  -0.56936  -0.56128  -0.55425
 Alpha  occ. eigenvalues --   -0.54411  -0.53243  -0.52677  -0.52094  -0.50751
 Alpha  occ. eigenvalues --   -0.50192  -0.49758  -0.48879  -0.43953  -0.41004
 Alpha  occ. eigenvalues --   -0.40622  -0.39326  -0.37614  -0.36004  -0.32265
 Alpha virt. eigenvalues --   -0.19982  -0.14442  -0.14079  -0.13364  -0.12186
 Alpha virt. eigenvalues --   -0.11687  -0.10791  -0.10609  -0.09350  -0.08978
 Alpha virt. eigenvalues --   -0.08038  -0.07724  -0.07052  -0.06713  -0.06207

 Mulliken charges:
               1
     1  O   -0.284318
     2  C   -0.093897
     3  N    0.080513
     4  C    0.172432
     5  C   -0.209652
     6  O   -0.086146
     7  O   -0.229029
     8  C   -1.515884
     9  C    1.096618
    10  C   -0.625057
    11  N   -0.077439
    12  C    0.181563
    13  N   -0.180936
    14  C   -0.279414
    15  C   -0.621534
    16  N   -0.216903
    17  H    0.307471
    18  H    0.286221
    19  H    0.279537
    20  H    0.194586
    21  H    0.213245
    22  H    0.160749
    23  H    0.196644
    24  H    0.316863
    25  H    0.211089
    26  H    0.176361
    27  H    0.236611
    28  H    0.282289
    29  H    0.338915
    30  H    0.347703
    31  H    0.340799
 Sum of Mulliken charges =   1.00000

 Dipole moment (field-independent basis, Debye):
    X=            -13.4486    Y=              5.9508    Z=              2.3910  Tot=             14.8994
 Quadrupole moment (field-independent basis, Debye-Ang):
   XX=             14.7849   YY=            -81.8739   ZZ=           -108.1813
   XY=            -25.9748   XZ=              1.5127   YZ=             14.8457

  Exact polarizability: 149.211  -2.162 138.631   3.397 -15.580 130.608
 Approx polarizability: 194.523   1.356 194.537  15.479  -6.424 219.451

                      1                      2                      3
                      A                      A                      A
 Frequencies --     19.0966                32.2156                45.3436
 Red. masses --      4.7771                 1.7974                 3.7279
 Frc consts  --      0.0010                 0.0011                 0.0045
 IR Inten    --     12.9363                 4.6340                 7.3434

                      4                      5                      6
                      A                      A                      A
 Frequencies --     50.2296                58.5947                75.2134
 Red. masses --      6.0380                 5.2774                 6.6885
 Frc consts  --      0.0090                 0.0107                 0.0223
 IR Inten    --      4.3100                 9.5193                30.4319

                      7                      8                      9
                      A                      A                      A
 Frequencies --     90.8249                96.3045               123.4583
 Red. masses --      4.5867                 4.1758                 4.3489
 Frc consts  --      0.0223                 0.0228                 0.0391
 IR Inten    --      1.1622                 4.9862                15.0123

                     10                     11                     12
                      A                      A                      A
 Frequencies --    171.9758               218.7577               241.6009
 Red. masses --      6.9468                 1.7554                 1.8409
 Frc consts  --      0.1211                 0.0495                 0.0633
 IR Inten    --      3.4994                12.8387                 8.6331

                     13                     14                     15
                      A                      A                      A
 Frequencies --    248.7312               281.3623               315.5438
 Red. masses --      4.0396                 3.0452                 3.8744
 Frc consts  --      0.1472                 0.1420                 0.2273
 IR Inten    --      0.3153                 7.4466                14.3436

                     16                     17                     18
                      A                      A                      A
 Frequencies --    343.8426               376.8957               437.9855
 Red. masses --      4.2200                 3.3531                 2.6435
 Frc consts  --      0.2940                 0.2806                 0.2988
 IR Inten    --     14.6831                 6.6094                39.7144

                     19                     20                     21
                      A                      A                      A
 Frequencies --    482.9502               515.2996               522.5147
 Red. masses --      1.2756                 1.7195                 1.5674
 Frc consts  --      0.1753                 0.2690                 0.2521
 IR Inten    --     92.6755                68.9535                64.8419

                     22                     23                     24
                      A                      A                      A
 Frequencies --    538.5472               613.7551               647.0444
 Red. masses --      2.9213                 2.2722                 2.4814
 Frc consts  --      0.4992                 0.5043                 0.6121
 IR Inten    --      9.7918                 4.1512                20.9226

                     25                     26                     27
                      A                      A                      A
 Frequencies --    657.4610               675.4786               687.1943
 Red. masses --      6.2310                 3.2220                 4.7563
 Frc consts  --      1.5869                 0.8661                 1.3234
 IR Inten    --      7.5909                 6.4222                12.4784

                     28                     29                     30
                      A                      A                      A
 Frequencies --    711.5746               780.6690               794.2795
 Red. masses --      4.3361                 5.1849                 1.3627
 Frc consts  --      1.2936                 1.8617                 0.5065
 IR Inten    --      5.3518                 3.8899                14.0795

                     31                     32                     33
                      A                      A                      A
 Frequencies --    826.0095               860.4064               878.6612
 Red. masses --      1.3908                 1.4272                 2.0190
 Frc consts  --      0.5591                 0.6225                 0.9184
 IR Inten    --     19.1095                19.8378                33.7874

                     34                     35                     36
                      A                      A                      A
 Frequencies --    895.2243               904.8945               918.6302
 Red. masses --      2.6791                 3.9924                 1.3094
 Frc consts  --      1.2650                 1.9261                 0.6510
 IR Inten    --     13.7689                 8.8938                 3.8760

                     37                     38                     39
                      A                      A                      A
 Frequencies --    934.7204               964.0984               991.6506
 Red. masses --      5.7783                 3.1642                 2.3336
 Frc consts  --      2.9745                 1.7328                 1.3520
 IR Inten    --     10.9837                14.1857                18.1469

                     40                     41                     42
                      A                      A                      A
 Frequencies --   1022.8874              1047.9186              1088.8555
 Red. masses --      3.8125                 3.1891                 2.0347
 Frc consts  --      2.3502                 2.0633                 1.4213
 IR Inten    --     12.1192                11.8648                16.0505

                     43                     44                     45
                      A                      A                      A
 Frequencies --   1107.1881              1111.2177              1141.9676
 Red. masses --      1.8234                 1.7941                 2.1690
 Frc consts  --      1.3170                 1.3053                 1.6665
 IR Inten    --      9.7181                34.0548                 5.6650

                     46                     47                     48
                      A                      A                      A
 Frequencies --   1148.1844              1163.4472              1206.2551
 Red. masses --      2.3179                 1.8145                 1.7931
 Frc consts  --      1.8004                 1.4471                 1.5372
 IR Inten    --     21.3816                 4.6557                 7.3300

                     49                     50                     51
                      A                      A                      A
 Frequencies --   1240.5190              1249.1990              1281.3307
 Red. masses --      1.6048                 1.5862                 1.4447
 Frc consts  --      1.4550                 1.4583                 1.3975
 IR Inten    --      4.0607               143.2926               102.0766

                     52                     53                     54
                      A                      A                      A
 Frequencies --   1288.7285              1290.5137              1318.4644
 Red. masses --      1.2951                 1.4477                 1.8733
 Frc consts  --      1.2673                 1.4205                 1.9187
 IR Inten    --      1.7753                31.2984               209.2425

                     55                     56                     57
                      A                      A                      A
 Frequencies --   1325.2504              1352.9250              1354.4897
 Red. masses --      1.2668                 2.0815                 1.2747
 Frc consts  --      1.3108                 2.2447                 1.3779
 IR Inten    --     18.2376                21.2175                 1.9806

                     58                     59                     60
                      A                      A                      A
 Frequencies --   1388.7571              1406.8924              1411.6397
 Red. masses --      1.6804                 1.3405                 2.2121
 Frc consts  --      1.9095                 1.5633                 2.5972
 IR Inten    --    144.4227                22.5825                18.5941

                     61                     62                     63
                      A                      A                      A
 Frequencies --   1428.1339              1477.6747              1483.8342
 Red. masses --      2.6881                 1.1173                 1.2909
 Frc consts  --      3.2302                 1.4374                 1.6746
 IR Inten    --     20.8713                 1.1732                33.7624

                     64                     65                     66
                      A                      A                      A
 Frequencies --   1499.6227              1507.3053              1517.3580
 Red. masses --      2.6628                 1.0724                 1.1738
 Frc consts  --      3.5282                 1.4355                 1.5922
 IR Inten    --      9.9314                15.6867               158.9178

                     67                     68                     69
                      A                      A                      A
 Frequencies --   1557.8859              1604.4110              1664.6125
 Red. masses --      1.8994                 4.1086                 1.0423
 Frc consts  --      2.7160                 6.2313                 1.7016
 IR Inten    --    232.6693                 9.1451                46.2567

                     70                     71                     72
                      A                      A                      A
 Frequencies --   1667.8574              1747.7374              1834.1541
 Red. masses --      1.0434                 9.4280                10.2074
 Frc consts  --      1.7100                16.9677                20.2319
 IR Inten    --     38.4495               264.1091               247.9178

                     73                     74                     75
                      A                      A                      A
 Frequencies --   3007.8199              3022.4677              3036.3166
 Red. masses --      1.0605                 1.0636                 1.1007
 Frc consts  --      5.6527                 5.7245                 5.9786
 IR Inten    --     25.4220                 2.9372                 7.6678

                     76                     77                     78
                      A                      A                      A
 Frequencies --   3079.0275              3083.6668              3094.6652
 Red. masses --      1.1001                 1.0854                 1.0594
 Frc consts  --      6.1448                 6.0808                 5.9779
 IR Inten    --      4.6060                 7.7905                 5.2863

                     79                     80                     81
                      A                      A                      A
 Frequencies --   3154.1462              3243.8149              3247.1882
 Red. masses --      1.1119                 1.0952                 1.1000
 Frc consts  --      6.5174                 6.7900                 6.8337
 IR Inten    --      3.0851                 0.4071                 2.3868

                     82                     83                     84
                      A                      A                      A
 Frequencies --   3397.5739              3474.3123              3478.1739
 Red. masses --      1.0301                 1.0931                 1.0934
 Frc consts  --      7.0060                 7.7742                 7.7936
 IR Inten    --     50.2192                92.0682                89.3510

                     85                     86                     87
                      A                      A                      A
 Frequencies --   3584.7479              3636.1726              3794.7655
 Red. masses --      1.0773                 1.0815                 1.0667
 Frc consts  --      8.1569                 8.4252                 9.0499
 IR Inten    --     63.7037                65.4989                67.7098

 - Thermochemistry -
 -------------------
 Temperature   298.150 Kelvin.  Pressure   1.00000 Atm.
 Atom     1 has atomic number  8 and mass  15.99491

 Molecular mass:   227.11442 amu.
 Principal axes and moments of inertia in atomic units:
                           1         2         3
     Eigenvalues --  3602.735134899.816057682.41500
           X            0.99560   0.02093   0.09130
           Y           -0.06727   0.83807   0.54140
           Z           -0.06519  -0.54516   0.83579
 This molecule is an asymmetric top.
 Rotational symmetry number  1.
 Warning -- assumption of classical behavior for rotation
           may cause significant error
 Rotational temperatures (Kelvin)      0.02404     0.01768     0.01127
 Rotational constants (GHZ):           0.50094     0.36833     0.23492
 Zero-point vibrational energy     677691.2 (Joules/Mol)
                                  161.97208 (Kcal/Mol)
 Warning -- explicit consideration of  23 degrees of freedom as
           vibrations may cause significant error
 Vibrational temperatures:     27.48    46.35    65.24    72.27    84.30
          (Kelvin)            108.22   130.68   138.56   177.63   247.43
                              314.74   347.61   357.87   404.82   454.00
                              494.71   542.27   630.16   694.86   741.40
                              751.78   774.85   883.06   930.95   945.94
                              971.86   988.72  1023.80  1123.21  1142.79
                             1188.44  1237.93  1264.20  1288.03  1301.94
                             1321.70  1344.85  1387.12  1426.76  1471.71
                             1507.72  1566.62  1592.99  1598.79  1643.03
                             1651.98  1673.94  1735.53  1784.83  1797.32
                             1843.55  1854.19  1856.76  1896.97  1906.74
                             1946.55  1948.81  1998.11  2024.20  2031.03
                             2054.76  2126.04  2134.90  2157.62  2168.67
                             2183.14  2241.45  2308.39  2395.00  2399.67
                             2514.60  2638.94  4327.58  4348.65  4368.58
                             4430.03  4436.70  4452.53  4538.11  4667.12
                             4671.97  4888.34  4998.75  5004.31  5157.65
                             5231.63  5459.81

 Zero-point correction=                           0.258119 (Hartree/Particle)
 Thermal correction to Energy=                    0.274786
 Thermal correction to Enthalpy=                  0.275730
 Thermal correction to Gibbs Free Energy=         0.210406
 Sum of electronic and zero-point Energies=           -796.423797
 Sum of electronic and thermal Energies=              -796.407129
 Sum of electronic and thermal Enthalpies=            -796.406185
 Sum of electronic and thermal Free Energies=         -796.471509

                     E (Thermal)             CV                S
                      KCal/Mol        Cal/Mol-Kelvin    Cal/Mol-Kelvin
 Total                  172.431             59.584            137.487
 Electronic               0.000              0.000              0.000
 Translational            0.889              2.981             42.163
 Rotational               0.889              2.981             33.272
 Vibrational            170.654             53.623             62.051
 Vibration     1          0.593              1.986              6.726
 Vibration     2          0.594              1.983              5.688
 Vibration     3          0.595              1.979              5.011
 Vibration     4          0.595              1.978              4.808
 Vibration     5          0.596              1.974              4.504
 Vibration     6          0.599              1.966              4.012
 Vibration     7          0.602              1.956              3.642
 Vibration     8          0.603              1.952              3.528
 Vibration     9          0.610              1.929              3.046
 Vibration    10          0.626              1.877              2.414
 Vibration    11          0.647              1.813              1.969
 Vibration    12          0.658              1.777              1.791
 Vibration    13          0.662              1.765              1.740
 Vibration    14          0.681              1.708              1.525
 Vibration    15          0.703              1.644              1.333
 Vibration    16          0.723              1.588              1.194
 Vibration    17          0.747              1.519              1.052
 Vibration    18          0.798              1.387              0.833
 Vibration    19          0.839              1.288              0.702
 Vibration    20          0.870              1.216              0.621
 Vibration    21          0.877              1.200              0.604
 Vibration    22          0.894              1.165              0.568
 Vibration    23          0.973              1.003              0.427

 Optimization completed.
    -- Stationary point found.
 Normal termination of Gaussian 09 at Thu Jul 29 01:28:40 2021.
