 Gaussian 09, Revision D.01,
 Gaussian 09:  ES64L-G09RevD.01 24-Apr-2013

 ----------------------------------------------------------------------
 # B3LYP/6-31G(d,p) opt=calcfc freq=noraman nosymm integral(ultrafinegr
 id)
 ----------------------------------------------------------------------

 ------------------------------------------------------------
 Candidate Structure: Conf:661 OPT and FREQ calc in gas phase
 ------------------------------------------------------------
 Symbolic Z-matrix:
 Charge =  1 Multiplicity = 1

 SCF Done:  E(RB3LYP) =  -796.475265633     A.U. after   14 cycles
 SCF Done:  E(RB3LYP) =  -796.467558140     A.U. after   15 cycles
 SCF Done:  E(RB3LYP) =  -796.483688488     A.U. after   11 cycles
 SCF Done:  E(RB3LYP) =  -796.488185713     A.U. after   13 cycles
 SCF Done:  E(RB3LYP) =  -796.489492342     A.U. after   15 cycles
 SCF Done:  E(RB3LYP) =  -796.453265297     A.U. after   14 cycles
 SCF Done:  E(RB3LYP) =  -796.489858774     A.U. after   10 cycles
 SCF Done:  E(RB3LYP) =  -796.492761253     A.U. after   12 cycles
 SCF Done:  E(RB3LYP) =  -796.493967737     A.U. after   12 cycles
 SCF Done:  E(RB3LYP) =  -796.494343294     A.U. after   14 cycles
 SCF Done:  E(RB3LYP) =  -796.494536918     A.U. after   12 cycles
 SCF Done:  E(RB3LYP) =  -796.494621019     A.U. after   11 cycles
 SCF Done:  E(RB3LYP) =  -796.494685272     A.U. after   11 cycles
 SCF Done:  E(RB3LYP) =  -796.494738349     A.U. after   11 cycles
 SCF Done:  E(RB3LYP) =  -796.494770579     A.U. after   11 cycles
 SCF Done:  E(RB3LYP) =  -796.494781385     A.U. after   10 cycles
 SCF Done:  E(RB3LYP) =  -796.494786979     A.U. after   10 cycles
 SCF Done:  E(RB3LYP) =  -796.494787725     A.U. after    8 cycles
 SCF Done:  E(RB3LYP) =  -796.494787850     A.U. after    7 cycles
 Optimization completed.
    -- Stationary point found.
 Normal termination of Gaussian 09 at Wed Jul 28 22:56:12 2021.

 ----------------------------------------------------------------------
 #N Geom=AllCheck Guess=TCheck SCRF=Check GenChk RB3LYP/6-31G(d,p) Freq
 ----------------------------------------------------------------------

 Structure from the checkpoint file:  "conf-661.chk"
 ------------------------------------------------------------
 Candidate Structure: Conf:661 OPT and FREQ calc in gas phase
 ------------------------------------------------------------
 Charge =  1 Multiplicity = 1

                          Input orientation:
 ---------------------------------------------------------------------
 Center     Atomic      Atomic             Coordinates (Angstroms)
 Number     Number       Type             X           Y           Z
 ---------------------------------------------------------------------
      1          8           0        2.118294    1.150545    0.888931
      2          6           0        1.414900    0.954613   -0.094100
      3          7           0        0.185017    0.372724   -0.002288
      4          6           0       -0.258439   -0.135147    1.274713
      5          6           0        0.754020   -1.191568    1.757153
      6          8           0        0.740198   -1.496407    3.049684
      7          8           0        1.494234   -1.810636    1.008913
      8          6           0       -1.664019   -0.806832    1.130137
      9          6           0       -2.642823    0.021274    0.365987
     10          6           0       -3.042917   -0.052514   -0.952721
     11          7           0       -3.919850    0.957931   -1.263722
     12          6           0       -4.060387    1.645154   -0.152748
     13          7           0       -3.303116    1.131332    0.864949
     14          6           0        1.982659    1.107145   -1.503679
     15          6           0        3.186449    0.164692   -1.593514
     16          7           0        2.774312   -1.276316   -1.333414
     17          1           0       -0.493377    0.413344   -0.755883
     18          1           0       -0.297683    0.674212    2.015822
     19          1           0        0.166063   -0.905202    3.560611
     20          1           0       -2.033685   -1.056352    2.131042
     21          1           0       -1.539460   -1.755988    0.599081
     22          1           0       -2.773487   -0.808678   -1.679583
     23          1           0       -4.691248    2.513243   -0.019918
     24          1           0       -3.288068    1.468418    1.816667
     25          1           0        2.352283    2.126666   -1.644457
     26          1           0        1.247678    0.901387   -2.289207
     27          1           0        3.906624    0.419243   -0.814974
     28          1           0        3.669102    0.194448   -2.571578
     29          1           0        3.597495   -1.883015   -1.279552
     30          1           0        2.234661   -1.401882   -0.423599
     31          1           0        2.184164   -1.635725   -2.088743
 ---------------------------------------------------------------------

 SCF Done:  E(RB3LYP) =  -796.494787850     A.U. after    1 cycles

 Alpha  occ. eigenvalues --  -19.34573 -19.29382 -19.26190 -14.61073 -14.50856
 Alpha  occ. eigenvalues --  -14.50395 -14.41809 -10.47646 -10.43567 -10.41278
 Alpha  occ. eigenvalues --  -10.39233 -10.35927 -10.34983 -10.34762 -10.34026
 Alpha  occ. eigenvalues --  -10.31211  -1.25673  -1.18754  -1.17046  -1.15372
 Alpha  occ. eigenvalues --   -1.12416  -1.07519  -0.98116  -0.95174  -0.92782
 Alpha  occ. eigenvalues --   -0.86834  -0.82441  -0.79627  -0.77386  -0.74874
 Alpha  occ. eigenvalues --   -0.73834  -0.73192  -0.72379  -0.70448  -0.67944
 Alpha  occ. eigenvalues --   -0.65932  -0.65464  -0.64532  -0.64263  -0.60430
 Alpha  occ. eigenvalues --   -0.59278  -0.58416  -0.57454  -0.56698  -0.55812
 Alpha  occ. eigenvalues --   -0.55102  -0.53773  -0.53195  -0.52450  -0.51874
 Alpha  occ. eigenvalues --   -0.51644  -0.51315  -0.49804  -0.46654  -0.43648
 Alpha  occ. eigenvalues --   -0.40769  -0.40067  -0.39060  -0.37073  -0.34067
 Alpha virt. eigenvalues --   -0.14825  -0.13346  -0.11891  -0.09265  -0.07353
 Alpha virt. eigenvalues --   -0.06780  -0.05608  -0.04526  -0.03700  -0.02489
 Alpha virt. eigenvalues --   -0.01122  -0.00470   0.00284   0.00872   0.01538

 Mulliken charges:
               1
     1  O   -0.487251
     2  C    0.554085
     3  N   -0.526883
     4  C   -0.017186
     5  C    0.670149
     6  O   -0.438166
     7  O   -0.503826
     8  C   -0.280451
     9  C    0.272118
    10  C   -0.022758
    11  N   -0.415861
    12  C    0.275677
    13  N   -0.532318
    14  C   -0.267964
    15  C   -0.120905
    16  N   -0.581675
    17  H    0.279914
    18  H    0.146054
    19  H    0.349017
    20  H    0.139191
    21  H    0.153940
    22  H    0.103441
    23  H    0.147588
    24  H    0.277192
    25  H    0.193559
    26  H    0.133465
    27  H    0.211413
    28  H    0.177923
    29  H    0.356537
    30  H    0.411341
    31  H    0.342639
 Sum of Mulliken charges =   1.00000

 Dipole moment (field-independent basis, Debye):
    X=              5.1848    Y=             -1.7511    Z=             -1.3524  Tot=              5.6372
 Quadrupole moment (field-independent basis, Debye-Ang):
   XX=            -61.0864   YY=            -82.2026   ZZ=            -66.7682
   XY=            -13.3878   XZ=            -37.5635   YZ=              9.4006

  Exact polarizability: 139.006 -17.281 104.237  -1.651  -2.636 126.896
 Approx polarizability: 183.277 -21.846 159.963  10.824   7.713 207.916

                      1                      2                      3
                      A                      A                      A
 Frequencies --     32.8656                40.2182                61.9852
 Red. masses --      3.8254                 4.3469                 7.2615
 Frc consts  --      0.0024                 0.0041                 0.0164
 IR Inten    --     11.7772                 1.9729                11.9762

                      4                      5                      6
                      A                      A                      A
 Frequencies --     68.4900                81.6908               114.1862
 Red. masses --      4.1486                 5.6692                 4.6853
 Frc consts  --      0.0115                 0.0223                 0.0360
 IR Inten    --      4.2896                 5.8678                 3.5082

                      7                      8                      9
                      A                      A                      A
 Frequencies --    148.9623               161.1144               176.6423
 Red. masses --      5.4075                 6.3935                 6.7289
 Frc consts  --      0.0707                 0.0978                 0.1237
 IR Inten    --     22.2205                 4.1244                12.6056

                     10                     11                     12
                      A                      A                      A
 Frequencies --    220.9751               251.0117               277.2661
 Red. masses --      3.8965                 2.6947                 5.7065
 Frc consts  --      0.1121                 0.1000                 0.2585
 IR Inten    --     76.8175                11.2663                10.1524

                     13                     14                     15
                      A                      A                      A
 Frequencies --    318.6518               336.3919               344.1473
 Red. masses --      3.2082                 1.1727                 3.1390
 Frc consts  --      0.1919                 0.0782                 0.2190
 IR Inten    --      9.3701                 0.3811                 5.5820

                     16                     17                     18
                      A                      A                      A
 Frequencies --    379.6394               421.1789               441.9526
 Red. masses --      3.4327                 3.8573                 2.5000
 Frc consts  --      0.2915                 0.4032                 0.2877
 IR Inten    --     13.1562                38.0779                 3.0875

                     19                     20                     21
                      A                      A                      A
 Frequencies --    509.1672               514.7767               530.2612
 Red. masses --      1.1754                 1.2382                 1.7446
 Frc consts  --      0.1795                 0.1933                 0.2890
 IR Inten    --     44.4550                37.5909                75.9666

                     22                     23                     24
                      A                      A                      A
 Frequencies --    545.0833               629.7551               650.1903
 Red. masses --      2.0725                 4.4920                 3.1932
 Frc consts  --      0.3628                 1.0496                 0.7954
 IR Inten    --     61.6868                 6.0329                 6.9851

                     25                     26                     27
                      A                      A                      A
 Frequencies --    677.1342               694.7656               708.8096
 Red. masses --      3.0766                 3.6632                 4.5181
 Frc consts  --      0.8311                 1.0418                 1.3374
 IR Inten    --      2.7913                 9.7236                15.1789

                     28                     29                     30
                      A                      A                      A
 Frequencies --    738.4023               776.6097               838.3655
 Red. masses --      2.5382                 5.6480                 3.1080
 Frc consts  --      0.8154                 2.0070                 1.2871
 IR Inten    --      2.1590                 2.1019                 1.6762

                     31                     32                     33
                      A                      A                      A
 Frequencies --    839.4509               847.2984               865.9002
 Red. masses --      1.3622                 1.6399                 1.9471
 Frc consts  --      0.5656                 0.6936                 0.8601
 IR Inten    --     22.3617                10.5696                 7.0807

                     34                     35                     36
                      A                      A                      A
 Frequencies --    877.1005               926.8214               932.6251
 Red. masses --      2.1451                 5.9401                 2.5956
 Frc consts  --      0.9723                 3.0063                 1.3301
 IR Inten    --     15.7482                 9.1285                 6.8938

                     37                     38                     39
                      A                      A                      A
 Frequencies --    951.4461               958.2298              1003.7669
 Red. masses --      1.3486                 3.1713                 2.7884
 Frc consts  --      0.7193                 1.7157                 1.6553
 IR Inten    --      9.9136                 4.8794                11.2691

                     40                     41                     42
                      A                      A                      A
 Frequencies --   1013.2450              1042.7613              1094.9669
 Red. masses --      3.6252                 2.9776                 1.5452
 Frc consts  --      2.1928                 1.9076                 1.0915
 IR Inten    --     14.2990                 5.3345                 3.0707

                     43                     44                     45
                      A                      A                      A
 Frequencies --   1113.1088              1118.6778              1145.2053
 Red. masses --      1.6757                 1.3517                 1.9346
 Frc consts  --      1.2233                 0.9966                 1.4949
 IR Inten    --     22.6393                 5.4598                23.7618

                     46                     47                     48
                      A                      A                      A
 Frequencies --   1160.3922              1197.0349              1210.2469
 Red. masses --      1.9529                 1.5344                 1.6207
 Frc consts  --      1.5493                 1.2954                 1.3986
 IR Inten    --     15.3547                24.0616                38.5383

                     49                     50                     51
                      A                      A                      A
 Frequencies --   1242.6487              1267.7179              1280.1475
 Red. masses --      1.6514                 1.8149                 1.4992
 Frc consts  --      1.5025                 1.7185                 1.4475
 IR Inten    --     77.9892                 4.5121                20.0857

                     52                     53                     54
                      A                      A                      A
 Frequencies --   1286.5608              1309.1879              1334.9519
 Red. masses --      1.5626                 1.4105                 1.4051
 Frc consts  --      1.5239                 1.4244                 1.4754
 IR Inten    --     34.5028                62.7652               110.9419

                     55                     56                     57
                      A                      A                      A
 Frequencies --   1347.1635              1359.7236              1386.9531
 Red. masses --      1.5515                 1.5751                 1.4032
 Frc consts  --      1.6590                 1.7157                 1.5903
 IR Inten    --    120.8673                20.4531                 2.8541

                     58                     59                     60
                      A                      A                      A
 Frequencies --   1400.8666              1409.9645              1412.3357
 Red. masses --      3.4068                 2.0718                 1.2988
 Frc consts  --      3.9391                 2.4267                 1.5264
 IR Inten    --      9.0513               154.6520                 2.5657

                     61                     62                     63
                      A                      A                      A
 Frequencies --   1441.8530              1485.0884              1488.6674
 Red. masses --      2.9184                 1.0981                 1.1716
 Frc consts  --      3.5747                 1.4269                 1.5298
 IR Inten    --     28.2338                14.8462                15.2302

                     64                     65                     66
                      A                      A                      A
 Frequencies --   1506.0623              1513.4607              1524.8755
 Red. masses --      1.0791                 3.3922                 2.2960
 Frc consts  --      1.4422                 4.5780                 3.1454
 IR Inten    --     18.0484                55.2916               312.2303

                     67                     68                     69
                      A                      A                      A
 Frequencies --   1586.7137              1611.9342              1674.3764
 Red. masses --      1.1542                 4.2307                 1.0504
 Frc consts  --      1.7121                 6.4767                 1.7350
 IR Inten    --    112.4712                 6.8851                51.0984

                     70                     71                     72
                      A                      A                      A
 Frequencies --   1686.9165              1773.5533              1800.4549
 Red. masses --      1.0413                 8.7574                 8.9901
 Frc consts  --      1.7459                16.2298                17.1704
 IR Inten    --     35.2645               211.4977               420.9216

                     73                     74                     75
                      A                      A                      A
 Frequencies --   2786.8710              3039.1794              3058.2909
 Red. masses --      1.0904                 1.0850                 1.0621
 Frc consts  --      4.9896                 5.9045                 5.8530
 IR Inten    --   1310.2944                10.8948                13.8118

                     76                     77                     78
                      A                      A                      A
 Frequencies --   3071.8775              3107.7698              3112.9268
 Red. masses --      1.0635                 1.1031                 1.0609
 Frc consts  --      5.9130                 6.2772                 6.0571
 IR Inten    --      6.8780                 6.2853                 2.3555

                     79                     80                     81
                      A                      A                      A
 Frequencies --   3132.4391              3179.4767              3239.3379
 Red. masses --      1.1020                 1.1119                 1.0962
 Frc consts  --      6.3706                 6.6224                 6.7771
 IR Inten    --      2.5061                 0.2646                 4.1596

                     82                     83                     84
                      A                      A                      A
 Frequencies --   3269.1407              3454.2415              3518.5001
 Red. masses --      1.0982                 1.0541                 1.0929
 Frc consts  --      6.9149                 7.4102                 7.9715
 IR Inten    --      0.6737                82.3737                70.5877

                     85                     86                     87
                      A                      A                      A
 Frequencies --   3556.0648              3651.7880              3787.3655
 Red. masses --      1.0795                 1.0816                 1.0665
 Frc consts  --      8.0426                 8.4979                 9.0129
 IR Inten    --    177.4727                57.4652                70.2672

 - Thermochemistry -
 -------------------
 Temperature   298.150 Kelvin.  Pressure   1.00000 Atm.
 Atom     1 has atomic number  8 and mass  15.99491

 Molecular mass:   227.11442 amu.
 Principal axes and moments of inertia in atomic units:
                           1         2         3
     Eigenvalues --  2319.715565439.988466608.62415
           X            0.98117  -0.08125   0.17521
           Y           -0.19278  -0.46718   0.86289
           Z           -0.01175   0.88042   0.47405
 This molecule is an asymmetric top.
 Rotational symmetry number  1.
 Warning -- assumption of classical behavior for rotation
           may cause significant error
 Rotational temperatures (Kelvin)      0.03734     0.01592     0.01311
 Rotational constants (GHZ):           0.77800     0.33175     0.27309
 Zero-point vibrational energy     682388.3 (Joules/Mol)
                                  163.09472 (Kcal/Mol)
 Warning -- explicit consideration of  22 degrees of freedom as
           vibrations may cause significant error
 Vibrational temperatures:     47.29    57.86    89.18    98.54   117.53
          (Kelvin)            164.29   214.32   231.81   254.15   317.93
                              361.15   398.92   458.47   483.99   495.15
                              546.22   605.98   635.87   732.58   740.65
                              762.93   784.25   906.08   935.48   974.24
                              999.61  1019.82  1062.39  1117.37  1206.22
                             1207.78  1219.07  1245.84  1261.95  1333.49
                             1341.84  1368.92  1378.68  1444.19  1457.83
                             1500.30  1575.41  1601.51  1609.53  1647.69
                             1669.54  1722.26  1741.27  1787.89  1823.96
                             1841.84  1851.07  1883.63  1920.70  1938.27
                             1956.34  1995.51  2015.53  2028.62  2032.03
                             2074.50  2136.71  2141.86  2166.89  2177.53
                             2193.95  2282.92  2319.21  2409.05  2427.09
                             2551.74  2590.45  4009.68  4372.70  4400.19
                             4419.74  4471.38  4478.80  4506.88  4574.55
                             4660.68  4703.56  4969.88  5062.33  5116.38
                             5254.10  5449.17

 Zero-point correction=                           0.259908 (Hartree/Particle)
 Thermal correction to Energy=                    0.275467
 Thermal correction to Enthalpy=                  0.276411
 Thermal correction to Gibbs Free Energy=         0.215728
 Sum of electronic and zero-point Energies=           -796.234880
 Sum of electronic and thermal Energies=              -796.219321
 Sum of electronic and thermal Enthalpies=            -796.218377
 Sum of electronic and thermal Free Energies=         -796.279060

                     E (Thermal)             CV                S
                      KCal/Mol        Cal/Mol-Kelvin    Cal/Mol-Kelvin
 Total                  172.858             58.193            127.719
 Electronic               0.000              0.000              0.000
 Translational            0.889              2.981             42.163
 Rotational               0.889              2.981             32.789
 Vibrational            171.080             52.232             52.766
 Vibration     1          0.594              1.983              5.648
 Vibration     2          0.594              1.981              5.248
 Vibration     3          0.597              1.972              4.393
 Vibration     4          0.598              1.969              4.196
 Vibration     5          0.600              1.962              3.850
 Vibration     6          0.607              1.938              3.196
 Vibration     7          0.618              1.904              2.685
 Vibration     8          0.622              1.890              2.537
 Vibration     9          0.628              1.871              2.364
 Vibration    10          0.648              1.809              1.951
 Vibration    11          0.663              1.761              1.723
 Vibration    12          0.678              1.716              1.550
 Vibration    13          0.705              1.638              1.317
 Vibration    14          0.717              1.603              1.229
 Vibration    15          0.723              1.587              1.193
 Vibration    16          0.750              1.514              1.041
 Vibration    17          0.784              1.424              0.888
 Vibration    18          0.802              1.379              0.820
 Vibration    19          0.864              1.230              0.636
 Vibration    20          0.870              1.217              0.622
 Vibration    21          0.885              1.183              0.587
 Vibration    22          0.900              1.150              0.554

 Optimization completed.
    -- Stationary point found.
 Normal termination of Gaussian 09 at Wed Jul 28 23:18:27 2021.
