 Gaussian 09, Revision D.01,
 Gaussian 09:  ES64L-G09RevD.01 24-Apr-2013

 ----------------------------------------------------------------------
 # B3LYP/6-31G(d,p) opt=calcfc freq=noraman nosymm integral(ultrafinegr
 id)
 ----------------------------------------------------------------------

 ------------------------------------------------------------
 Candidate Structure: Conf:580 OPT and FREQ calc in gas phase
 ------------------------------------------------------------
 Symbolic Z-matrix:
 Charge =  1 Multiplicity = 1

 SCF Done:  E(RB3LYP) =  -796.471846543     A.U. after   17 cycles
 SCF Done:  E(RB3LYP) =  -796.478106612     A.U. after   14 cycles
 SCF Done:  E(RB3LYP) =  -796.479088345     A.U. after   15 cycles
 SCF Done:  E(RB3LYP) =  -796.455602884     A.U. after   14 cycles
 SCF Done:  E(RB3LYP) =  -796.479138703     A.U. after   10 cycles
 SCF Done:  E(RB3LYP) =  -796.479509510     A.U. after   12 cycles
 SCF Done:  E(RB3LYP) =  -796.479557788     A.U. after   12 cycles
 SCF Done:  E(RB3LYP) =  -796.479580969     A.U. after   11 cycles
 SCF Done:  E(RB3LYP) =  -796.479588158     A.U. after   10 cycles
 SCF Done:  E(RB3LYP) =  -796.479590408     A.U. after   10 cycles
 SCF Done:  E(RB3LYP) =  -796.479768761     A.U. after   12 cycles
 SCF Done:  E(RB3LYP) =  -796.438213969     A.U. after   15 cycles
 SCF Done:  E(RB3LYP) =  -796.479775714     A.U. after   10 cycles
 SCF Done:  E(RB3LYP) =  -796.479628427     A.U. after   12 cycles
 SCF Done:  E(RB3LYP) =  -796.479738673     A.U. after   12 cycles
 SCF Done:  E(RB3LYP) =  -796.479779606     A.U. after   11 cycles
 SCF Done:  E(RB3LYP) =  -796.479781440     A.U. after   10 cycles
 SCF Done:  E(RB3LYP) =  -796.479781599     A.U. after    8 cycles
 SCF Done:  E(RB3LYP) =  -796.479781610     A.U. after    6 cycles
 Optimization completed.
    -- Stationary point found.
 Normal termination of Gaussian 09 at Wed Jul 28 23:12:24 2021.

 ----------------------------------------------------------------------
 #N Geom=AllCheck Guess=TCheck SCRF=Check GenChk RB3LYP/6-31G(d,p) Freq
 ----------------------------------------------------------------------

 Structure from the checkpoint file:  "conf-580.chk"
 ------------------------------------------------------------
 Candidate Structure: Conf:580 OPT and FREQ calc in gas phase
 ------------------------------------------------------------
 Charge =  1 Multiplicity = 1

                          Input orientation:
 ---------------------------------------------------------------------
 Center     Atomic      Atomic             Coordinates (Angstroms)
 Number     Number       Type             X           Y           Z
 ---------------------------------------------------------------------
      1          8           0        1.307964    0.265243   -1.223258
      2          6           0        1.462629    0.321677   -0.005473
      3          7           0        0.466910    0.391599    0.893422
      4          6           0       -0.943514    0.393860    0.515400
      5          6           0       -1.689041    0.972190    1.712894
      6          8           0       -2.893888    1.437387    1.384358
      7          8           0       -1.223452    0.981388    2.835708
      8          6           0       -1.431036   -1.050758    0.164329
      9          6           0       -2.837053   -1.157079   -0.319341
     10          6           0       -3.980704   -1.629638    0.281924
     11          7           0       -5.065454   -1.520784   -0.554805
     12          6           0       -4.595246   -0.987189   -1.660030
     13          7           0       -3.252221   -0.742754   -1.575122
     14          6           0        2.891264    0.293310    0.588559
     15          6           0        3.833594    0.849540   -0.469576
     16          7           0        5.289335    0.509453   -0.157737
     17          1           0        0.635188    0.462774    1.892144
     18          1           0       -1.080456    1.044026   -0.352793
     19          1           0       -3.341174    1.726001    2.199785
     20          1           0       -1.315767   -1.673516    1.057063
     21          1           0       -0.727940   -1.429054   -0.586737
     22          1           0       -4.075073   -2.048739    1.275048
     23          1           0       -5.168275   -0.759040   -2.548176
     24          1           0       -2.667853   -0.371742   -2.309514
     25          1           0        3.133347   -0.755665    0.808303
     26          1           0        2.949978    0.853678    1.527295
     27          1           0        3.596350    0.415947   -1.442106
     28          1           0        3.784957    1.937195   -0.545652
     29          1           0        5.919646    0.873780   -0.880843
     30          1           0        5.588277    0.903071    0.741209
     31          1           0        5.428901   -0.506013   -0.109088
 ---------------------------------------------------------------------

 SCF Done:  E(RB3LYP) =  -796.479781610     A.U. after    1 cycles

 Alpha  occ. eigenvalues --  -19.30245 -19.25020 -19.24928 -14.66643 -14.49030
 Alpha  occ. eigenvalues --  -14.46130 -14.37577 -10.43215 -10.43031 -10.42996
 Alpha  occ. eigenvalues --  -10.37251 -10.35409 -10.30561 -10.30340 -10.29278
 Alpha  occ. eigenvalues --  -10.26509  -1.21490  -1.20494  -1.17010  -1.12643
 Alpha  occ. eigenvalues --   -1.08050  -1.05532  -0.96354  -0.93827  -0.90037
 Alpha  occ. eigenvalues --   -0.84845  -0.82256  -0.78901  -0.78273  -0.76713
 Alpha  occ. eigenvalues --   -0.73279  -0.70478  -0.68993  -0.68123  -0.65892
 Alpha  occ. eigenvalues --   -0.64777  -0.63456  -0.61393  -0.59958  -0.58984
 Alpha  occ. eigenvalues --   -0.57909  -0.57317  -0.56349  -0.55031  -0.53204
 Alpha  occ. eigenvalues --   -0.52829  -0.51827  -0.50284  -0.49818  -0.48848
 Alpha  occ. eigenvalues --   -0.47621  -0.47208  -0.46482  -0.42425  -0.39599
 Alpha  occ. eigenvalues --   -0.38752  -0.38382  -0.34685  -0.32939  -0.29333
 Alpha virt. eigenvalues --   -0.16831  -0.11913  -0.09990  -0.09877  -0.09535
 Alpha virt. eigenvalues --   -0.07033  -0.04794  -0.03769  -0.02670  -0.01438
 Alpha virt. eigenvalues --   -0.01157  -0.00542   0.00271   0.01639   0.02669

 Mulliken charges:
               1
     1  O   -0.518699
     2  C    0.625625
     3  N   -0.536817
     4  C    0.010697
     5  C    0.594074
     6  O   -0.453591
     7  O   -0.472951
     8  C   -0.256472
     9  C    0.294815
    10  C   -0.006635
    11  N   -0.429844
    12  C    0.269321
    13  N   -0.539231
    14  C   -0.309258
    15  C   -0.127851
    16  N   -0.547543
    17  H    0.291013
    18  H    0.157196
    19  H    0.345923
    20  H    0.134027
    21  H    0.139856
    22  H    0.096566
    23  H    0.128278
    24  H    0.267900
    25  H    0.161251
    26  H    0.151466
    27  H    0.223132
    28  H    0.197734
    29  H    0.374165
    30  H    0.368023
    31  H    0.367831
 Sum of Mulliken charges =   1.00000

 Dipole moment (field-independent basis, Debye):
    X=             21.9562    Y=              3.7797    Z=              0.0889  Tot=             22.2793
 Quadrupole moment (field-independent basis, Debye-Ang):
   XX=             20.1437   YY=            -87.2840   ZZ=            -83.4501
   XY=              1.1984   XZ=              1.1286   YZ=              0.2460

  Exact polarizability: 169.885   9.828  84.395   4.244  -1.562 121.114
 Approx polarizability: 213.327   8.448 125.842   5.158 -11.454 206.129

                      1                      2                      3
                      A                      A                      A
 Frequencies --     18.0701                31.7712                46.7105
 Red. masses --      5.3911                 4.1168                 2.2271
 Frc consts  --      0.0010                 0.0024                 0.0029
 IR Inten    --      0.7401                 4.5181                13.5057

                      4                      5                      6
                      A                      A                      A
 Frequencies --     52.8868                67.3717                74.6725
 Red. masses --      3.6198                 5.3053                 6.1654
 Frc consts  --      0.0060                 0.0142                 0.0203
 IR Inten    --      3.2471                 5.5090                 4.7895

                      7                      8                      9
                      A                      A                      A
 Frequencies --     77.4256               108.0954               116.6135
 Red. masses --      5.9772                 4.0021                 4.4690
 Frc consts  --      0.0211                 0.0276                 0.0358
 IR Inten    --      7.9623                 3.1001                10.1374

                     10                     11                     12
                      A                      A                      A
 Frequencies --    180.2835               218.2674               239.8012
 Red. masses --      5.1251                 2.0180                 1.5758
 Frc consts  --      0.0981                 0.0566                 0.0534
 IR Inten    --      4.4690                10.9949                 2.4885

                     13                     14                     15
                      A                      A                      A
 Frequencies --    262.0178               322.3731               330.5872
 Red. masses --      5.1872                 6.2798                 2.1480
 Frc consts  --      0.2098                 0.3845                 0.1383
 IR Inten    --     13.5219                 6.6804                 4.4275

                     16                     17                     18
                      A                      A                      A
 Frequencies --    341.9317               367.4288               386.8927
 Red. masses --      6.6492                 3.7845                 3.8403
 Frc consts  --      0.4580                 0.3010                 0.3387
 IR Inten    --     14.3192                 6.2487                 8.4340

                     19                     20                     21
                      A                      A                      A
 Frequencies --    513.9191               531.3945               560.0655
 Red. masses --      1.4268                 3.4496                 2.1076
 Frc consts  --      0.2220                 0.5739                 0.3895
 IR Inten    --     71.8342                62.3923                20.9687

                     22                     23                     24
                      A                      A                      A
 Frequencies --    619.9220               630.5797               657.1805
 Red. masses --      1.2935                 4.5253                 1.5752
 Frc consts  --      0.2929                 1.0602                 0.4008
 IR Inten    --     98.0932                13.7040                43.1478

                     25                     26                     27
                      A                      A                      A
 Frequencies --    662.8019               678.2482               714.0560
 Red. masses --      2.4074                 3.1000                 3.7032
 Frc consts  --      0.6231                 0.8402                 1.1125
 IR Inten    --     29.0598                 4.6411                 1.1557

                     28                     29                     30
                      A                      A                      A
 Frequencies --    752.9499               766.0612               795.4891
 Red. masses --      3.3114                 3.5730                 1.4002
 Frc consts  --      1.1061                 1.2354                 0.5221
 IR Inten    --     29.2209                 7.8958                16.6332

                     31                     32                     33
                      A                      A                      A
 Frequencies --    814.4216               819.1723               858.4393
 Red. masses --      2.0414                 1.5010                 1.4084
 Frc consts  --      0.7977                 0.5935                 0.6115
 IR Inten    --     12.9988                 8.4407                15.2798

                     34                     35                     36
                      A                      A                      A
 Frequencies --    883.5521               917.2852               928.3228
 Red. masses --      2.6899                 1.2896                 5.8142
 Frc consts  --      1.2372                 0.6393                 2.9522
 IR Inten    --     37.5715                 4.5696                 6.5842

                     37                     38                     39
                      A                      A                      A
 Frequencies --    934.3110               983.9235               997.5270
 Red. masses --      3.7364                 2.0554                 3.5707
 Frc consts  --      1.9217                 1.1724                 2.0934
 IR Inten    --     27.3362                13.4876                26.7315

                     40                     41                     42
                      A                      A                      A
 Frequencies --   1020.1512              1032.8070              1083.4726
 Red. masses --      3.0635                 3.2797                 2.0538
 Frc consts  --      1.8784                 2.0612                 1.4205
 IR Inten    --     27.5842                 3.4611                30.9406

                     43                     44                     45
                      A                      A                      A
 Frequencies --   1109.5219              1113.3454              1147.8862
 Red. masses --      2.0886                 1.6225                 2.4045
 Frc consts  --      1.5148                 1.1850                 1.8667
 IR Inten    --     30.0185                22.0450                 9.2187

                     46                     47                     48
                      A                      A                      A
 Frequencies --   1158.4066              1171.8916              1203.7838
 Red. masses --      1.9098                 1.4457                 1.9602
 Frc consts  --      1.5099                 1.1698                 1.6736
 IR Inten    --     20.6542                21.3888               131.6838

                     49                     50                     51
                      A                      A                      A
 Frequencies --   1237.0482              1271.6628              1282.8451
 Red. masses --      1.4524                 2.2518                 1.3912
 Frc consts  --      1.3095                 2.1455                 1.3489
 IR Inten    --      9.1144                 7.7015                 4.1270

                     52                     53                     54
                      A                      A                      A
 Frequencies --   1290.1028              1300.9815              1323.1418
 Red. masses --      1.3073                 1.3486                 1.2598
 Frc consts  --      1.2820                 1.3448                 1.2994
 IR Inten    --      1.8416                 2.4821                19.8510

                     55                     56                     57
                      A                      A                      A
 Frequencies --   1333.5424              1354.9213              1366.9883
 Red. masses --      1.4040                 1.3470                 1.4184
 Frc consts  --      1.4710                 1.4570                 1.5617
 IR Inten    --      1.9119                 5.5179                22.8239

                     58                     59                     60
                      A                      A                      A
 Frequencies --   1396.5929              1405.2429              1444.6565
 Red. masses --      3.4252                 1.3449                 2.9693
 Frc consts  --      3.9362                 1.5648                 3.6512
 IR Inten    --     12.1350                18.5571                46.1252

                     61                     62                     63
                      A                      A                      A
 Frequencies --   1449.3113              1489.8497              1492.3155
 Red. masses --      3.0721                 1.1155                 1.1208
 Frc consts  --      3.8020                 1.4588                 1.4707
 IR Inten    --    159.5758                 0.6865                12.2539

                     64                     65                     66
                      A                      A                      A
 Frequencies --   1513.3937              1513.7180              1518.8954
 Red. masses --      1.0950                 3.5422                 1.1748
 Frc consts  --      1.4776                 4.7820                 1.5969
 IR Inten    --     19.6410                23.4925               189.2382

                     67                     68                     69
                      A                      A                      A
 Frequencies --   1552.2863              1622.4572              1669.7071
 Red. masses --      2.4682                 4.5117                 1.0430
 Frc consts  --      3.5041                 6.9975                 1.7132
 IR Inten    --    311.3884                 7.1290                54.6830

                     70                     71                     72
                      A                      A                      A
 Frequencies --   1673.5563              1772.3911              1825.9877
 Red. masses --      1.0441                10.3100                 9.7865
 Frc consts  --      1.7230                19.0822                19.2253
 IR Inten    --     44.3907               290.3481               248.4252

                     73                     74                     75
                      A                      A                      A
 Frequencies --   3038.9860              3052.3843              3099.1073
 Red. masses --      1.0641                 1.0618                 1.0925
 Frc consts  --      5.7902                 5.8288                 6.1821
 IR Inten    --      3.8380                14.2657                 4.7074

                     76                     77                     78
                      A                      A                      A
 Frequencies --   3102.7402              3113.0813              3115.8726
 Red. masses --      1.1005                 1.0956                 1.0601
 Frc consts  --      6.2419                 6.2560                 6.0639
 IR Inten    --      5.3768                 5.8674                 3.9790

                     79                     80                     81
                      A                      A                      A
 Frequencies --   3181.6508              3248.1447              3264.4816
 Red. masses --      1.1118                 1.0964                 1.0975
 Frc consts  --      6.6311                 6.8156                 6.8913
 IR Inten    --      3.5342                 5.4418                 0.6560

                     82                     83                     84
                      A                      A                      A
 Frequencies --   3399.5066              3491.8591              3493.4890
 Red. masses --      1.0303                 1.0935                 1.0938
 Frc consts  --      7.0155                 7.8559                 7.8651
 IR Inten    --     53.8822                95.4667                94.3521

                     85                     86                     87
                      A                      A                      A
 Frequencies --   3563.2207              3655.9019              3738.9361
 Red. masses --      1.0785                 1.0813                 1.0644
 Frc consts  --      8.0677                 8.5149                 8.7671
 IR Inten    --    115.3069                43.3245                96.5987

 - Thermochemistry -
 -------------------
 Temperature   298.150 Kelvin.  Pressure   1.00000 Atm.
 Atom     1 has atomic number  8 and mass  15.99491

 Molecular mass:   227.11442 amu.
 Principal axes and moments of inertia in atomic units:
                           1         2         3
     Eigenvalues --  1740.800188027.021499184.47812
           X            0.98340  -0.11186  -0.14288
           Y            0.17834   0.45049   0.87479
           Z            0.03349   0.88575  -0.46296
 This molecule is an asymmetric top.
 Rotational symmetry number  1.
 Warning -- assumption of classical behavior for rotation
           may cause significant error
 Rotational temperatures (Kelvin)      0.04976     0.01079     0.00943
 Rotational constants (GHZ):           1.03673     0.22483     0.19650
 Zero-point vibrational energy     681662.4 (Joules/Mol)
                                  162.92121 (Kcal/Mol)
 Warning -- explicit consideration of  22 degrees of freedom as
           vibrations may cause significant error
 Vibrational temperatures:     26.00    45.71    67.21    76.09    96.93
          (Kelvin)            107.44   111.40   155.52   167.78   259.39
                              314.04   345.02   376.98   463.82   475.64
                              491.96   528.65   556.65   739.41   764.56
                              805.81   891.93   907.26   945.53   953.62
                              975.85  1027.37  1083.33  1102.19  1144.53
                             1171.77  1178.60  1235.10  1271.23  1319.77
                             1335.65  1344.26  1415.64  1435.22  1467.77
                             1485.98  1558.87  1596.35  1601.85  1651.55
                             1666.69  1686.09  1731.97  1779.83  1829.64
                             1845.73  1856.17  1871.82  1903.70  1918.67
                             1949.43  1966.79  2009.38  2021.83  2078.54
                             2085.23  2143.56  2147.11  2177.43  2177.90
                             2185.35  2233.39  2334.35  2402.33  2407.87
                             2550.07  2627.19  4372.42  4391.69  4458.92
                             4464.15  4479.02  4483.04  4577.68  4673.35
                             4696.85  4891.13  5024.00  5026.35  5126.67
                             5260.02  5379.49

 Zero-point correction=                           0.259631 (Hartree/Particle)
 Thermal correction to Energy=                    0.276118
 Thermal correction to Enthalpy=                  0.277062
 Thermal correction to Gibbs Free Energy=         0.212127
 Sum of electronic and zero-point Energies=           -796.220150
 Sum of electronic and thermal Energies=              -796.203663
 Sum of electronic and thermal Enthalpies=            -796.202719
 Sum of electronic and thermal Free Energies=         -796.267655

                     E (Thermal)             CV                S
                      KCal/Mol        Cal/Mol-Kelvin    Cal/Mol-Kelvin
 Total                  173.267             59.051            136.668
 Electronic               0.000              0.000              0.000
 Translational            0.889              2.981             42.163
 Rotational               0.889              2.981             33.217
 Vibrational            171.489             53.090             61.287
 Vibration     1          0.593              1.986              6.836
 Vibration     2          0.594              1.983              5.716
 Vibration     3          0.595              1.979              4.952
 Vibration     4          0.596              1.976              4.706
 Vibration     5          0.598              1.970              4.229
 Vibration     6          0.599              1.966              4.026
 Vibration     7          0.599              1.964              3.955
 Vibration     8          0.606              1.943              3.303
 Vibration     9          0.608              1.936              3.156
 Vibration    10          0.629              1.866              2.325
 Vibration    11          0.646              1.813              1.973
 Vibration    12          0.657              1.780              1.804
 Vibration    13          0.669              1.742              1.648
 Vibration    14          0.707              1.631              1.298
 Vibration    15          0.713              1.614              1.257
 Vibration    16          0.721              1.592              1.203
 Vibration    17          0.740              1.539              1.091
 Vibration    18          0.755              1.498              1.012
 Vibration    19          0.869              1.219              0.624
 Vibration    20          0.886              1.181              0.584
 Vibration    21          0.916              1.118              0.524
 Vibration    22          0.980              0.990              0.417

 Optimization completed.
    -- Stationary point found.
 Normal termination of Gaussian 09 at Wed Jul 28 23:31:07 2021.
