 Gaussian 09, Revision D.01,
 Gaussian 09:  ES64L-G09RevD.01 24-Apr-2013

 ----------------------------------------------------------------------
 # B3LYP/6-31G(d,p) opt=calcfc freq=noraman nosymm integral(ultrafinegr
 id)
 ----------------------------------------------------------------------

 ------------------------------------------------------------
 Candidate Structure: Conf:214 OPT and FREQ calc in gas phase
 ------------------------------------------------------------
 Symbolic Z-matrix:
 Charge =  1 Multiplicity = 1

 SCF Done:  E(RB3LYP) =  -796.463867746     A.U. after   14 cycles
 SCF Done:  E(RB3LYP) =  -796.469525957     A.U. after   12 cycles
 SCF Done:  E(RB3LYP) =  -796.470294535     A.U. after   12 cycles
 SCF Done:  E(RB3LYP) =  -796.470475506     A.U. after   12 cycles
 SCF Done:  E(RB3LYP) =  -796.470506051     A.U. after   10 cycles
 SCF Done:  E(RB3LYP) =  -796.470509395     A.U. after   11 cycles
 SCF Done:  E(RB3LYP) =  -796.470510527     A.U. after    9 cycles
 SCF Done:  E(RB3LYP) =  -796.470510577     A.U. after    8 cycles
 SCF Done:  E(RB3LYP) =  -796.470510585     A.U. after    7 cycles
 Optimization completed.
    -- Stationary point found.
 Normal termination of Gaussian 09 at Wed Jul 28 22:31:33 2021.

 ----------------------------------------------------------------------
 #N Geom=AllCheck Guess=TCheck SCRF=Check GenChk RB3LYP/6-31G(d,p) Freq
 ----------------------------------------------------------------------

 Structure from the checkpoint file:  "conf-214.chk"
 ------------------------------------------------------------
 Candidate Structure: Conf:214 OPT and FREQ calc in gas phase
 ------------------------------------------------------------
 Charge =  1 Multiplicity = 1

                          Input orientation:
 ---------------------------------------------------------------------
 Center     Atomic      Atomic             Coordinates (Angstroms)
 Number     Number       Type             X           Y           Z
 ---------------------------------------------------------------------
      1          8           0       -1.147757   -0.785995   -1.145241
      2          6           0       -1.063676   -0.396773    0.014775
      3          7           0       -0.025184   -0.639029    0.843744
      4          6           0        1.087963   -1.499176    0.471173
      5          6           0        1.190433   -2.595799    1.546537
      6          8           0        1.930018   -3.675626    1.245243
      7          8           0        0.678942   -2.468195    2.633265
      8          6           0        2.435805   -0.733954    0.399103
      9          6           0        2.440314    0.404546   -0.574694
     10          6           0        1.711289    0.696105   -1.705928
     11          7           0        2.119854    1.886913   -2.265657
     12          6           0        3.094428    2.315006   -1.495393
     13          7           0        3.326947    1.461231   -0.452938
     14          6           0       -2.170423    0.505828    0.602139
     15          6           0       -3.420849    0.318438   -0.246447
     16          7           0       -4.408472    1.464782   -0.043539
     17          1           0       -0.135237   -0.512118    1.844015
     18          1           0        0.848677   -1.931428   -0.505410
     19          1           0        2.224149   -3.665872    0.322036
     20          1           0        2.667477   -0.365717    1.407561
     21          1           0        3.224398   -1.461569    0.159436
     22          1           0        0.906937    0.120200   -2.140507
     23          1           0        3.663901    3.223530   -1.635051
     24          1           0        4.039839    1.565445    0.254270
     25          1           0       -1.805142    1.539914    0.535807
     26          1           0       -2.352354    0.284424    1.659189
     27          1           0       -3.961700   -0.597861   -0.004134
     28          1           0       -3.153745    0.301493   -1.303843
     29          1           0       -3.984340    2.364541   -0.296120
     30          1           0       -5.243453    1.342559   -0.627217
     31          1           0       -4.719054    1.534267    0.931635
 ---------------------------------------------------------------------

 SCF Done:  E(RB3LYP) =  -796.470510585     A.U. after    1 cycles

 Alpha  occ. eigenvalues --  -19.30503 -19.25283 -19.24590 -14.66326 -14.49127
 Alpha  occ. eigenvalues --  -14.47408 -14.38995 -10.43168 -10.43016 -10.42882
 Alpha  occ. eigenvalues --  -10.37058 -10.36201 -10.31842 -10.31841 -10.30837
 Alpha  occ. eigenvalues --  -10.27665  -1.21152  -1.20184  -1.17265  -1.13057
 Alpha  occ. eigenvalues --   -1.09389  -1.05811  -0.96141  -0.95090  -0.90881
 Alpha  occ. eigenvalues --   -0.84999  -0.82474  -0.78588  -0.78211  -0.76566
 Alpha  occ. eigenvalues --   -0.73276  -0.71452  -0.69494  -0.68731  -0.67173
 Alpha  occ. eigenvalues --   -0.66803  -0.64394  -0.62037  -0.60342  -0.59638
 Alpha  occ. eigenvalues --   -0.58217  -0.56175  -0.55830  -0.54711  -0.54257
 Alpha  occ. eigenvalues --   -0.53060  -0.51787  -0.51485  -0.50707  -0.49421
 Alpha  occ. eigenvalues --   -0.48824  -0.48278  -0.47474  -0.42360  -0.39638
 Alpha  occ. eigenvalues --   -0.39090  -0.37962  -0.36044  -0.34413  -0.30719
 Alpha virt. eigenvalues --   -0.16507  -0.11804  -0.10005  -0.09633  -0.09354
 Alpha virt. eigenvalues --   -0.06929  -0.06088  -0.04556  -0.03769  -0.02555
 Alpha virt. eigenvalues --   -0.01422  -0.00714  -0.00484   0.01183   0.02686

 Mulliken charges:
               1
     1  O   -0.506405
     2  C    0.633297
     3  N   -0.501280
     4  C   -0.079184
     5  C    0.622854
     6  O   -0.456442
     7  O   -0.444093
     8  C   -0.237144
     9  C    0.286887
    10  C   -0.033069
    11  N   -0.442978
    12  C    0.265171
    13  N   -0.538366
    14  C   -0.313126
    15  C   -0.127559
    16  N   -0.547953
    17  H    0.285625
    18  H    0.164099
    19  H    0.338123
    20  H    0.126867
    21  H    0.133084
    22  H    0.110881
    23  H    0.130826
    24  H    0.272582
    25  H    0.167673
    26  H    0.154017
    27  H    0.198742
    28  H    0.225826
    29  H    0.369132
    30  H    0.374399
    31  H    0.367514
 Sum of Mulliken charges =   1.00000

 Dipole moment (field-independent basis, Debye):
    X=            -13.5377    Y=              5.6977    Z=              2.3609  Tot=             14.8763
 Quadrupole moment (field-independent basis, Debye-Ang):
   XX=             15.3823   YY=            -77.4840   ZZ=           -105.1481
   XY=            -26.8611   XZ=              1.7601   YZ=             13.6320

  Exact polarizability: 130.816  -1.513 119.910   4.966 -16.157 113.369
 Approx polarizability: 172.121   1.861 170.468  18.045 -10.636 199.383

                      1                      2                      3
                      A                      A                      A
 Frequencies --     19.7531                32.6309                46.6026
 Red. masses --      4.6108                 1.7959                 3.8343
 Frc consts  --      0.0011                 0.0011                 0.0049
 IR Inten    --     13.3047                 4.1880                 8.1465

                      4                      5                      6
                      A                      A                      A
 Frequencies --     51.7558                64.4424                85.2966
 Red. masses --      5.2921                 6.0653                 5.4769
 Frc consts  --      0.0084                 0.0148                 0.0235
 IR Inten    --      6.3270                 7.8589                21.5661

                      7                      8                      9
                      A                      A                      A
 Frequencies --     96.8926               100.1055               123.3685
 Red. masses --      5.9622                 3.6869                 4.7607
 Frc consts  --      0.0330                 0.0218                 0.0427
 IR Inten    --      6.4708                 2.9353                13.8751

                     10                     11                     12
                      A                      A                      A
 Frequencies --    172.1276               221.9102               245.0871
 Red. masses --      6.9278                 1.6991                 1.8418
 Frc consts  --      0.1209                 0.0493                 0.0652
 IR Inten    --      4.1986                13.5385                10.4240

                     13                     14                     15
                      A                      A                      A
 Frequencies --    250.6154               285.2385               325.0753
 Red. masses --      4.5970                 2.9906                 4.1287
 Frc consts  --      0.1701                 0.1434                 0.2571
 IR Inten    --      0.2534                 8.5600                13.1025

                     16                     17                     18
                      A                      A                      A
 Frequencies --    345.7390               379.7304               441.2968
 Red. masses --      4.2605                 3.4373                 2.8023
 Frc consts  --      0.3001                 0.2920                 0.3215
 IR Inten    --     14.7468                 8.4012                41.7487

                     19                     20                     21
                      A                      A                      A
 Frequencies --    493.5131               524.2041               534.5571
 Red. masses --      1.2795                 1.5295                 2.1769
 Frc consts  --      0.1836                 0.2476                 0.3665
 IR Inten    --     85.6745                69.2955                48.1412

                     22                     23                     24
                      A                      A                      A
 Frequencies --    543.6973               612.2382               651.2269
 Red. masses --      2.4550                 1.9516                 2.5917
 Frc consts  --      0.4276                 0.4310                 0.6476
 IR Inten    --     37.3914                12.0602                21.1836

                     25                     26                     27
                      A                      A                      A
 Frequencies --    658.5333               678.9039               682.7833
 Red. masses --      6.4687                 3.2349                 4.4328
 Frc consts  --      1.6528                 0.8785                 1.2176
 IR Inten    --      8.6591                 1.5512                13.8593

                     28                     29                     30
                      A                      A                      A
 Frequencies --    712.4288               779.0164               795.5494
 Red. masses --      4.3426                 5.1943                 1.3254
 Frc consts  --      1.2986                 1.8573                 0.4942
 IR Inten    --      6.3605                 3.5395                15.9694

                     31                     32                     33
                      A                      A                      A
 Frequencies --    818.3984               865.7928               880.6546
 Red. masses --      1.3685                 1.4561                 1.9906
 Frc consts  --      0.5400                 0.6431                 0.9096
 IR Inten    --     14.3343                18.9505                41.5188

                     34                     35                     36
                      A                      A                      A
 Frequencies --    899.4063               906.8763               918.1814
 Red. masses --      2.7623                 3.7025                 1.2960
 Frc consts  --      1.3166                 1.7941                 0.6437
 IR Inten    --     11.3128                 7.1373                 4.2324

                     37                     38                     39
                      A                      A                      A
 Frequencies --    932.6821               968.7476               993.7747
 Red. masses --      5.7702                 2.9123                 2.3154
 Frc consts  --      2.9574                 1.6103                 1.3473
 IR Inten    --     13.3142                16.7947                16.4263

                     40                     41                     42
                      A                      A                      A
 Frequencies --   1026.4521              1049.9110              1092.3162
 Red. masses --      3.8401                 3.0974                 1.6288
 Frc consts  --      2.3838                 2.0116                 1.1450
 IR Inten    --      9.6599                14.1727                11.1274

                     43                     44                     45
                      A                      A                      A
 Frequencies --   1113.9719              1120.4822              1149.9714
 Red. masses --      2.3014                 1.6722                 2.3461
 Frc consts  --      1.6826                 1.2370                 1.8279
 IR Inten    --     25.9852                27.6360                 4.6010

                     46                     47                     48
                      A                      A                      A
 Frequencies --   1158.0109              1182.2316              1213.9519
 Red. masses --      2.1597                 1.6192                 1.6460
 Frc consts  --      1.7064                 1.3334                 1.4292
 IR Inten    --     20.5058                14.4088                13.3792

                     49                     50                     51
                      A                      A                      A
 Frequencies --   1246.7274              1253.9093              1286.7074
 Red. masses --      1.5407                 1.6048                 1.3554
 Frc consts  --      1.4110                 1.4866                 1.3221
 IR Inten    --     12.7118                87.4879                61.5991

                     52                     53                     54
                      A                      A                      A
 Frequencies --   1289.7010              1301.1003              1321.4219
 Red. masses --      1.3117                 1.4694                 1.2398
 Frc consts  --      1.2854                 1.4656                 1.2755
 IR Inten    --      8.5829                 5.6589                24.0081

                     55                     56                     57
                      A                      A                      A
 Frequencies --   1335.8979              1355.1296              1366.4028
 Red. masses --      2.1713                 1.3583                 1.9918
 Frc consts  --      2.2831                 1.4697                 2.1911
 IR Inten    --    214.1159                30.0995                24.7300

                     58                     59                     60
                      A                      A                      A
 Frequencies --   1395.3420              1406.6885              1419.0945
 Red. masses --      1.8547                 1.3686                 2.2475
 Frc consts  --      2.1276                 1.5956                 2.6666
 IR Inten    --    190.0845                28.6966                23.5346

                     61                     62                     63
                      A                      A                      A
 Frequencies --   1444.8484              1488.9021              1494.6594
 Red. masses --      2.9068                 1.1206                 1.2263
 Frc consts  --      3.5753                 1.4637                 1.6141
 IR Inten    --     18.6268                 1.0691                22.8406

                     64                     65                     66
                      A                      A                      A
 Frequencies --   1512.8161              1516.2674              1519.3886
 Red. masses --      1.0747                 3.1083                 1.1719
 Frc consts  --      1.4491                 4.2105                 1.5940
 IR Inten    --     14.0854                11.2709               166.5358

                     67                     68                     69
                      A                      A                      A
 Frequencies --   1561.4262              1618.7707              1670.3545
 Red. masses --      2.0288                 4.1736                 1.0432
 Frc consts  --      2.9142                 6.4436                 1.7148
 IR Inten    --    247.3881                10.2719                53.0933

                     70                     71                     72
                      A                      A                      A
 Frequencies --   1673.3632              1776.8753              1862.8033
 Red. masses --      1.0439                 9.8004                10.0261
 Frc consts  --      1.7222                18.2310                20.4983
 IR Inten    --     43.6859               224.1371               200.5002

                     73                     74                     75
                      A                      A                      A
 Frequencies --   3016.2176              3039.7559              3051.2184
 Red. masses --      1.0619                 1.0636                 1.0999
 Frc consts  --      5.6921                 5.7906                 6.0333
 IR Inten    --     32.5769                 2.6761                10.7778

                     76                     77                     78
                      A                      A                      A
 Frequencies --   3096.9630              3100.3083              3117.7609
 Red. masses --      1.0855                 1.1010                 1.0601
 Frc consts  --      6.1339                 6.2349                 6.0713
 IR Inten    --      7.8574                 4.3455                 3.7083

                     79                     80                     81
                      A                      A                      A
 Frequencies --   3183.3445              3264.0659              3268.4446
 Red. masses --      1.1118                 1.0955                 1.0984
 Frc consts  --      6.6381                 6.8770                 6.9137
 IR Inten    --      3.6117                 0.9009                 0.7642

                     82                     83                     84
                      A                      A                      A
 Frequencies --   3399.5519              3491.2154              3494.3405
 Red. masses --      1.0304                 1.0935                 1.0938
 Frc consts  --      7.0158                 7.8531                 7.8691
 IR Inten    --     50.3778                95.8027                94.2667

                     85                     86                     87
                      A                      A                      A
 Frequencies --   3581.7513              3652.6004              3791.1400
 Red. masses --      1.0772                 1.0814                 1.0665
 Frc consts  --      8.1418                 8.5007                 9.0311
 IR Inten    --     73.1079                55.9199                53.7538

 - Thermochemistry -
 -------------------
 Temperature   298.150 Kelvin.  Pressure   1.00000 Atm.
 Atom     1 has atomic number  8 and mass  15.99491

 Molecular mass:   227.11442 amu.
 Principal axes and moments of inertia in atomic units:
                           1         2         3
     Eigenvalues --  3621.404314831.459367651.64723
           X            0.99347   0.06276   0.09524
           Y           -0.10543   0.82402   0.55666
           Z           -0.04354  -0.56307   0.82526
 This molecule is an asymmetric top.
 Rotational symmetry number  1.
 Warning -- assumption of classical behavior for rotation
           may cause significant error
 Rotational temperatures (Kelvin)      0.02392     0.01793     0.01132
 Rotational constants (GHZ):           0.49835     0.37354     0.23586
 Zero-point vibrational energy     681353.5 (Joules/Mol)
                                  162.84739 (Kcal/Mol)
 Warning -- explicit consideration of  23 degrees of freedom as
           vibrations may cause significant error
 Vibrational temperatures:     28.42    46.95    67.05    74.46    92.72
          (Kelvin)            122.72   139.41   144.03   177.50   247.65
                              319.28   352.63   360.58   410.39   467.71
                              497.44   546.35   634.93   710.05   754.21
                              769.11   782.26   880.87   936.97   947.48
                              976.79   982.37  1025.02  1120.83  1144.62
                             1177.49  1245.68  1267.06  1294.04  1304.79
                             1321.06  1341.92  1393.81  1429.82  1476.83
                             1510.59  1571.60  1602.76  1612.12  1654.55
                             1666.12  1700.97  1746.60  1793.76  1804.09
                             1851.28  1855.59  1871.99  1901.23  1922.06
                             1949.73  1965.95  2007.58  2023.91  2041.76
                             2078.81  2142.20  2150.48  2176.60  2181.57
                             2186.06  2246.54  2329.05  2403.26  2407.59
                             2556.52  2680.16  4339.66  4373.53  4390.02
                             4455.83  4460.65  4485.76  4580.12  4696.26
                             4702.56  4891.19  5023.07  5027.57  5153.33
                             5255.27  5454.60

 Zero-point correction=                           0.259514 (Hartree/Particle)
 Thermal correction to Energy=                    0.276045
 Thermal correction to Enthalpy=                  0.276990
 Thermal correction to Gibbs Free Energy=         0.212209
 Sum of electronic and zero-point Energies=           -796.210997
 Sum of electronic and thermal Energies=              -796.194465
 Sum of electronic and thermal Enthalpies=            -796.193521
 Sum of electronic and thermal Free Energies=         -796.258301

                     E (Thermal)             CV                S
                      KCal/Mol        Cal/Mol-Kelvin    Cal/Mol-Kelvin
 Total                  173.221             59.298            136.342
 Electronic               0.000              0.000              0.000
 Translational            0.889              2.981             42.163
 Rotational               0.889              2.981             33.259
 Vibrational            171.444             53.337             60.919
 Vibration     1          0.593              1.986              6.659
 Vibration     2          0.594              1.983              5.663
 Vibration     3          0.595              1.979              4.957
 Vibration     4          0.596              1.977              4.749
 Vibration     5          0.597              1.971              4.316
 Vibration     6          0.601              1.959              3.765
 Vibration     7          0.603              1.951              3.516
 Vibration     8          0.604              1.949              3.452
 Vibration     9          0.610              1.930              3.047
 Vibration    10          0.626              1.877              2.412
 Vibration    11          0.648              1.808              1.943
 Vibration    12          0.660              1.771              1.766
 Vibration    13          0.663              1.762              1.726
 Vibration    14          0.683              1.701              1.502
 Vibration    15          0.709              1.625              1.284
 Vibration    16          0.724              1.584              1.186
 Vibration    17          0.750              1.513              1.040
 Vibration    18          0.801              1.380              0.823
 Vibration    19          0.849              1.264              0.675
 Vibration    20          0.879              1.196              0.600
 Vibration    21          0.890              1.174              0.577
 Vibration    22          0.899              1.153              0.557
 Vibration    23          0.971              1.006              0.429

 Optimization completed.
    -- Stationary point found.
 Normal termination of Gaussian 09 at Wed Jul 28 22:52:01 2021.
