 Gaussian 09, Revision D.01,
 Gaussian 09:  ES64L-G09RevD.01 24-Apr-2013

 ----------------------------------------------------------------------
 # B3LYP/6-31G(d,p) opt=calcfc freq=noraman nosymm integral(ultrafinegr
 id)
 ----------------------------------------------------------------------

 ------------------------------------------------------------
 Candidate Structure: Conf:318 OPT and FREQ calc in gas phase
 ------------------------------------------------------------
 Symbolic Z-matrix:
 Charge =  1 Multiplicity = 1

 SCF Done:  E(RB3LYP) =  -796.463756674     A.U. after   15 cycles
 SCF Done:  E(RB3LYP) =  -796.469774358     A.U. after   14 cycles
 SCF Done:  E(RB3LYP) =  -796.469782795     A.U. after   15 cycles
 SCF Done:  E(RB3LYP) =  -796.469770212     A.U. after   14 cycles
 SCF Done:  E(RB3LYP) =  -796.470385595     A.U. after   14 cycles
 SCF Done:  E(RB3LYP) =  -796.470507203     A.U. after   12 cycles
 SCF Done:  E(RB3LYP) =  -796.470537100     A.U. after   11 cycles
 SCF Done:  E(RB3LYP) =  -796.470558292     A.U. after   11 cycles
 SCF Done:  E(RB3LYP) =  -796.470612911     A.U. after   12 cycles
 SCF Done:  E(RB3LYP) =  -796.470637342     A.U. after   11 cycles
 SCF Done:  E(RB3LYP) =  -796.470644788     A.U. after   10 cycles
 SCF Done:  E(RB3LYP) =  -796.470645655     A.U. after    9 cycles
 SCF Done:  E(RB3LYP) =  -796.470646052     A.U. after    9 cycles
 SCF Done:  E(RB3LYP) =  -796.470646243     A.U. after    9 cycles
 SCF Done:  E(RB3LYP) =  -796.470646310     A.U. after    8 cycles
 SCF Done:  E(RB3LYP) =  -796.470646315     A.U. after    7 cycles
 Optimization completed.
    -- Stationary point found.
 Normal termination of Gaussian 09 at Wed Jul 28 22:45:18 2021.

 ----------------------------------------------------------------------
 #N Geom=AllCheck Guess=TCheck SCRF=Check GenChk RB3LYP/6-31G(d,p) Freq
 ----------------------------------------------------------------------

 Structure from the checkpoint file:  "conf-318.chk"
 ------------------------------------------------------------
 Candidate Structure: Conf:318 OPT and FREQ calc in gas phase
 ------------------------------------------------------------
 Charge =  1 Multiplicity = 1

                          Input orientation:
 ---------------------------------------------------------------------
 Center     Atomic      Atomic             Coordinates (Angstroms)
 Number     Number       Type             X           Y           Z
 ---------------------------------------------------------------------
      1          8           0        1.040178    0.592672    1.575275
      2          6           0        1.033399   -0.269008    0.700681
      3          7           0        0.093488   -1.217437    0.545595
      4          6           0       -1.168413   -1.253036    1.268519
      5          6           0       -1.940715   -2.450508    0.677735
      6          8           0       -3.088007   -2.785538    1.279823
      7          8           0       -1.532732   -3.067902   -0.279016
      8          6           0       -1.967712    0.076384    1.212316
      9          6           0       -2.123297    0.662724   -0.158721
     10          6           0       -1.993371    0.171051   -1.439960
     11          7           0       -2.224961    1.154697   -2.375820
     12          6           0       -2.503652    2.234174   -1.680627
     13          7           0       -2.449728    1.996675   -0.335283
     14          6           0        2.150038   -0.301649   -0.366899
     15          6           0        3.337013    0.486983    0.164393
     16          7           0        4.306888    0.842644   -0.960373
     17          1           0        0.129066   -1.881381   -0.223702
     18          1           0       -0.976803   -1.469971    2.328418
     19          1           0       -3.273490   -2.227010    2.049517
     20          1           0       -2.947449   -0.097997    1.681294
     21          1           0       -1.442974    0.787930    1.857173
     22          1           0       -1.764813   -0.841245   -1.741391
     23          1           0       -2.751889    3.205325   -2.086216
     24          1           0       -2.642102    2.665159    0.396444
     25          1           0        1.737468    0.170209   -1.269708
     26          1           0        2.423370   -1.330294   -0.624756
     27          1           0        3.916422   -0.068447    0.903723
     28          1           0        2.999007    1.421532    0.613611
     29          1           0        4.682574    0.003992   -1.416424
     30          1           0        5.101937    1.388643   -0.610607
     31          1           0        3.841214    1.400871   -1.684811
 ---------------------------------------------------------------------

 SCF Done:  E(RB3LYP) =  -796.470646315     A.U. after    1 cycles

 Alpha  occ. eigenvalues --  -19.30877 -19.25117 -19.24938 -14.66276 -14.48685
 Alpha  occ. eigenvalues --  -14.47842 -14.39482 -10.43576 -10.42864 -10.42831
 Alpha  occ. eigenvalues --  -10.36757 -10.36716 -10.32322 -10.31884 -10.31316
 Alpha  occ. eigenvalues --  -10.28321  -1.21691  -1.20134  -1.16871  -1.13568
 Alpha  occ. eigenvalues --   -1.09867  -1.05596  -0.96036  -0.95549  -0.90920
 Alpha  occ. eigenvalues --   -0.85157  -0.82623  -0.78532  -0.78457  -0.77335
 Alpha  occ. eigenvalues --   -0.73714  -0.70438  -0.69897  -0.68611  -0.67574
 Alpha  occ. eigenvalues --   -0.66861  -0.64204  -0.63162  -0.59917  -0.59484
 Alpha  occ. eigenvalues --   -0.58012  -0.56820  -0.55973  -0.54854  -0.54196
 Alpha  occ. eigenvalues --   -0.53690  -0.52564  -0.51147  -0.50414  -0.49595
 Alpha  occ. eigenvalues --   -0.49060  -0.48451  -0.48355  -0.42686  -0.39233
 Alpha  occ. eigenvalues --   -0.38792  -0.38564  -0.36475  -0.34873  -0.31190
 Alpha virt. eigenvalues --   -0.16465  -0.11629  -0.10325  -0.09605  -0.09213
 Alpha virt. eigenvalues --   -0.06909  -0.06732  -0.04585  -0.03537  -0.02768
 Alpha virt. eigenvalues --   -0.01368  -0.00860  -0.00545   0.01334   0.01675

 Mulliken charges:
               1
     1  O   -0.518882
     2  C    0.638216
     3  N   -0.539540
     4  C   -0.026233
     5  C    0.633373
     6  O   -0.455421
     7  O   -0.449581
     8  C   -0.267868
     9  C    0.290843
    10  C   -0.037832
    11  N   -0.439604
    12  C    0.262982
    13  N   -0.532802
    14  C   -0.319381
    15  C   -0.125143
    16  N   -0.547716
    17  H    0.297058
    18  H    0.158096
    19  H    0.337346
    20  H    0.118180
    21  H    0.160305
    22  H    0.103787
    23  H    0.131270
    24  H    0.273772
    25  H    0.171132
    26  H    0.155932
    27  H    0.198155
    28  H    0.219371
    29  H    0.368290
    30  H    0.373047
    31  H    0.368846
 Sum of Mulliken charges =   1.00000

 Dipole moment (field-independent basis, Debye):
    X=             15.1279    Y=              4.6024    Z=              0.7285  Tot=             15.8293
 Quadrupole moment (field-independent basis, Debye-Ang):
   XX=             -1.9476   YY=            -83.0096   ZZ=            -87.8362
   XY=              4.2056   XZ=            -35.0530   YZ=             -8.8982

  Exact polarizability: 118.797   3.349 121.710  -8.581  -4.247 118.544
 Approx polarizability: 148.933  -0.977 190.173 -14.997  17.601 202.508

                      1                      2                      3
                      A                      A                      A
 Frequencies --      9.1732                39.2277                41.2846
 Red. masses --      5.2621                 2.3751                 2.6177
 Frc consts  --      0.0003                 0.0022                 0.0026
 IR Inten    --     10.8025                 3.9863                13.5934

                      4                      5                      6
                      A                      A                      A
 Frequencies --     53.8335                64.3036                87.8600
 Red. masses --      5.5719                 5.4748                 4.1713
 Frc consts  --      0.0095                 0.0133                 0.0190
 IR Inten    --     10.4894                 0.8286                 6.5782

                      7                      8                      9
                      A                      A                      A
 Frequencies --    100.0763               100.6436               155.3356
 Red. masses --      8.3142                 4.1790                 5.6864
 Frc consts  --      0.0491                 0.0249                 0.0808
 IR Inten    --     15.8053                10.0104                 1.7034

                     10                     11                     12
                      A                      A                      A
 Frequencies --    201.9384               221.2006               241.0656
 Red. masses --      4.6097                 2.2512                 1.5266
 Frc consts  --      0.1108                 0.0649                 0.0523
 IR Inten    --     18.2778                 8.5467                 5.5688

                     13                     14                     15
                      A                      A                      A
 Frequencies --    272.7440               275.4121               325.3614
 Red. masses --      3.6810                 4.6147                 3.2833
 Frc consts  --      0.1613                 0.2062                 0.2048
 IR Inten    --      0.2090                16.7331                 3.5542

                     16                     17                     18
                      A                      A                      A
 Frequencies --    340.4917               378.8282               451.4327
 Red. masses --      5.1457                 3.3556                 1.8505
 Frc consts  --      0.3515                 0.2837                 0.2222
 IR Inten    --      3.0078                27.8317                77.7806

                     19                     20                     21
                      A                      A                      A
 Frequencies --    507.4803               529.1450               562.4966
 Red. masses --      1.7586                 1.4998                 3.2132
 Frc consts  --      0.2668                 0.2474                 0.5990
 IR Inten    --     51.1513                75.5247                11.1336

                     22                     23                     24
                      A                      A                      A
 Frequencies --    575.5261               617.5139               650.8073
 Red. masses --      3.2892                 6.3025                 2.4542
 Frc consts  --      0.6419                 1.4160                 0.6125
 IR Inten    --     33.4151                 6.7309                23.3084

                     25                     26                     27
                      A                      A                      A
 Frequencies --    662.7331               680.7192               682.5947
 Red. masses --      1.4939                 2.6626                 3.7144
 Frc consts  --      0.3866                 0.7269                 1.0197
 IR Inten    --     49.4760                15.9606                 1.9065

                     28                     29                     30
                      A                      A                      A
 Frequencies --    722.0093               781.0307               806.3621
 Red. masses --      3.6469                 2.4693                 1.7036
 Frc consts  --      1.1201                 0.8875                 0.6526
 IR Inten    --      2.7454                10.4523                 4.6274

                     31                     32                     33
                      A                      A                      A
 Frequencies --    818.6576               850.8167               873.9974
 Red. masses --      1.3688                 2.6059                 1.4961
 Frc consts  --      0.5405                 1.1114                 0.6733
 IR Inten    --     13.2874                 9.1510                23.7675

                     34                     35                     36
                      A                      A                      A
 Frequencies --    882.8067               917.2199               921.8038
 Red. masses --      2.7233                 1.4440                 3.5357
 Frc consts  --      1.2505                 0.7158                 1.7701
 IR Inten    --     28.3049                 3.9237                 6.5263

                     37                     38                     39
                      A                      A                      A
 Frequencies --    942.3935               949.7116               989.0523
 Red. masses --      3.1953                 4.2880                 1.9563
 Frc consts  --      1.6719                 2.2787                 1.1275
 IR Inten    --     25.1152                14.5055                21.3955

                     40                     41                     42
                      A                      A                      A
 Frequencies --   1022.1914              1042.8408              1095.8147
 Red. masses --      3.6787                 2.3890                 1.5858
 Frc consts  --      2.2647                 1.5308                 1.1220
 IR Inten    --      7.1780                10.6504                 6.5566

                     43                     44                     45
                      A                      A                      A
 Frequencies --   1118.8110              1120.7288              1156.5237
 Red. masses --      2.1465                 1.6803                 2.3569
 Frc consts  --      1.5830                 1.2435                 1.8573
 IR Inten    --     32.4126                17.5078                 9.2851

                     46                     47                     48
                      A                      A                      A
 Frequencies --   1161.3120              1195.8176              1220.8702
 Red. masses --      2.2944                 1.6212                 1.7827
 Frc consts  --      1.8231                 1.3659                 1.5655
 IR Inten    --     17.8708                28.8561                10.4931

                     49                     50                     51
                      A                      A                      A
 Frequencies --   1238.4663              1259.5941              1279.2716
 Red. masses --      1.3490                 1.3342                 1.8846
 Frc consts  --      1.2191                 1.2472                 1.8172
 IR Inten    --     13.5103                19.0630                26.3893

                     52                     53                     54
                      A                      A                      A
 Frequencies --   1290.5825              1296.5100              1313.1150
 Red. masses --      1.3131                 1.4799                 1.4884
 Frc consts  --      1.2886                 1.4656                 1.5121
 IR Inten    --      2.0236                33.8620               177.7855

                     55                     56                     57
                      A                      A                      A
 Frequencies --   1320.3052              1348.6448              1373.0869
 Red. masses --      1.3800                 1.3895                 2.4448
 Frc consts  --      1.4173                 1.4890                 2.7158
 IR Inten    --     74.9523                78.8909                46.4408

                     58                     59                     60
                      A                      A                      A
 Frequencies --   1402.8550              1404.4980              1425.9431
 Red. masses --      1.7950                 1.4873                 2.0158
 Frc consts  --      2.0814                 1.7285                 2.4149
 IR Inten    --    108.4335                86.5775                25.8463

                     61                     62                     63
                      A                      A                      A
 Frequencies --   1442.5386              1491.9726              1493.2472
 Red. masses --      2.7956                 1.1233                 1.2497
 Frc consts  --      3.4275                 1.4732                 1.6418
 IR Inten    --     23.2650                 0.7478                22.2756

                     64                     65                     66
                      A                      A                      A
 Frequencies --   1511.8997              1517.9077              1519.1929
 Red. masses --      1.0753                 2.9566                 1.1827
 Frc consts  --      1.4481                 4.0136                 1.6082
 IR Inten    --     12.8253                 8.1064               186.2591

                     67                     68                     69
                      A                      A                      A
 Frequencies --   1552.9302              1617.3837              1669.4544
 Red. masses --      2.3792                 4.1392                 1.0428
 Frc consts  --      3.3806                 6.3796                 1.7124
 IR Inten    --    301.6601                11.7037                53.3568

                     70                     71                     72
                      A                      A                      A
 Frequencies --   1673.9468              1780.0873              1855.1389
 Red. masses --      1.0443                10.0588                 9.5808
 Frc consts  --      1.7242                18.7792                19.4269
 IR Inten    --     43.3889               253.6900               140.5709

                     73                     74                     75
                      A                      A                      A
 Frequencies --   3010.8930              3036.8755              3037.6035
 Red. masses --      1.0718                 1.0685                 1.0797
 Frc consts  --      5.7246                 5.8058                 5.8698
 IR Inten    --     37.5247                 3.0200                21.1483

                     76                     77                     78
                      A                      A                      A
 Frequencies --   3094.7580              3100.4021              3118.8141
 Red. masses --      1.0901                 1.1003                 1.0602
 Frc consts  --      6.1514                 6.2318                 6.0758
 IR Inten    --      2.2974                 4.0977                 2.8217

                     79                     80                     81
                      A                      A                      A
 Frequencies --   3183.9736              3263.2744              3266.3991
 Red. masses --      1.1115                 1.0947                 1.0992
 Frc consts  --      6.6392                 6.8682                 6.9097
 IR Inten    --      2.3743                 2.0740                 0.8755

                     82                     83                     84
                      A                      A                      A
 Frequencies --   3399.5683              3491.0631              3494.4822
 Red. masses --      1.0303                 1.0935                 1.0938
 Frc consts  --      7.0159                 7.8522                 7.8697
 IR Inten    --     47.6170                92.7929                94.4022

                     85                     86                     87
                      A                      A                      A
 Frequencies --   3534.3310              3652.6251              3791.1078
 Red. masses --      1.0781                 1.0814                 1.0663
 Frc consts  --      7.9347                 8.5008                 9.0293
 IR Inten    --    137.6656                55.1708                47.4123

 - Thermochemistry -
 -------------------
 Temperature   298.150 Kelvin.  Pressure   1.00000 Atm.
 Atom     1 has atomic number  8 and mass  15.99491

 Molecular mass:   227.11442 amu.
 Principal axes and moments of inertia in atomic units:
                           1         2         3
     Eigenvalues --  3023.959945061.111596677.04344
           X            0.97327  -0.21649  -0.07667
           Y            0.22620   0.84582   0.48315
           Z           -0.03974  -0.48757   0.87218
 This molecule is an asymmetric top.
 Rotational symmetry number  1.
 Warning -- assumption of classical behavior for rotation
           may cause significant error
 Rotational temperatures (Kelvin)      0.02864     0.01711     0.01297
 Rotational constants (GHZ):           0.59681     0.35659     0.27029
 Zero-point vibrational energy     681720.4 (Joules/Mol)
                                  162.93508 (Kcal/Mol)
 Warning -- explicit consideration of  23 degrees of freedom as
           vibrations may cause significant error
 Vibrational temperatures:     13.20    56.44    59.40    77.45    92.52
          (Kelvin)            126.41   143.99   144.80   223.49   290.54
                              318.26   346.84   392.42   396.26   468.12
                              489.89   545.05   649.51   730.15   761.32
                              809.31   828.05   888.46   936.37   953.52
                              979.40   982.10  1038.81  1123.73  1160.17
                             1177.86  1224.13  1257.49  1270.16  1319.67
                             1326.27  1355.89  1366.42  1423.02  1470.70
                             1500.41  1576.63  1609.72  1612.48  1663.98
                             1670.87  1720.51  1756.56  1781.87  1812.27
                             1840.58  1856.86  1865.39  1889.28  1899.62
                             1940.40  1975.56  2018.39  2020.76  2051.61
                             2075.49  2146.61  2148.45  2175.28  2183.93
                             2185.78  2234.32  2327.05  2401.97  2408.43
                             2561.15  2669.13  4332.00  4369.38  4370.43
                             4452.66  4460.78  4487.27  4581.02  4695.12
                             4699.61  4891.21  5022.85  5027.77  5085.11
                             5255.31  5454.55

 Zero-point correction=                           0.259654 (Hartree/Particle)
 Thermal correction to Energy=                    0.276016
 Thermal correction to Enthalpy=                  0.276960
 Thermal correction to Gibbs Free Energy=         0.212205
 Sum of electronic and zero-point Energies=           -796.210993
 Sum of electronic and thermal Energies=              -796.194631
 Sum of electronic and thermal Enthalpies=            -796.193686
 Sum of electronic and thermal Free Energies=         -796.258441

                     E (Thermal)             CV                S
                      KCal/Mol        Cal/Mol-Kelvin    Cal/Mol-Kelvin
 Total                  173.202             59.017            136.288
 Electronic               0.000              0.000              0.000
 Translational            0.889              2.981             42.163
 Rotational               0.889              2.981             32.991
 Vibrational            171.425             53.055             61.134
 Vibration     1          0.593              1.987              8.183
 Vibration     2          0.594              1.981              5.298
 Vibration     3          0.594              1.981              5.196
 Vibration     4          0.596              1.976              4.671
 Vibration     5          0.597              1.971              4.321
 Vibration     6          0.601              1.958              3.707
 Vibration     7          0.604              1.949              3.453
 Vibration     8          0.604              1.949              3.442
 Vibration     9          0.620              1.897              2.606
 Vibration    10          0.639              1.837              2.115
 Vibration    11          0.648              1.809              1.949
 Vibration    12          0.658              1.777              1.795
 Vibration    13          0.676              1.724              1.579
 Vibration    14          0.677              1.719              1.562
 Vibration    15          0.709              1.625              1.283
 Vibration    16          0.720              1.595              1.210
 Vibration    17          0.749              1.515              1.044
 Vibration    18          0.810              1.358              0.791
 Vibration    19          0.863              1.233              0.640
 Vibration    20          0.884              1.186              0.589
 Vibration    21          0.918              1.112              0.519
 Vibration    22          0.932              1.084              0.494
 Vibration    23          0.977              0.995              0.420

 Optimization completed.
    -- Stationary point found.
 Normal termination of Gaussian 09 at Wed Jul 28 23:06:44 2021.
