 Gaussian 09, Revision D.01,
 Gaussian 09:  ES64L-G09RevD.01 24-Apr-2013

 ----------------------------------------------------------------------
 # B3LYP/6-31G(d,p) opt=calcfc freq=noraman nosymm integral(ultrafinegr
 id)
 ----------------------------------------------------------------------

 ------------------------------------------------------------
 Candidate Structure: Conf:715 OPT and FREQ calc in gas phase
 ------------------------------------------------------------
 Symbolic Z-matrix:
 Charge =  1 Multiplicity = 1

 SCF Done:  E(RB3LYP) =  -796.485325779     A.U. after   14 cycles
 SCF Done:  E(RB3LYP) =  -796.494296383     A.U. after   14 cycles
 SCF Done:  E(RB3LYP) =  -796.488472519     A.U. after   15 cycles
 SCF Done:  E(RB3LYP) =  -796.495175709     A.U. after   11 cycles
 SCF Done:  E(RB3LYP) =  -796.461813317     A.U. after   15 cycles
 SCF Done:  E(RB3LYP) =  -796.495384356     A.U. after   10 cycles
 SCF Done:  E(RB3LYP) =  -796.497374923     A.U. after   13 cycles
 SCF Done:  E(RB3LYP) =  -796.498253280     A.U. after   13 cycles
 SCF Done:  E(RB3LYP) =  -796.498484684     A.U. after   12 cycles
 SCF Done:  E(RB3LYP) =  -796.498585907     A.U. after   11 cycles
 SCF Done:  E(RB3LYP) =  -796.498709393     A.U. after   12 cycles
 SCF Done:  E(RB3LYP) =  -796.498486173     A.U. after   12 cycles
 SCF Done:  E(RB3LYP) =  -796.498301642     A.U. after   13 cycles
 SCF Done:  E(RB3LYP) =  -796.498672146     A.U. after   12 cycles
 SCF Done:  E(RB3LYP) =  -796.498797900     A.U. after   11 cycles
 SCF Done:  E(RB3LYP) =  -796.498799827     A.U. after   10 cycles
 SCF Done:  E(RB3LYP) =  -796.498800553     A.U. after   10 cycles
 SCF Done:  E(RB3LYP) =  -796.498800653     A.U. after    7 cycles
 SCF Done:  E(RB3LYP) =  -796.498800672     A.U. after    7 cycles
 Optimization completed.
    -- Stationary point found.
 Normal termination of Gaussian 09 at Thu Jul 29 00:26:11 2021.

 ----------------------------------------------------------------------
 #N Geom=AllCheck Guess=TCheck SCRF=Check GenChk RB3LYP/6-31G(d,p) Freq
 ----------------------------------------------------------------------

 Structure from the checkpoint file:  "conf-715.chk"
 ------------------------------------------------------------
 Candidate Structure: Conf:715 OPT and FREQ calc in gas phase
 ------------------------------------------------------------
 Charge =  1 Multiplicity = 1

                          Input orientation:
 ---------------------------------------------------------------------
 Center     Atomic      Atomic             Coordinates (Angstroms)
 Number     Number       Type             X           Y           Z
 ---------------------------------------------------------------------
      1          8           0       -2.202748    1.140301   -0.282306
      2          6           0       -1.532097    0.360794    0.431670
      3          7           0       -0.231260    0.553404    0.665575
      4          6           0        0.550661    1.475474   -0.140639
      5          6           0        0.585281    0.953484   -1.596721
      6          8           0        1.180986    1.766818   -2.492658
      7          8           0        0.157358   -0.123401   -1.926116
      8          6           0        1.981821    1.600279    0.464895
      9          6           0        2.655364    0.282574    0.676009
     10          6           0        2.743960   -0.519075    1.796744
     11          7           0        3.399979   -1.693657    1.516274
     12          6           0        3.712532   -1.616819    0.241890
     13          7           0        3.281643   -0.447154   -0.320339
     14          6           0       -2.210204   -0.855191    1.055157
     15          6           0       -3.088236   -1.548670    0.002105
     16          7           0       -4.078325   -0.546991   -0.552582
     17          1           0        0.307001   -0.178074    1.124508
     18          1           0        0.061739    2.455572   -0.132668
     19          1           0        1.388386    2.635763   -2.116421
     20          1           0        2.581453    2.258848   -0.173423
     21          1           0        1.892188    2.106909    1.429873
     22          1           0        2.405283   -0.287070    2.798837
     23          1           0        4.248540   -2.365148   -0.325368
     24          1           0        3.418586   -0.165026   -1.280754
     25          1           0       -1.486487   -1.580412    1.435250
     26          1           0       -2.817330   -0.526034    1.907519
     27          1           0       -3.628119   -2.402345    0.413544
     28          1           0       -2.479534   -1.881581   -0.841292
     29          1           0       -3.485202    0.368924   -0.612541
     30          1           0       -4.440852   -0.822853   -1.467374
     31          1           0       -4.872205   -0.399629    0.074963
 ---------------------------------------------------------------------

 SCF Done:  E(RB3LYP) =  -796.498800672     A.U. after    1 cycles

 Alpha  occ. eigenvalues --  -19.32284 -19.28929 -19.26273 -14.60022 -14.51713
 Alpha  occ. eigenvalues --  -14.49566 -14.41091 -10.45674 -10.44685 -10.41692
 Alpha  occ. eigenvalues --  -10.38324 -10.37127 -10.34058 -10.34006 -10.33213
 Alpha  occ. eigenvalues --  -10.30449  -1.22854  -1.20683  -1.14832  -1.14468
 Alpha  occ. eigenvalues --   -1.11649  -1.08525  -0.97380  -0.95611  -0.92450
 Alpha  occ. eigenvalues --   -0.86012  -0.82535  -0.78720  -0.76358  -0.74516
 Alpha  occ. eigenvalues --   -0.73932  -0.72621  -0.71559  -0.69588  -0.67848
 Alpha  occ. eigenvalues --   -0.66590  -0.65371  -0.64310  -0.61393  -0.59834
 Alpha  occ. eigenvalues --   -0.58482  -0.57801  -0.56525  -0.56200  -0.55914
 Alpha  occ. eigenvalues --   -0.55376  -0.54490  -0.52971  -0.51919  -0.51398
 Alpha  occ. eigenvalues --   -0.50817  -0.50602  -0.49946  -0.44335  -0.43234
 Alpha  occ. eigenvalues --   -0.42102  -0.39773  -0.38308  -0.36379  -0.33381
 Alpha virt. eigenvalues --   -0.14673  -0.11972  -0.11753  -0.08753  -0.06688
 Alpha virt. eigenvalues --   -0.06473  -0.05318  -0.04505  -0.03042  -0.01917
 Alpha virt. eigenvalues --   -0.00959  -0.00232   0.00328   0.01221   0.01925

 Mulliken charges:
               1
     1  O   -0.565813
     2  C    0.650702
     3  N   -0.495810
     4  C   -0.057562
     5  C    0.632002
     6  O   -0.467141
     7  O   -0.448628
     8  C   -0.278659
     9  C    0.261682
    10  C   -0.027822
    11  N   -0.419342
    12  C    0.274999
    13  N   -0.527601
    14  C   -0.302690
    15  C   -0.125056
    16  N   -0.570437
    17  H    0.289035
    18  H    0.166536
    19  H    0.338305
    20  H    0.131697
    21  H    0.165336
    22  H    0.110019
    23  H    0.144876
    24  H    0.283008
    25  H    0.174406
    26  H    0.176709
    27  H    0.185341
    28  H    0.206073
    29  H    0.399782
    30  H    0.352002
    31  H    0.344052
 Sum of Mulliken charges =   1.00000

 Dipole moment (field-independent basis, Debye):
    X=            -10.0499    Y=              0.7561    Z=             -0.7093  Tot=             10.1032
 Quadrupole moment (field-independent basis, Debye-Ang):
   XX=            -23.6517   YY=            -77.7059   ZZ=            -90.5927
   XY=             22.7714   XZ=             -7.2629   YZ=              1.6572

  Exact polarizability: 136.672  -4.211 118.552   0.612  -8.709 110.712
 Approx polarizability: 173.863 -10.383 192.623  -0.652 -15.671 179.690

                      1                      2                      3
                      A                      A                      A
 Frequencies --     21.3417                22.9474                53.2127
 Red. masses --      4.2759                 6.3872                 5.5637
 Frc consts  --      0.0011                 0.0020                 0.0093
 IR Inten    --     14.7471                 3.1262                 2.9635

                      4                      5                      6
                      A                      A                      A
 Frequencies --     60.5250                68.2887                83.5607
 Red. masses --      4.9964                 4.4130                 4.5690
 Frc consts  --      0.0108                 0.0121                 0.0188
 IR Inten    --     14.8265                 7.3626                 6.3129

                      7                      8                      9
                      A                      A                      A
 Frequencies --    117.9829               131.7667               203.4315
 Red. masses --      7.3602                 4.4226                 4.4650
 Frc consts  --      0.0604                 0.0452                 0.1089
 IR Inten    --      3.9375                 6.6785                 4.7282

                     10                     11                     12
                      A                      A                      A
 Frequencies --    219.1030               241.8966               326.8885
 Red. masses --      2.5730                 5.2709                 4.0665
 Frc consts  --      0.0728                 0.1817                 0.2560
 IR Inten    --     24.1987                18.8006                11.6429

                     13                     14                     15
                      A                      A                      A
 Frequencies --    333.8811               342.7383               380.0979
 Red. masses --      3.4622                 2.6372                 3.1151
 Frc consts  --      0.2274                 0.1825                 0.2652
 IR Inten    --     10.4564                95.6495                48.8566

                     16                     17                     18
                      A                      A                      A
 Frequencies --    402.8175               461.4417               463.8127
 Red. masses --      1.2914                 2.5933                 2.1618
 Frc consts  --      0.1235                 0.3253                 0.2740
 IR Inten    --      2.4827                11.6607               171.2234

                     19                     20                     21
                      A                      A                      A
 Frequencies --    510.1554               520.7425               559.4111
 Red. masses --      1.5629                 2.7274                 1.5210
 Frc consts  --      0.2396                 0.4358                 0.2804
 IR Inten    --     30.4877                 4.0180                54.0213

                     22                     23                     24
                      A                      A                      A
 Frequencies --    593.7280               634.4541               668.5907
 Red. masses --      3.7109                 3.9831                 3.2806
 Frc consts  --      0.7707                 0.9447                 0.8640
 IR Inten    --      9.2840                 3.7463                60.9850

                     25                     26                     27
                      A                      A                      A
 Frequencies --    673.8822               689.9160               692.3944
 Red. masses --      2.1830                 2.3589                 2.0923
 Frc consts  --      0.5841                 0.6615                 0.5910
 IR Inten    --      1.9555                36.2430                14.3525

                     28                     29                     30
                      A                      A                      A
 Frequencies --    734.8992               772.1952               834.3746
 Red. masses --      3.4244                 4.9975                 2.4323
 Frc consts  --      1.0897                 1.7557                 0.9977
 IR Inten    --     20.2112                 2.0275                26.8292

                     31                     32                     33
                      A                      A                      A
 Frequencies --    840.3795               854.1839               864.2234
 Red. masses --      1.3825                 2.1841                 1.7890
 Frc consts  --      0.5753                 0.9389                 0.7873
 IR Inten    --     31.7645                 0.2330                 9.2701

                     34                     35                     36
                      A                      A                      A
 Frequencies --    892.3870               926.7324               941.5750
 Red. masses --      2.0788                 5.2156                 2.6378
 Frc consts  --      0.9754                 2.6391                 1.3779
 IR Inten    --     64.4361                14.1065                 7.5561

                     37                     38                     39
                      A                      A                      A
 Frequencies --    956.9261               962.8921               999.0431
 Red. masses --      1.3430                 2.8251                 3.1408
 Frc consts  --      0.7246                 1.5433                 1.8470
 IR Inten    --      6.1491                 4.9189                 4.4270

                     40                     41                     42
                      A                      A                      A
 Frequencies --   1013.6056              1041.5499              1111.9674
 Red. masses --      3.3198                 2.8426                 2.0750
 Frc consts  --      2.0096                 1.8169                 1.5116
 IR Inten    --     13.9511                 8.5155                 8.2960

                     43                     44                     45
                      A                      A                      A
 Frequencies --   1117.3501              1133.1454              1139.0088
 Red. masses --      1.6821                 1.4602                 1.4668
 Frc consts  --      1.2373                 1.1047                 1.1211
 IR Inten    --     19.3694                43.2161                61.1172

                     46                     47                     48
                      A                      A                      A
 Frequencies --   1159.0511              1174.5756              1213.3867
 Red. masses --      1.9253                 1.7418                 1.6589
 Frc consts  --      1.5239                 1.4158                 1.4390
 IR Inten    --     18.3185                11.3233                38.7209

                     49                     50                     51
                      A                      A                      A
 Frequencies --   1238.8403              1267.6128              1274.6609
 Red. masses --      1.4537                 1.4805                 2.1131
 Frc consts  --      1.3145                 1.4016                 2.0228
 IR Inten    --     38.4386                55.5648                12.0560

                     52                     53                     54
                      A                      A                      A
 Frequencies --   1287.5678              1294.8568              1320.4321
 Red. masses --      1.6570                 1.3249                 1.2375
 Frc consts  --      1.6185                 1.3088                 1.2713
 IR Inten    --    241.1713                26.5475               103.2206

                     55                     56                     57
                      A                      A                      A
 Frequencies --   1322.9799              1368.3932              1382.3317
 Red. masses --      1.6524                 1.5396                 1.7255
 Frc consts  --      1.7040                 1.6986                 1.9426
 IR Inten    --     54.7770                30.9596                45.9869

                     58                     59                     60
                      A                      A                      A
 Frequencies --   1397.8286              1401.6210              1412.6490
 Red. masses --      2.4523                 1.3032                 1.7735
 Frc consts  --      2.8231                 1.5084                 2.0852
 IR Inten    --     53.8763                73.2676                47.9388

                     61                     62                     63
                      A                      A                      A
 Frequencies --   1443.9656              1472.5083              1480.2298
 Red. masses --      2.8128                 1.2873                 1.1144
 Frc consts  --      3.4555                 1.6446                 1.4386
 IR Inten    --     31.1635               672.0374                72.3988

                     64                     65                     66
                      A                      A                      A
 Frequencies --   1486.5699              1513.0286              1517.5495
 Red. masses --      1.1416                 3.5903                 1.0796
 Frc consts  --      1.4864                 4.8426                 1.4649
 IR Inten    --      4.2657                24.6914                75.2300

                     67                     68                     69
                      A                      A                      A
 Frequencies --   1581.5409              1611.8686              1634.3127
 Red. masses --      2.4480                 4.1213                 1.1180
 Frc consts  --      3.6077                 6.3087                 1.7595
 IR Inten    --    237.7859                 9.6283                 4.0947

                     70                     71                     72
                      A                      A                      A
 Frequencies --   1678.8988              1723.3763              1870.9174
 Red. masses --      1.0470                 3.6317                10.6734
 Frc consts  --      1.7388                 6.3550                22.0122
 IR Inten    --     35.2349               176.7060               178.6733

                     73                     74                     75
                      A                      A                      A
 Frequencies --   2433.2602              3062.1241              3063.3664
 Red. masses --      1.1017                 1.0658                 1.0670
 Frc consts  --      3.8431                 5.8878                 5.8993
 IR Inten    --   1098.0898                15.3258                 1.0084

                     76                     77                     78
                      A                      A                      A
 Frequencies --   3083.2960              3107.1003              3117.3610
 Red. masses --      1.0847                 1.0612                 1.1003
 Frc consts  --      6.0754                 6.0359                 6.2997
 IR Inten    --      7.4902                 1.5179                 3.3033

                     79                     80                     81
                      A                      A                      A
 Frequencies --   3131.7835              3169.9388              3240.5656
 Red. masses --      1.0985                 1.1121                 1.0963
 Frc consts  --      6.3481                 6.5840                 6.7828
 IR Inten    --      0.7543                 0.3732                 3.2503

                     82                     83                     84
                      A                      A                      A
 Frequencies --   3269.1550              3466.2076              3515.9325
 Red. masses --      1.0981                 1.0525                 1.0791
 Frc consts  --      6.9144                 7.4504                 7.8592
 IR Inten    --      0.4877                91.7367               226.2919

                     85                     86                     87
                      A                      A                      A
 Frequencies --   3540.1028              3646.3768              3784.5119
 Red. masses --      1.0951                 1.0819                 1.0664
 Frc consts  --      8.0862                 8.4753                 8.9987
 IR Inten    --     74.7822                62.1767                54.3959

 - Thermochemistry -
 -------------------
 Temperature   298.150 Kelvin.  Pressure   1.00000 Atm.
 Atom     1 has atomic number  8 and mass  15.99491

 Molecular mass:   227.11442 amu.
 Principal axes and moments of inertia in atomic units:
                           1         2         3
     Eigenvalues --  2202.314465493.832526440.51771
           X            0.99400  -0.09369  -0.05637
           Y           -0.02510  -0.69729   0.71635
           Z            0.10642   0.71064   0.69546
 This molecule is an asymmetric top.
 Rotational symmetry number  1.
 Warning -- assumption of classical behavior for rotation
           may cause significant error
 Rotational temperatures (Kelvin)      0.03933     0.01577     0.01345
 Rotational constants (GHZ):           0.81947     0.32850     0.28022
 Zero-point vibrational energy     680544.1 (Joules/Mol)
                                  162.65394 (Kcal/Mol)
 Warning -- explicit consideration of  22 degrees of freedom as
           vibrations may cause significant error
 Vibrational temperatures:     30.71    33.02    76.56    87.08    98.25
          (Kelvin)            120.23   169.75   189.58   292.69   315.24
                              348.03   470.32   480.38   493.12   546.88
                              579.56   663.91   667.32   734.00   749.23
                              804.87   854.24   912.84   961.95   969.56
                              992.63   996.20  1057.35  1111.02  1200.48
                             1209.12  1228.98  1243.42  1283.94  1333.36
                             1354.71  1376.80  1385.39  1437.40  1458.35
                             1498.56  1599.87  1607.62  1630.34  1638.78
                             1667.61  1689.95  1745.79  1782.41  1823.81
                             1833.95  1852.52  1863.01  1899.80  1903.47
                             1968.81  1988.86  2011.16  2016.62  2032.48
                             2077.54  2118.61  2129.72  2138.84  2176.91
                             2183.41  2275.48  2319.12  2351.41  2415.56
                             2479.55  2691.83  3500.91  4405.71  4407.50
                             4436.17  4470.42  4485.18  4505.93  4560.83
                             4662.45  4703.58  4987.09  5058.64  5093.41
                             5246.32  5445.06

 Zero-point correction=                           0.259206 (Hartree/Particle)
 Thermal correction to Energy=                    0.274770
 Thermal correction to Enthalpy=                  0.275714
 Thermal correction to Gibbs Free Energy=         0.213574
 Sum of electronic and zero-point Energies=           -796.239595
 Sum of electronic and thermal Energies=              -796.224031
 Sum of electronic and thermal Enthalpies=            -796.223086
 Sum of electronic and thermal Free Energies=         -796.285227

                     E (Thermal)             CV                S
                      KCal/Mol        Cal/Mol-Kelvin    Cal/Mol-Kelvin
 Total                  172.421             57.715            130.786
 Electronic               0.000              0.000              0.000
 Translational            0.889              2.981             42.163
 Rotational               0.889              2.981             32.721
 Vibrational            170.643             51.753             55.901
 Vibration     1          0.593              1.985              6.505
 Vibration     2          0.593              1.985              6.361
 Vibration     3          0.596              1.976              4.694
 Vibration     4          0.597              1.973              4.440
 Vibration     5          0.598              1.969              4.202
 Vibration     6          0.600              1.960              3.805
 Vibration     7          0.608              1.934              3.133
 Vibration     8          0.612              1.922              2.920
 Vibration     9          0.639              1.835              2.102
 Vibration    10          0.647              1.812              1.966
 Vibration    11          0.658              1.776              1.789
 Vibration    12          0.711              1.622              1.275
 Vibration    13          0.715              1.608              1.241
 Vibration    14          0.722              1.590              1.199
 Vibration    15          0.750              1.513              1.039
 Vibration    16          0.768              1.464              0.952
 Vibration    17          0.819              1.336              0.762
 Vibration    18          0.821              1.330              0.755
 Vibration    19          0.865              1.227              0.633
 Vibration    20          0.876              1.204              0.608
 Vibration    21          0.915              1.119              0.525
 Vibration    22          0.951              1.045              0.461

 Optimization completed.
    -- Stationary point found.
 Normal termination of Gaussian 09 at Thu Jul 29 00:47:55 2021.
