 Gaussian 09, Revision D.01,
 Gaussian 09:  ES64L-G09RevD.01 24-Apr-2013

 ----------------------------------------------------------------------
 # B3LYP/6-31G(d,p) opt=calcfc freq=noraman nosymm integral(ultrafinegr
 id)
 ----------------------------------------------------------------------

 ------------------------------------------------------------
 Candidate Structure: Conf:301 OPT and FREQ calc in gas phase
 ------------------------------------------------------------
 Symbolic Z-matrix:
 Charge =  1 Multiplicity = 1

 SCF Done:  E(RB3LYP) =  -796.507050268     A.U. after   14 cycles
 SCF Done:  E(RB3LYP) =  -793.585349594     A.U. after   19 cycles
 SCF Done:  E(RB3LYP) =  -796.474441957     A.U. after   14 cycles
 SCF Done:  E(RB3LYP) =  -796.512557850     A.U. after   12 cycles
 SCF Done:  E(RB3LYP) =  -796.516891591     A.U. after   12 cycles
 SCF Done:  E(RB3LYP) =  -796.488747406     A.U. after   13 cycles
 SCF Done:  E(RB3LYP) =  -796.516921005     A.U. after    9 cycles
 SCF Done:  E(RB3LYP) =  -796.519749658     A.U. after   14 cycles
 SCF Done:  E(RB3LYP) =  -796.520528705     A.U. after   12 cycles
 SCF Done:  E(RB3LYP) =  -796.520754843     A.U. after   11 cycles
 SCF Done:  E(RB3LYP) =  -796.520770772     A.U. after   11 cycles
 SCF Done:  E(RB3LYP) =  -796.520875635     A.U. after   10 cycles
 SCF Done:  E(RB3LYP) =  -796.520893698     A.U. after   10 cycles
 SCF Done:  E(RB3LYP) =  -796.520900339     A.U. after    9 cycles
 SCF Done:  E(RB3LYP) =  -796.520902304     A.U. after    8 cycles
 SCF Done:  E(RB3LYP) =  -796.520903025     A.U. after    8 cycles
 SCF Done:  E(RB3LYP) =  -796.520903134     A.U. after    7 cycles
 Optimization completed.
    -- Stationary point found.
 Normal termination of Gaussian 09 at Wed Jul 28 22:55:55 2021.

 ----------------------------------------------------------------------
 #N Geom=AllCheck Guess=TCheck SCRF=Check GenChk RB3LYP/6-31G(d,p) Freq
 ----------------------------------------------------------------------

 Structure from the checkpoint file:  "conf-301.chk"
 ------------------------------------------------------------
 Candidate Structure: Conf:301 OPT and FREQ calc in gas phase
 ------------------------------------------------------------
 Charge =  1 Multiplicity = 1

                          Input orientation:
 ---------------------------------------------------------------------
 Center     Atomic      Atomic             Coordinates (Angstroms)
 Number     Number       Type             X           Y           Z
 ---------------------------------------------------------------------
      1          8           0       -0.028829   -0.233148   -1.684106
      2          6           0        0.415743    0.713761   -1.013846
      3          7           0       -0.365549    1.488335   -0.238027
      4          6           0       -1.731406    1.136844    0.107352
      5          6           0       -2.478559    2.433768    0.398447
      6          8           0       -3.802133    2.237163    0.441147
      7          8           0       -1.923134    3.487992    0.612661
      8          6           0       -1.787152    0.211600    1.383835
      9          6           0       -0.870777   -0.960071    1.267142
     10          6           0        0.485906   -1.054739    1.479180
     11          7           0        0.984856   -2.238741    0.976125
     12          6           0       -0.069720   -2.881375    0.496852
     13          7           0       -1.204841   -2.150863    0.650791
     14          6           0        1.917662    1.019933   -0.963065
     15          6           0        2.771838   -0.005607   -1.718056
     16          7           0        2.285554   -1.413537   -1.473415
     17          1           0       -0.008395    2.333917    0.193729
     18          1           0       -2.188623    0.620958   -0.739397
     19          1           0       -4.225716    3.083306    0.671846
     20          1           0       -1.490733    0.808048    2.252446
     21          1           0       -2.827175   -0.089822    1.541321
     22          1           0        1.127100   -0.335813    1.969989
     23          1           0       -0.064851   -3.867887    0.054876
     24          1           0       -2.132043   -2.434879    0.366513
     25          1           0        2.225544    1.072064    0.086058
     26          1           0        2.115514    2.007822   -1.394560
     27          1           0        2.706069    0.146276   -2.797079
     28          1           0        3.818170    0.062087   -1.417567
     29          1           0        2.831413   -2.100851   -1.995838
     30          1           0        1.287204   -1.386891   -1.788950
     31          1           0        2.227254   -1.710064   -0.470730
 ---------------------------------------------------------------------

 SCF Done:  E(RB3LYP) =  -796.520903134     A.U. after    1 cycles

 Alpha  occ. eigenvalues --  -19.32048 -19.27148 -19.26587 -14.58350 -14.52342
 Alpha  occ. eigenvalues --  -14.50417 -14.45534 -10.44729 -10.44459 -10.40415
 Alpha  occ. eigenvalues --  -10.37634 -10.37504 -10.35939 -10.35252 -10.33819
 Alpha  occ. eigenvalues --  -10.32908  -1.23144  -1.18920  -1.14716  -1.14407
 Alpha  occ. eigenvalues --   -1.13217  -1.07160  -1.00495  -0.94524  -0.92318
 Alpha  occ. eigenvalues --   -0.87726  -0.82287  -0.80105  -0.75226  -0.74600
 Alpha  occ. eigenvalues --   -0.73052  -0.72256  -0.71962  -0.70963  -0.67372
 Alpha  occ. eigenvalues --   -0.65622  -0.63615  -0.62540  -0.61098  -0.60531
 Alpha  occ. eigenvalues --   -0.59545  -0.58564  -0.57904  -0.56570  -0.55438
 Alpha  occ. eigenvalues --   -0.54942  -0.54268  -0.53760  -0.53438  -0.52813
 Alpha  occ. eigenvalues --   -0.52200  -0.50195  -0.49602  -0.44194  -0.42537
 Alpha  occ. eigenvalues --   -0.41416  -0.40997  -0.40220  -0.39973  -0.35624
 Alpha virt. eigenvalues --   -0.13241  -0.12439  -0.10350  -0.09471  -0.07963
 Alpha virt. eigenvalues --   -0.05062  -0.03903  -0.03251  -0.03009  -0.01930
 Alpha virt. eigenvalues --   -0.01494   0.00560   0.00936   0.01083   0.01600

 Mulliken charges:
               1
     1  O   -0.562084
     2  C    0.631348
     3  N   -0.513264
     4  C   -0.003920
     5  C    0.597330
     6  O   -0.471809
     7  O   -0.450520
     8  C   -0.252396
     9  C    0.309584
    10  C   -0.029277
    11  N   -0.498505
    12  C    0.267058
    13  N   -0.508057
    14  C   -0.302535
    15  C   -0.111249
    16  N   -0.562819
    17  H    0.297124
    18  H    0.174227
    19  H    0.351010
    20  H    0.150372
    21  H    0.154447
    22  H    0.113294
    23  H    0.150626
    24  H    0.292685
    25  H    0.162823
    26  H    0.186150
    27  H    0.185427
    28  H    0.180244
    29  H    0.341095
    30  H    0.368441
    31  H    0.353147
 Sum of Mulliken charges =   1.00000

 Dipole moment (field-independent basis, Debye):
    X=              2.6488    Y=             -2.1925    Z=             -3.2690  Tot=              4.7444
 Quadrupole moment (field-independent basis, Debye-Ang):
   XX=            -48.2601   YY=            -71.8826   ZZ=            -82.6814
   XY=             -6.2123   XZ=            -19.9872   YZ=              8.3710

  Exact polarizability: 137.688 -13.125 133.038 -14.071  11.897  91.728
 Approx polarizability: 204.750  -2.427 202.165  -2.154  31.541 143.514

                      1                      2                      3
                      A                      A                      A
 Frequencies --     57.1988                71.2470                98.0677
 Red. masses --     10.8853                 4.7742                 4.7994
 Frc consts  --      0.0210                 0.0143                 0.0272
 IR Inten    --      1.4021                 0.3348                 4.3742

                      4                      5                      6
                      A                      A                      A
 Frequencies --    110.1775               112.1657               123.3076
 Red. masses --      3.7589                 5.1879                 3.6352
 Frc consts  --      0.0269                 0.0385                 0.0326
 IR Inten    --      5.2437                 2.3289                15.3933

                      7                      8                      9
                      A                      A                      A
 Frequencies --    147.3991               156.0936               168.7073
 Red. masses --      4.0309                 4.4098                 4.9581
 Frc consts  --      0.0516                 0.0633                 0.0831
 IR Inten    --     13.0398                 7.0882                 5.6139

                     10                     11                     12
                      A                      A                      A
 Frequencies --    202.8007               261.8247               308.7533
 Red. masses --      2.4684                 4.6917                 5.6138
 Frc consts  --      0.0598                 0.1895                 0.3153
 IR Inten    --     30.6447                48.3958                 0.7388

                     13                     14                     15
                      A                      A                      A
 Frequencies --    312.7119               344.3050               361.3786
 Red. masses --      3.8308                 2.9235                 3.3157
 Frc consts  --      0.2207                 0.2042                 0.2551
 IR Inten    --      2.4606                 2.8834                53.3152

                     16                     17                     18
                      A                      A                      A
 Frequencies --    410.3089               427.2162               449.7542
 Red. masses --      2.6558                 1.9501                 1.7340
 Frc consts  --      0.2634                 0.2097                 0.2067
 IR Inten    --     12.2887                 5.0332                 2.1831

                     19                     20                     21
                      A                      A                      A
 Frequencies --    538.6669               550.1872               592.6761
 Red. masses --      2.0988                 3.5541                 1.6561
 Frc consts  --      0.3588                 0.6339                 0.3427
 IR Inten    --     57.1873                21.0105               130.0520

                     22                     23                     24
                      A                      A                      A
 Frequencies --    613.0404               624.4707               636.2918
 Red. masses --      1.4456                 1.5353                 3.4544
 Frc consts  --      0.3201                 0.3528                 0.8240
 IR Inten    --     26.0923                15.1972                82.0282

                     25                     26                     27
                      A                      A                      A
 Frequencies --    679.4279               688.4280               694.3174
 Red. masses --      2.3145                 2.9612                 3.0428
 Frc consts  --      0.6295                 0.8269                 0.8643
 IR Inten    --     89.9163                10.1466                 1.1584

                     28                     29                     30
                      A                      A                      A
 Frequencies --    719.7255               768.4533               821.6522
 Red. masses --      3.3411                 4.0832                 1.3847
 Frc consts  --      1.0197                 1.4207                 0.5508
 IR Inten    --      3.6425                19.6046                 8.0678

                     31                     32                     33
                      A                      A                      A
 Frequencies --    842.0220               849.4966               865.1854
 Red. masses --      1.5160                 2.1820                 2.2417
 Frc consts  --      0.6333                 0.9277                 0.9887
 IR Inten    --     29.5459                 9.9737                25.6806

                     34                     35                     36
                      A                      A                      A
 Frequencies --    879.1560               923.7059               938.1430
 Red. masses --      2.2631                 2.6208                 5.7748
 Frc consts  --      1.0306                 1.3175                 2.9945
 IR Inten    --      0.3578                16.7827                13.9094

                     37                     38                     39
                      A                      A                      A
 Frequencies --    968.9802               977.4687              1000.9123
 Red. masses --      1.5820                 2.8179                 3.0709
 Frc consts  --      0.8751                 1.5863                 1.8126
 IR Inten    --      9.1269                 9.0914                11.0172

                     40                     41                     42
                      A                      A                      A
 Frequencies --   1030.0299              1044.6973              1100.2427
 Red. masses --      3.6663                 2.9178                 2.1572
 Frc consts  --      2.2918                 1.8762                 1.5386
 IR Inten    --      3.7038                16.3298                 6.6344

                     43                     44                     45
                      A                      A                      A
 Frequencies --   1127.4691              1135.9527              1138.2782
 Red. masses --      1.3955                 1.5348                 1.8329
 Frc consts  --      1.0452                 1.1669                 1.3992
 IR Inten    --     54.3261                14.7325                82.4056

                     46                     47                     48
                      A                      A                      A
 Frequencies --   1152.1495              1177.8375              1210.3647
 Red. masses --      1.7154                 1.9244                 1.7339
 Frc consts  --      1.3416                 1.5730                 1.4966
 IR Inten    --      4.1714               195.3885                 8.2910

                     49                     50                     51
                      A                      A                      A
 Frequencies --   1250.7022              1262.5416              1282.3709
 Red. masses --      1.4519                 1.6782                 1.4073
 Frc consts  --      1.3381                 1.5761                 1.3636
 IR Inten    --     22.3139                22.4117                 2.0549

                     52                     53                     54
                      A                      A                      A
 Frequencies --   1290.3547              1291.0207              1334.6355
 Red. masses --      1.4759                 1.7587                 1.3342
 Frc consts  --      1.4479                 1.7270                 1.4002
 IR Inten    --      2.3128                 7.6722                24.4756

                     55                     56                     57
                      A                      A                      A
 Frequencies --   1345.9120              1356.8308              1390.1211
 Red. masses --      1.4192                 1.2439                 1.6636
 Frc consts  --      1.5147                 1.3492                 1.8941
 IR Inten    --     30.2438                 4.8321                37.8977

                     58                     59                     60
                      A                      A                      A
 Frequencies --   1398.8307              1426.2060              1429.6587
 Red. masses --      2.9405                 1.3620                 2.6186
 Frc consts  --      3.3900                 1.6322                 3.1535
 IR Inten    --      3.5584                13.9617               167.4666

                     61                     62                     63
                      A                      A                      A
 Frequencies --   1448.5739              1476.4888              1487.4614
 Red. masses --      2.8776                 1.0940                 1.2299
 Frc consts  --      3.5576                 1.4052                 1.6033
 IR Inten    --     27.0518                19.0823               203.3153

                     64                     65                     66
                      A                      A                      A
 Frequencies --   1496.4011              1514.2088              1517.4867
 Red. masses --      1.1355                 1.6329                 1.5921
 Frc consts  --      1.4980                 2.2058                 2.1601
 IR Inten    --     23.1612                 7.4005                43.2204

                     67                     68                     69
                      A                      A                      A
 Frequencies --   1566.3675              1620.3230              1644.8716
 Red. masses --      2.4082                 4.1708                 1.1198
 Frc consts  --      3.4813                 6.4517                 1.7850
 IR Inten    --    215.3028                 6.4946               130.0839

                     70                     71                     72
                      A                      A                      A
 Frequencies --   1698.6050              1730.9087              1845.2428
 Red. masses --      1.0973                 4.1474                10.3254
 Frc consts  --      1.8654                 7.3211                20.7140
 IR Inten    --    196.7418                92.9493               241.7086

                     73                     74                     75
                      A                      A                      A
 Frequencies --   3069.6692              3071.1597              3085.6309
 Red. masses --      1.0621                 1.0609                 1.0992
 Frc consts  --      5.8963                 5.8957                 6.1663
 IR Inten    --      1.5728                 9.6708               271.2351

                     76                     77                     78
                      A                      A                      A
 Frequencies --   3092.0318              3109.2946              3115.9351
 Red. masses --      1.0529                 1.0809                 1.0782
 Frc consts  --      5.9307                 6.1567                 6.1679
 IR Inten    --    500.7492                78.0722                16.7837

                     79                     80                     81
                      A                      A                      A
 Frequencies --   3117.2467              3130.8694              3168.1402
 Red. masses --      1.0983                 1.0924                 1.1103
 Frc consts  --      6.2881                 6.3091                 6.5658
 IR Inten    --      1.1155                 4.3157                 0.7051

                     82                     83                     84
                      A                      A                      A
 Frequencies --   3258.5273              3271.0778              3516.8520
 Red. masses --      1.0964                 1.0985                 1.0794
 Frc consts  --      6.8592                 6.9255                 7.8654
 IR Inten    --      2.1199                 1.5458               111.6419

                     85                     86                     87
                      A                      A                      A
 Frequencies --   3583.4282              3648.4951              3737.8533
 Red. masses --      1.0781                 1.0821                 1.0645
 Frc consts  --      8.1568                 8.4869                 8.7627
 IR Inten    --     99.1537                85.0759               121.4122

 - Thermochemistry -
 -------------------
 Temperature   298.150 Kelvin.  Pressure   1.00000 Atm.
 Atom     1 has atomic number  8 and mass  15.99491

 Molecular mass:   227.11442 amu.
 Principal axes and moments of inertia in atomic units:
                           1         2         3
     Eigenvalues --  2232.080944488.694645929.22602
           X            0.73170   0.47363   0.49020
           Y           -0.65230   0.69523   0.30192
           Z           -0.19780  -0.54067   0.81765
 This molecule is an asymmetric top.
 Rotational symmetry number  1.
 Warning -- assumption of classical behavior for rotation
           may cause significant error
 Rotational temperatures (Kelvin)      0.03880     0.01930     0.01461
 Rotational constants (GHZ):           0.80855     0.40206     0.30438
 Zero-point vibrational energy     684833.3 (Joules/Mol)
                                  163.67908 (Kcal/Mol)
 Warning -- explicit consideration of  22 degrees of freedom as
           vibrations may cause significant error
 Vibrational temperatures:     82.30   102.51   141.10   158.52   161.38
          (Kelvin)            177.41   212.07   224.58   242.73   291.78
                              376.71   444.23   449.92   495.38   519.94
                              590.34   614.67   647.10   775.02   791.60
                              852.73   882.03   898.47   915.48   977.54
                              990.49   998.97  1035.52  1105.63  1182.17
                             1211.48  1222.23  1244.81  1264.91  1329.01
                             1349.78  1394.14  1406.36  1440.09  1481.98
                             1503.08  1583.00  1622.17  1634.38  1637.73
                             1657.68  1694.64  1741.44  1799.48  1816.51
                             1845.04  1856.53  1857.49  1920.24  1936.46
                             1952.17  2000.07  2012.60  2051.99  2056.96
                             2084.17  2124.34  2140.12  2152.98  2178.61
                             2183.32  2253.65  2331.28  2366.60  2443.91
                             2490.39  2654.89  4416.56  4418.71  4439.53
                             4448.74  4473.58  4483.13  4485.02  4504.62
                             4558.24  4688.29  4706.35  5059.96  5155.75
                             5249.36  5377.93

 Zero-point correction=                           0.260839 (Hartree/Particle)
 Thermal correction to Energy=                    0.275885
 Thermal correction to Enthalpy=                  0.276829
 Thermal correction to Gibbs Free Energy=         0.218841
 Sum of electronic and zero-point Energies=           -796.260064
 Sum of electronic and thermal Energies=              -796.245018
 Sum of electronic and thermal Enthalpies=            -796.244074
 Sum of electronic and thermal Free Energies=         -796.302062

                     E (Thermal)             CV                S
                      KCal/Mol        Cal/Mol-Kelvin    Cal/Mol-Kelvin
 Total                  173.120             57.574            122.047
 Electronic               0.000              0.000              0.000
 Translational            0.889              2.981             42.163
 Rotational               0.889              2.981             32.452
 Vibrational            171.343             51.613             47.432
 Vibration     1          0.596              1.975              4.552
 Vibration     2          0.598              1.968              4.119
 Vibration     3          0.604              1.951              3.492
 Vibration     4          0.606              1.941              3.266
 Vibration     5          0.607              1.939              3.231
 Vibration     6          0.610              1.930              3.048
 Vibration     7          0.617              1.905              2.706
 Vibration     8          0.620              1.896              2.597
 Vibration     9          0.625              1.881              2.450
 Vibration    10          0.639              1.836              2.108
 Vibration    11          0.669              1.743              1.650
 Vibration    12          0.698              1.657              1.369
 Vibration    13          0.701              1.649              1.348
 Vibration    14          0.723              1.587              1.192
 Vibration    15          0.736              1.552              1.116
 Vibration    16          0.774              1.448              0.926
 Vibration    17          0.789              1.411              0.868
 Vibration    18          0.809              1.361              0.797
 Vibration    19          0.894              1.165              0.568
 Vibration    20          0.905              1.139              0.544
 Vibration    21          0.950              1.047              0.462
 Vibration    22          0.972              1.004              0.428

 Optimization completed.
    -- Stationary point found.
 Normal termination of Gaussian 09 at Wed Jul 28 23:19:55 2021.
