 Gaussian 09, Revision D.01,
 Gaussian 09:  ES64L-G09RevD.01 24-Apr-2013

 ----------------------------------------------------------------------
 # B3LYP/6-31G(d,p) opt=calcfc freq=noraman nosymm integral(ultrafinegr
 id)
 ----------------------------------------------------------------------

 ------------------------------------------------------------
 Candidate Structure: Conf:342 OPT and FREQ calc in gas phase
 ------------------------------------------------------------
 Symbolic Z-matrix:
 Charge =  1 Multiplicity = 1

 SCF Done:  E(RB3LYP) =  -796.467694606     A.U. after   17 cycles
 SCF Done:  E(RB3LYP) =  -796.473961211     A.U. after   12 cycles
 SCF Done:  E(RB3LYP) =  -796.474865690     A.U. after   12 cycles
 SCF Done:  E(RB3LYP) =  -796.475435753     A.U. after   12 cycles
 SCF Done:  E(RB3LYP) =  -796.476097533     A.U. after   12 cycles
 SCF Done:  E(RB3LYP) =  -796.476884689     A.U. after   12 cycles
 SCF Done:  E(RB3LYP) =  -796.477277159     A.U. after   12 cycles
 SCF Done:  E(RB3LYP) =  -796.477372406     A.U. after   12 cycles
 SCF Done:  E(RB3LYP) =  -796.477392232     A.U. after   11 cycles
 SCF Done:  E(RB3LYP) =  -796.477395204     A.U. after    9 cycles
 SCF Done:  E(RB3LYP) =  -796.477395997     A.U. after    9 cycles
 SCF Done:  E(RB3LYP) =  -796.477396128     A.U. after    7 cycles
 SCF Done:  E(RB3LYP) =  -796.477396147     A.U. after    7 cycles
 Optimization completed.
    -- Stationary point found.
 Normal termination of Gaussian 09 at Wed Jul 28 22:38:49 2021.

 ----------------------------------------------------------------------
 #N Geom=AllCheck Guess=TCheck SCRF=Check GenChk RB3LYP/6-31G(d,p) Freq
 ----------------------------------------------------------------------

 Structure from the checkpoint file:  "conf-342.chk"
 ------------------------------------------------------------
 Candidate Structure: Conf:342 OPT and FREQ calc in gas phase
 ------------------------------------------------------------
 Charge =  1 Multiplicity = 1

                          Input orientation:
 ---------------------------------------------------------------------
 Center     Atomic      Atomic             Coordinates (Angstroms)
 Number     Number       Type             X           Y           Z
 ---------------------------------------------------------------------
      1          8           0        1.070345   -1.217992    0.130652
      2          6           0        1.419562   -0.088284   -0.208826
      3          7           0        0.580617    0.914714   -0.516697
      4          6           0       -0.857007    0.719180   -0.643191
      5          6           0       -1.368039    1.926917   -1.454052
      6          8           0       -2.678154    1.998104   -1.671722
      7          8           0       -0.601376    2.768311   -1.872225
      8          6           0       -1.562452    0.567322    0.739254
      9          6           0       -2.933576   -0.023615    0.643641
     10          6           0       -4.201934    0.521460    0.709459
     11          7           0       -5.166569   -0.448229    0.560053
     12          6           0       -4.505674   -1.572537    0.406284
     13          7           0       -3.152084   -1.376963    0.440323
     14          6           0        2.922926    0.254695   -0.315897
     15          6           0        3.681240   -0.692596    0.602747
     16          7           0        5.178274   -0.680426    0.300960
     17          1           0        0.901607    1.794017   -0.918222
     18          1           0       -1.041527   -0.193448   -1.224591
     19          1           0       -3.170238    1.300356   -1.192104
     20          1           0       -1.614895    1.541928    1.233662
     21          1           0       -0.923751   -0.073937    1.354045
     22          1           0       -4.465801    1.555832    0.889140
     23          1           0       -4.944636   -2.550543    0.264348
     24          1           0       -2.439690   -2.090499    0.379268
     25          1           0        3.109340    1.304679   -0.068155
     26          1           0        3.220750    0.099608   -1.362209
     27          1           0        3.327157   -1.714691    0.462963
     28          1           0        3.581156   -0.425483    1.656190
     29          1           0        5.362302   -0.961216   -0.668798
     30          1           0        5.584502    0.252655    0.431248
     31          1           0        5.687356   -1.328375    0.912445
 ---------------------------------------------------------------------

 SCF Done:  E(RB3LYP) =  -796.477396147     A.U. after    1 cycles

 Alpha  occ. eigenvalues --  -19.29002 -19.25525 -19.24024 -14.66840 -14.49072
 Alpha  occ. eigenvalues --  -14.48325 -14.39827 -10.43495 -10.43363 -10.42513
 Alpha  occ. eigenvalues --  -10.37451 -10.35972 -10.32835 -10.31936 -10.31486
 Alpha  occ. eigenvalues --  -10.29110  -1.20695  -1.20283  -1.17378  -1.12262
 Alpha  occ. eigenvalues --   -1.10392  -1.05711  -0.96634  -0.96062  -0.90779
 Alpha  occ. eigenvalues --   -0.85687  -0.82864  -0.79091  -0.78673  -0.77222
 Alpha  occ. eigenvalues --   -0.72598  -0.70659  -0.70120  -0.69247  -0.68134
 Alpha  occ. eigenvalues --   -0.66804  -0.64603  -0.63142  -0.60291  -0.59693
 Alpha  occ. eigenvalues --   -0.57913  -0.56948  -0.56252  -0.54534  -0.54161
 Alpha  occ. eigenvalues --   -0.53373  -0.52510  -0.51317  -0.50263  -0.50061
 Alpha  occ. eigenvalues --   -0.49444  -0.48270  -0.46897  -0.41499  -0.39771
 Alpha  occ. eigenvalues --   -0.39081  -0.38044  -0.36945  -0.35040  -0.32075
 Alpha virt. eigenvalues --   -0.17007  -0.12178  -0.10110  -0.09938  -0.09338
 Alpha virt. eigenvalues --   -0.07253  -0.06925  -0.04002  -0.03380  -0.02545
 Alpha virt. eigenvalues --   -0.01673  -0.01177   0.01044   0.01562   0.02107

 Mulliken charges:
               1
     1  O   -0.525854
     2  C    0.623316
     3  N   -0.536383
     4  C   -0.031112
     5  C    0.615664
     6  O   -0.464221
     7  O   -0.458143
     8  C   -0.247962
     9  C    0.225272
    10  C   -0.030238
    11  N   -0.413513
    12  C    0.274500
    13  N   -0.521995
    14  C   -0.309542
    15  C   -0.127068
    16  N   -0.547629
    17  H    0.296912
    18  H    0.155964
    19  H    0.332999
    20  H    0.146470
    21  H    0.147605
    22  H    0.125906
    23  H    0.140577
    24  H    0.279065
    25  H    0.155568
    26  H    0.163296
    27  H    0.221094
    28  H    0.197988
    29  H    0.368345
    30  H    0.368788
    31  H    0.374332
 Sum of Mulliken charges =   1.00000

 Dipole moment (field-independent basis, Debye):
    X=             21.6905    Y=             -4.5417    Z=              2.1847  Tot=             22.2683
 Quadrupole moment (field-independent basis, Debye-Ang):
   XX=             16.0132   YY=            -88.5754   ZZ=            -92.0426
   XY=             -4.5019   XZ=              5.6614   YZ=              6.6134

  Exact polarizability: 169.372   3.470 122.029  -2.358 -10.613  83.881
 Approx polarizability: 218.327   6.032 204.057  -3.881 -13.848 126.679

                      1                      2                      3
                      A                      A                      A
 Frequencies --     29.8759                33.5993                47.8091
 Red. masses --      4.7283                 3.3564                 2.0534
 Frc consts  --      0.0025                 0.0022                 0.0028
 IR Inten    --      1.7504                 3.0047                 9.5984

                      4                      5                      6
                      A                      A                      A
 Frequencies --     60.3187                73.8558                86.7317
 Red. masses --      4.9899                 4.3107                 5.9325
 Frc consts  --      0.0107                 0.0139                 0.0263
 IR Inten    --      2.0038                 4.8320                11.9515

                      7                      8                      9
                      A                      A                      A
 Frequencies --    102.9109               110.5477               148.3604
 Red. masses --      7.7677                 6.0258                 4.1635
 Frc consts  --      0.0485                 0.0434                 0.0540
 IR Inten    --      3.1615                10.9270                 8.9501

                     10                     11                     12
                      A                      A                      A
 Frequencies --    190.7083               214.1036               237.1887
 Red. masses --      4.9970                 2.6919                 1.3318
 Frc consts  --      0.1071                 0.0727                 0.0441
 IR Inten    --      1.3054                25.1043                 3.9049

                     13                     14                     15
                      A                      A                      A
 Frequencies --    272.1052               332.2901               335.6158
 Red. masses --      5.5791                 2.2475                 5.8791
 Frc consts  --      0.2434                 0.1462                 0.3902
 IR Inten    --     14.9761                 2.1246                 4.4005

                     16                     17                     18
                      A                      A                      A
 Frequencies --    348.3176               380.1357               384.0577
 Red. masses --      5.4413                 3.6634                 4.4358
 Frc consts  --      0.3890                 0.3119                 0.3855
 IR Inten    --      6.0206                21.5403                12.3317

                     19                     20                     21
                      A                      A                      A
 Frequencies --    542.9310               550.3041               587.9045
 Red. masses --      2.3605                 1.9956                 2.4862
 Frc consts  --      0.4100                 0.3561                 0.5063
 IR Inten    --     55.8277                22.6145                 6.1749

                     22                     23                     24
                      A                      A                      A
 Frequencies --    616.3263               656.1152               662.9282
 Red. masses --      3.3038                 1.6161                 2.3763
 Frc consts  --      0.7394                 0.4099                 0.6153
 IR Inten    --     58.1784                33.9354                69.2164

                     25                     26                     27
                      A                      A                      A
 Frequencies --    672.3935               684.7642               718.6473
 Red. masses --      1.8963                 2.7061                 2.1508
 Frc consts  --      0.5051                 0.7476                 0.6544
 IR Inten    --     13.9331                 4.9372                48.2422

                     28                     29                     30
                      A                      A                      A
 Frequencies --    740.3103               768.7631               797.1834
 Red. masses --      2.7042                 4.1203                 1.3779
 Frc consts  --      0.8732                 1.4347                 0.5159
 IR Inten    --      3.3292                 0.5171                 8.9287

                     31                     32                     33
                      A                      A                      A
 Frequencies --    822.7740               838.4823               865.3017
 Red. masses --      2.9922                 1.4033                 1.2868
 Frc consts  --      1.1934                 0.5813                 0.5677
 IR Inten    --      5.5691                11.5606                 9.2324

                     34                     35                     36
                      A                      A                      A
 Frequencies --    883.6526               917.5037               928.5183
 Red. masses --      2.7138                 1.2914                 5.7743
 Frc consts  --      1.2485                 0.6405                 2.9331
 IR Inten    --     39.4269                 5.5301                 5.7583

                     37                     38                     39
                      A                      A                      A
 Frequencies --    934.2791               983.2808              1001.9791
 Red. masses --      3.4739                 2.0611                 3.4631
 Frc consts  --      1.7866                 1.1741                 2.0485
 IR Inten    --     33.4465                13.9671                37.5969

                     40                     41                     42
                      A                      A                      A
 Frequencies --   1025.5771              1029.6781              1094.0187
 Red. masses --      3.4972                 3.5575                 1.6400
 Frc consts  --      2.1673                 2.2223                 1.1565
 IR Inten    --      8.3323                 3.1682                16.5306

                     43                     44                     45
                      A                      A                      A
 Frequencies --   1109.7869              1118.4382              1154.5310
 Red. masses --      1.6530                 2.3145                 2.4258
 Frc consts  --      1.1995                 1.7058                 1.9051
 IR Inten    --     20.1304                33.9652                 5.5979

                     46                     47                     48
                      A                      A                      A
 Frequencies --   1156.9060              1173.8814              1237.3309
 Red. masses --      1.9511                 1.4293                 1.4894
 Frc consts  --      1.5386                 1.1604                 1.3435
 IR Inten    --     14.5475                 3.2993                12.2764

                     49                     50                     51
                      A                      A                      A
 Frequencies --   1242.4908              1265.3306              1287.8358
 Red. masses --      1.7543                 2.2096                 1.3699
 Frc consts  --      1.5957                 2.0843                 1.3386
 IR Inten    --      4.5487                20.8155                 1.9116

                     52                     53                     54
                      A                      A                      A
 Frequencies --   1291.4316              1307.9975              1324.9611
 Red. masses --      1.3084                 1.3027                 1.2644
 Frc consts  --      1.2857                 1.3131                 1.3078
 IR Inten    --      2.1728                24.6033                 7.9014

                     55                     56                     57
                      A                      A                      A
 Frequencies --   1330.4684              1352.1730              1365.8088
 Red. masses --      1.4130                 1.4508                 1.5993
 Frc consts  --      1.4737                 1.5629                 1.7578
 IR Inten    --      8.9766               109.7184                78.4990

                     58                     59                     60
                      A                      A                      A
 Frequencies --   1392.4918              1405.7079              1420.2488
 Red. masses --      2.6295                 1.3474                 2.5009
 Frc consts  --      3.0041                 1.5687                 2.9722
 IR Inten    --      4.6571                14.9257               226.7601

                     61                     62                     63
                      A                      A                      A
 Frequencies --   1440.0422              1490.0633              1494.2106
 Red. masses --      2.9308                 1.1174                 1.1080
 Frc consts  --      3.5808                 1.4617                 1.4576
 IR Inten    --     23.1393                 0.4109                12.4848

                     64                     65                     66
                      A                      A                      A
 Frequencies --   1512.5991              1514.0772              1519.5063
 Red. masses --      1.0755                 3.9409                 1.1870
 Frc consts  --      1.4498                 5.3229                 1.6147
 IR Inten    --     12.8098                38.4193               221.6789

                     67                     68                     69
                      A                      A                      A
 Frequencies --   1541.5155              1609.5329              1669.6294
 Red. masses --      2.5762                 4.2356                 1.0428
 Frc consts  --      3.6068                 6.4649                 1.7128
 IR Inten    --    301.9491                 7.9831                55.1906

                     70                     71                     72
                      A                      A                      A
 Frequencies --   1673.5810              1767.9995              1845.4518
 Red. masses --      1.0443                10.0831                 9.3830
 Frc consts  --      1.7232                18.5698                18.8277
 IR Inten    --     43.8406               248.8157               286.3032

                     73                     74                     75
                      A                      A                      A
 Frequencies --   3038.2934              3048.3745              3071.1620
 Red. masses --      1.0647                 1.0831                 1.0609
 Frc consts  --      5.7906                 5.9299                 5.8958
 IR Inten    --      3.4420                 7.3813                11.1249

                     76                     77                     78
                      A                      A                      A
 Frequencies --   3103.7697              3117.2439              3120.4902
 Red. masses --      1.1000                 1.0602                 1.1055
 Frc consts  --      6.2432                 6.0700                 6.3424
 IR Inten    --      4.4519                 2.9388                 3.0528

                     79                     80                     81
                      A                      A                      A
 Frequencies --   3183.1716              3248.3922              3267.0395
 Red. masses --      1.1116                 1.0964                 1.0980
 Frc consts  --      6.6361                 6.8164                 6.9050
 IR Inten    --      2.8545                 1.8574                 0.5304

                     82                     83                     84
                      A                      A                      A
 Frequencies --   3399.1418              3491.2677              3492.8383
 Red. masses --      1.0304                 1.0935                 1.0938
 Frc consts  --      7.0142                 7.8533                 7.8622
 IR Inten    --     55.7374                94.6143                94.7809

                     85                     86                     87
                      A                      A                      A
 Frequencies --   3513.1661              3572.8069              3647.4899
 Red. masses --      1.0781                 1.0679                 1.0816
 Frc consts  --      7.8401                 8.0314                 8.4783
 IR Inten    --    141.8238               494.2873                54.4981

 - Thermochemistry -
 -------------------
 Temperature   298.150 Kelvin.  Pressure   1.00000 Atm.
 Atom     1 has atomic number  8 and mass  15.99491

 Molecular mass:   227.11442 amu.
 Principal axes and moments of inertia in atomic units:
                           1         2         3
     Eigenvalues --  1940.359877506.550199082.26455
           X            0.99916   0.02930   0.02861
           Y           -0.04007   0.84362   0.53544
           Z           -0.00844  -0.53614   0.84409
 This molecule is an asymmetric top.
 Rotational symmetry number  1.
 Warning -- assumption of classical behavior for rotation
           may cause significant error
 Rotational temperatures (Kelvin)      0.04464     0.01154     0.00954
 Rotational constants (GHZ):           0.93011     0.24042     0.19871
 Zero-point vibrational energy     682127.6 (Joules/Mol)
                                  163.03240 (Kcal/Mol)
 Warning -- explicit consideration of  22 degrees of freedom as
           vibrations may cause significant error
 Vibrational temperatures:     42.98    48.34    68.79    86.78   106.26
          (Kelvin)            124.79   148.07   159.05   213.46   274.39
                              308.05   341.26   391.50   478.09   482.88
                              501.15   546.93   552.57   781.16   791.76
                              845.86   886.75   944.00   953.80   967.42
                              985.22  1033.97  1065.14  1106.08  1146.97
                             1183.79  1206.39  1244.97  1271.38  1320.08
                             1335.93  1344.22  1414.72  1441.62  1475.57
                             1481.48  1574.05  1596.73  1609.18  1661.11
                             1664.53  1688.95  1780.24  1787.66  1820.53
                             1852.91  1858.08  1881.91  1906.32  1914.24
                             1945.47  1965.09  2003.48  2022.50  2043.42
                             2071.90  2143.87  2149.83  2176.29  2178.42
                             2186.23  2217.89  2315.76  2402.22  2407.91
                             2543.75  2655.19  4371.42  4385.93  4418.71
                             4465.63  4485.01  4489.68  4579.87  4673.71
                             4700.54  4890.60  5023.15  5025.41  5054.66
                             5140.47  5247.92

 Zero-point correction=                           0.259809 (Hartree/Particle)
 Thermal correction to Energy=                    0.275963
 Thermal correction to Enthalpy=                  0.276907
 Thermal correction to Gibbs Free Energy=         0.213603
 Sum of electronic and zero-point Energies=           -796.217587
 Sum of electronic and thermal Energies=              -796.201433
 Sum of electronic and thermal Enthalpies=            -796.200489
 Sum of electronic and thermal Free Energies=         -796.263793

                     E (Thermal)             CV                S
                      KCal/Mol        Cal/Mol-Kelvin    Cal/Mol-Kelvin
 Total                  173.169             58.563            133.235
 Electronic               0.000              0.000              0.000
 Translational            0.889              2.981             42.163
 Rotational               0.889              2.981             33.247
 Vibrational            171.392             52.601             57.824
 Vibration     1          0.594              1.984              5.838
 Vibration     2          0.594              1.983              5.605
 Vibration     3          0.595              1.978              4.906
 Vibration     4          0.597              1.973              4.447
 Vibration     5          0.599              1.966              4.048
 Vibration     6          0.601              1.958              3.732
 Vibration     7          0.605              1.947              3.398
 Vibration     8          0.606              1.941              3.259
 Vibration     9          0.618              1.904              2.693
 Vibration    10          0.634              1.853              2.221
 Vibration    11          0.644              1.819              2.008
 Vibration    12          0.656              1.784              1.824
 Vibration    13          0.675              1.725              1.583
 Vibration    14          0.714              1.611              1.249
 Vibration    15          0.717              1.604              1.233
 Vibration    16          0.726              1.579              1.174
 Vibration    17          0.750              1.513              1.039
 Vibration    18          0.753              1.504              1.023
 Vibration    19          0.898              1.155              0.559
 Vibration    20          0.906              1.139              0.544
 Vibration    21          0.945              1.058              0.471
 Vibration    22          0.976              0.997              0.422

 Optimization completed.
    -- Stationary point found.
 Normal termination of Gaussian 09 at Wed Jul 28 22:58:22 2021.
