 Gaussian 09, Revision D.01,
 Gaussian 09:  ES64L-G09RevD.01 24-Apr-2013

 ----------------------------------------------------------------------
 # B3LYP/6-31G(d,p) opt=calcfc freq=noraman nosymm integral(ultrafinegr
 id)
 ----------------------------------------------------------------------

 ------------------------------------------------------------
 Candidate Structure: Conf:862 OPT and FREQ calc in gas phase
 ------------------------------------------------------------
 Symbolic Z-matrix:
 Charge =  1 Multiplicity = 1

 SCF Done:  E(RB3LYP) =  -796.504571137     A.U. after   14 cycles
 SCF Done:  E(RB3LYP) =  -796.462729857     A.U. after   15 cycles
 SCF Done:  E(RB3LYP) =  -796.510955895     A.U. after   12 cycles
 SCF Done:  E(RB3LYP) =  -796.513937158     A.U. after   12 cycles
 SCF Done:  E(RB3LYP) =  -796.504903534     A.U. after   14 cycles
 SCF Done:  E(RB3LYP) =  -796.514779722     A.U. after   11 cycles
 SCF Done:  E(RB3LYP) =  -796.510362970     A.U. after   12 cycles
 SCF Done:  E(RB3LYP) =  -796.515022861     A.U. after    9 cycles
 SCF Done:  E(RB3LYP) =  -796.516373519     A.U. after   12 cycles
 SCF Done:  E(RB3LYP) =  -796.516677338     A.U. after   12 cycles
 SCF Done:  E(RB3LYP) =  -796.516799332     A.U. after   10 cycles
 SCF Done:  E(RB3LYP) =  -796.516871578     A.U. after   10 cycles
 SCF Done:  E(RB3LYP) =  -796.516911180     A.U. after   11 cycles
 SCF Done:  E(RB3LYP) =  -796.516933969     A.U. after   10 cycles
 SCF Done:  E(RB3LYP) =  -796.516950431     A.U. after   10 cycles
 SCF Done:  E(RB3LYP) =  -796.516952300     A.U. after    8 cycles
 SCF Done:  E(RB3LYP) =  -796.516952412     A.U. after    7 cycles
 Optimization completed.
    -- Stationary point found.
 Normal termination of Gaussian 09 at Wed Jul 28 22:55:45 2021.

 ----------------------------------------------------------------------
 #N Geom=AllCheck Guess=TCheck SCRF=Check GenChk RB3LYP/6-31G(d,p) Freq
 ----------------------------------------------------------------------

 Structure from the checkpoint file:  "conf-862.chk"
 ------------------------------------------------------------
 Candidate Structure: Conf:862 OPT and FREQ calc in gas phase
 ------------------------------------------------------------
 Charge =  1 Multiplicity = 1

                          Input orientation:
 ---------------------------------------------------------------------
 Center     Atomic      Atomic             Coordinates (Angstroms)
 Number     Number       Type             X           Y           Z
 ---------------------------------------------------------------------
      1          8           0       -0.719853    1.790972   -0.157545
      2          6           0        0.348667    1.261417    0.181397
      3          7           0        0.498272    0.578297    1.335171
      4          6           0       -0.628469    0.165483    2.155709
      5          6           0       -0.192666    0.217599    3.614303
      6          8           0       -1.244653    0.191977    4.441171
      7          8           0        0.967857    0.218623    3.960954
      8          6           0       -1.113119   -1.304940    1.812570
      9          6           0       -0.895778   -1.634943    0.368764
     10          6           0       -1.406464   -1.084137   -0.780255
     11          7           0       -0.668126   -1.466762   -1.884371
     12          6           0        0.254402   -2.295917   -1.419616
     13          7           0        0.161427   -2.418943   -0.069584
     14          6           0        1.557946    1.253365   -0.761666
     15          6           0        1.222536    1.785975   -2.160293
     16          7           0       -0.092980    1.236489   -2.659408
     17          1           0        1.416134    0.300902    1.663190
     18          1           0       -1.447795    0.863199    1.977994
     19          1           0       -0.910551    0.177565    5.355954
     20          1           0       -2.166200   -1.388848    2.092612
     21          1           0       -0.565569   -2.020682    2.435390
     22          1           0       -2.231837   -0.392454   -0.862378
     23          1           0        0.986218   -2.827736   -2.011021
     24          1           0        0.719635   -3.034365    0.506390
     25          1           0        1.944150    0.230978   -0.826174
     26          1           0        2.366117    1.868934   -0.350080
     27          1           0        2.003204    1.519392   -2.873990
     28          1           0        1.109629    2.871428   -2.150949
     29          1           0       -0.166412    0.183626   -2.645758
     30          1           0       -0.320016    1.582119   -3.593539
     31          1           0       -0.785603    1.571598   -1.956746
 ---------------------------------------------------------------------

 SCF Done:  E(RB3LYP) =  -796.516952412     A.U. after    1 cycles

 Alpha  occ. eigenvalues --  -19.31842 -19.26949 -19.26361 -14.58251 -14.52966
 Alpha  occ. eigenvalues --  -14.50427 -14.46207 -10.44529 -10.44340 -10.40356
 Alpha  occ. eigenvalues --  -10.38062 -10.37462 -10.35929 -10.35587 -10.33974
 Alpha  occ. eigenvalues --  -10.33151  -1.22936  -1.18786  -1.15238  -1.14175
 Alpha  occ. eigenvalues --   -1.13097  -1.07057  -1.00991  -0.94477  -0.92279
 Alpha  occ. eigenvalues --   -0.87838  -0.82245  -0.80202  -0.75435  -0.74775
 Alpha  occ. eigenvalues --   -0.73224  -0.72514  -0.71687  -0.70880  -0.67509
 Alpha  occ. eigenvalues --   -0.65717  -0.63547  -0.62288  -0.61357  -0.60545
 Alpha  occ. eigenvalues --   -0.59277  -0.58483  -0.58067  -0.56968  -0.55486
 Alpha  occ. eigenvalues --   -0.55001  -0.54364  -0.53773  -0.53568  -0.52828
 Alpha  occ. eigenvalues --   -0.52017  -0.50004  -0.49641  -0.44022  -0.42947
 Alpha  occ. eigenvalues --   -0.41716  -0.41272  -0.40095  -0.39934  -0.35836
 Alpha virt. eigenvalues --   -0.13444  -0.12436  -0.10759  -0.09266  -0.07869
 Alpha virt. eigenvalues --   -0.05264  -0.04119  -0.03233  -0.02857  -0.01975
 Alpha virt. eigenvalues --   -0.01832  -0.00063   0.00001   0.00765   0.01557

 Mulliken charges:
               1
     1  O   -0.553455
     2  C    0.627586
     3  N   -0.514353
     4  C    0.006886
     5  C    0.587291
     6  O   -0.466802
     7  O   -0.453394
     8  C   -0.257578
     9  C    0.286224
    10  C   -0.002906
    11  N   -0.505950
    12  C    0.267830
    13  N   -0.520933
    14  C   -0.300589
    15  C   -0.110845
    16  N   -0.564939
    17  H    0.290569
    18  H    0.184710
    19  H    0.349770
    20  H    0.175772
    21  H    0.131462
    22  H    0.126618
    23  H    0.155598
    24  H    0.292662
    25  H    0.155587
    26  H    0.186817
    27  H    0.176219
    28  H    0.187723
    29  H    0.354758
    30  H    0.342823
    31  H    0.364840
 Sum of Mulliken charges =   1.00000

 Dipole moment (field-independent basis, Debye):
    X=              2.5372    Y=              0.2899    Z=             -3.1109  Tot=              4.0249
 Quadrupole moment (field-independent basis, Debye-Ang):
   XX=            -83.7135   YY=            -72.7699   ZZ=            -50.0520
   XY=             -0.3988   XZ=            -11.2724   YZ=            -16.2382

  Exact polarizability: 107.143  -4.939 102.884  -7.927  -8.485 149.668
 Approx polarizability: 187.486 -26.099 152.571   1.027 -16.223 208.100

                      1                      2                      3
                      A                      A                      A
 Frequencies --     44.4735                55.2206                84.8796
 Red. masses --      5.3710                 7.3098                 4.0003
 Frc consts  --      0.0063                 0.0131                 0.0170
 IR Inten    --      2.8475                 1.0706                 0.4822

                      4                      5                      6
                      A                      A                      A
 Frequencies --    108.8565               111.7396               122.5666
 Red. masses --      5.0361                 4.9489                 3.9709
 Frc consts  --      0.0352                 0.0364                 0.0351
 IR Inten    --      3.6305                12.7297                 7.0083

                      7                      8                      9
                      A                      A                      A
 Frequencies --    141.6967               157.2874               175.8389
 Red. masses --      3.7942                 5.2117                 4.5989
 Frc consts  --      0.0449                 0.0760                 0.0838
 IR Inten    --     18.4874                 6.8253                11.9397

                     10                     11                     12
                      A                      A                      A
 Frequencies --    204.8325               261.8680               307.2828
 Red. masses --      2.3380                 4.5663                 5.6861
 Frc consts  --      0.0578                 0.1845                 0.3163
 IR Inten    --     26.8015                41.6372                 1.1276

                     13                     14                     15
                      A                      A                      A
 Frequencies --    313.7581               332.7994               356.0702
 Red. masses --      2.6555                 3.7387                 4.2105
 Frc consts  --      0.1540                 0.2440                 0.3145
 IR Inten    --      5.2025                 6.8456                45.0895

                     16                     17                     18
                      A                      A                      A
 Frequencies --    413.7971               440.8896               473.3077
 Red. masses --      3.5734                 2.3739                 1.2543
 Frc consts  --      0.3605                 0.2719                 0.1656
 IR Inten    --     10.2478                13.5345                 0.4116

                     19                     20                     21
                      A                      A                      A
 Frequencies --    526.3716               549.4987               596.0057
 Red. masses --      1.8846                 3.5984                 1.8056
 Frc consts  --      0.3077                 0.6402                 0.3779
 IR Inten    --     84.2474                21.9981               108.2185

                     22                     23                     24
                      A                      A                      A
 Frequencies --    622.3224               627.3129               636.3042
 Red. masses --      1.7611                 1.4506                 3.1521
 Frc consts  --      0.4019                 0.3363                 0.7519
 IR Inten    --      2.0299                52.2961                86.5667

                     25                     26                     27
                      A                      A                      A
 Frequencies --    680.8524               689.6282               689.8046
 Red. masses --      2.7313                 2.3921                 3.0228
 Frc consts  --      0.7460                 0.6703                 0.8474
 IR Inten    --     66.3613                 2.8676                 1.9338

                     28                     29                     30
                      A                      A                      A
 Frequencies --    717.9849               768.4450               816.6318
 Red. masses --      2.9652                 4.0360                 1.3963
 Frc consts  --      0.9006                 1.4042                 0.5486
 IR Inten    --     12.0575                27.1237                10.2659

                     31                     32                     33
                      A                      A                      A
 Frequencies --    841.6218               853.2439               865.6898
 Red. masses --      2.2103                 1.9587                 1.7843
 Frc consts  --      0.9224                 0.8401                 0.7879
 IR Inten    --     12.8010                19.3070                16.5224

                     34                     35                     36
                      A                      A                      A
 Frequencies --    879.6280               929.9960               940.4068
 Red. masses --      2.2489                 2.6473                 5.5778
 Frc consts  --      1.0252                 1.3490                 2.9063
 IR Inten    --      4.1973                14.2237                10.3201

                     37                     38                     39
                      A                      A                      A
 Frequencies --    961.3506               983.5840               998.5128
 Red. masses --      3.4213                 1.5201                 3.0650
 Frc consts  --      1.8630                 0.8665                 1.8005
 IR Inten    --      0.9509                 3.3714                16.2391

                     40                     41                     42
                      A                      A                      A
 Frequencies --   1029.9323              1042.9139              1105.0873
 Red. masses --      3.5184                 3.0317                 2.2978
 Frc consts  --      2.1990                 1.9428                 1.6533
 IR Inten    --      3.8034                11.8573                13.5892

                     43                     44                     45
                      A                      A                      A
 Frequencies --   1127.6353              1137.7576              1143.8255
 Red. masses --      1.4602                 1.7746                 1.7770
 Frc consts  --      1.0940                 1.3534                 1.3698
 IR Inten    --     91.0832                13.4298                10.0736

                     46                     47                     48
                      A                      A                      A
 Frequencies --   1148.3319              1172.9998              1210.5313
 Red. masses --      1.4507                 1.7924                 1.8177
 Frc consts  --      1.1271                 1.4530                 1.5694
 IR Inten    --     50.8224               143.8805                48.9129

                     49                     50                     51
                      A                      A                      A
 Frequencies --   1249.2081              1260.5362              1281.5700
 Red. masses --      1.5120                 1.9557                 1.3775
 Frc consts  --      1.3902                 1.8309                 1.3330
 IR Inten    --     11.4892                10.1530                 1.5881

                     52                     53                     54
                      A                      A                      A
 Frequencies --   1284.6232              1303.0507              1342.7878
 Red. masses --      1.3668                 1.5840                 1.3797
 Frc consts  --      1.3290                 1.5846                 1.4658
 IR Inten    --     19.7211                 7.4656                 6.2536

                     55                     56                     57
                      A                      A                      A
 Frequencies --   1345.3195              1356.7497              1392.3907
 Red. masses --      1.5659                 1.2106                 1.5410
 Frc consts  --      1.6698                 1.3130                 1.7602
 IR Inten    --      5.6095                20.1987                33.0401

                     58                     59                     60
                      A                      A                      A
 Frequencies --   1401.4803              1425.9788              1431.3395
 Red. masses --      2.4707                 1.3455                 2.7083
 Frc consts  --      2.8592                 1.6120                 3.2691
 IR Inten    --      4.6631                10.8672               187.0526

                     61                     62                     63
                      A                      A                      A
 Frequencies --   1450.6347              1475.1946              1494.1494
 Red. masses --      2.8152                 1.0965                 1.1928
 Frc consts  --      3.4904                 1.4059                 1.5689
 IR Inten    --     21.7956                18.4667                11.4835

                     64                     65                     66
                      A                      A                      A
 Frequencies --   1500.9760              1512.1810              1517.4496
 Red. masses --      1.2606                 1.5042                 1.5556
 Frc consts  --      1.6733                 2.0265                 2.1105
 IR Inten    --    150.2114                11.1706               100.4702

                     67                     68                     69
                      A                      A                      A
 Frequencies --   1562.8246              1625.2121              1648.0374
 Red. masses --      2.3188                 4.1366                 1.1075
 Frc consts  --      3.3369                 6.4374                 1.7723
 IR Inten    --    205.0419                15.0008                53.9463

                     70                     71                     72
                      A                      A                      A
 Frequencies --   1709.1742              1734.3475              1843.3571
 Red. masses --      1.1432                 3.7812                10.3439
 Frc consts  --      1.9676                 6.7012                20.7088
 IR Inten    --    242.4651                70.7933               239.1295

                     73                     74                     75
                      A                      A                      A
 Frequencies --   2940.8872              3065.9482              3067.7025
 Red. masses --      1.0812                 1.0655                 1.0615
 Frc consts  --      5.5097                 5.9014                 5.8855
 IR Inten    --    823.4847                10.6941                 4.0895

                     76                     77                     78
                      A                      A                      A
 Frequencies --   3106.8886              3114.0925              3123.6443
 Red. masses --      1.0813                 1.0817                 1.0985
 Frc consts  --      6.1496                 6.1805                 6.3150
 IR Inten    --      3.4126                 6.0510                 1.8319

                     79                     80                     81
                      A                      A                      A
 Frequencies --   3142.4888              3166.5071              3178.5219
 Red. masses --      1.0879                 1.1021                 1.0777
 Frc consts  --      6.3296                 6.5109                 6.4153
 IR Inten    --      3.3818                60.8628               196.8431

                     82                     83                     84
                      A                      A                      A
 Frequencies --   3272.3962              3275.6307              3515.7151
 Red. masses --      1.0955                 1.1003                 1.0792
 Frc consts  --      6.9122                 6.9562                 7.8594
 IR Inten    --      0.3551                 2.9151               117.5318

                     85                     86                     87
                      A                      A                      A
 Frequencies --   3596.2385              3642.4567              3736.8692
 Red. masses --      1.0779                 1.0820                 1.0645
 Frc consts  --      8.2137                 8.4580                 8.7578
 IR Inten    --     76.7862                82.0680               116.5559

 - Thermochemistry -
 -------------------
 Temperature   298.150 Kelvin.  Pressure   1.00000 Atm.
 Atom     1 has atomic number  8 and mass  15.99491

 Molecular mass:   227.11442 amu.
 Principal axes and moments of inertia in atomic units:
                           1         2         3
     Eigenvalues --  2220.044334555.889085699.17779
           X           -0.09849   0.30565   0.94704
           Y           -0.03361   0.95010  -0.31013
           Z            0.99457   0.06238   0.08331
 This molecule is an asymmetric top.
 Rotational symmetry number  1.
 Warning -- assumption of classical behavior for rotation
           may cause significant error
 Rotational temperatures (Kelvin)      0.03901     0.01901     0.01520
 Rotational constants (GHZ):           0.81293     0.39613     0.31667
 Zero-point vibrational energy     684837.8 (Joules/Mol)
                                  163.68016 (Kcal/Mol)
 Warning -- explicit consideration of  21 degrees of freedom as
           vibrations may cause significant error
 Vibrational temperatures:     63.99    79.45   122.12   156.62   160.77
          (Kelvin)            176.35   203.87   226.30   252.99   294.71
                              376.77   442.11   451.43   478.82   512.30
                              595.36   634.34   680.98   757.33   790.61
                              857.52   895.38   902.56   915.50   979.59
                              992.22   992.47  1033.02  1105.62  1174.95
                             1210.90  1227.63  1245.53  1265.59  1338.06
                             1353.03  1383.17  1415.16  1436.64  1481.84
                             1500.52  1589.97  1622.41  1636.98  1645.71
                             1652.19  1687.68  1741.68  1797.33  1813.63
                             1843.89  1848.28  1874.80  1931.97  1935.61
                             1952.06  2003.34  2016.42  2051.66  2059.38
                             2087.14  2122.47  2149.75  2159.57  2175.69
                             2183.27  2248.55  2338.31  2371.16  2459.12
                             2495.34  2652.18  4231.28  4411.21  4413.73
                             4470.11  4480.48  4494.22  4521.33  4555.89
                             4573.18  4708.24  4712.90  5058.32  5174.18
                             5240.68  5376.51

 Zero-point correction=                           0.260841 (Hartree/Particle)
 Thermal correction to Energy=                    0.275954
 Thermal correction to Enthalpy=                  0.276898
 Thermal correction to Gibbs Free Energy=         0.218331
 Sum of electronic and zero-point Energies=           -796.256111
 Sum of electronic and thermal Energies=              -796.240998
 Sum of electronic and thermal Enthalpies=            -796.240054
 Sum of electronic and thermal Free Energies=         -796.298621

                     E (Thermal)             CV                S
                      KCal/Mol        Cal/Mol-Kelvin    Cal/Mol-Kelvin
 Total                  173.164             57.521            123.265
 Electronic               0.000              0.000              0.000
 Translational            0.889              2.981             42.163
 Rotational               0.889              2.981             32.422
 Vibrational            171.386             51.560             48.680
 Vibration     1          0.595              1.980              5.049
 Vibration     2          0.596              1.975              4.621
 Vibration     3          0.601              1.960              3.775
 Vibration     4          0.606              1.942              3.289
 Vibration     5          0.607              1.940              3.238
 Vibration     6          0.610              1.930              3.060
 Vibration     7          0.615              1.912              2.781
 Vibration     8          0.621              1.894              2.582
 Vibration     9          0.628              1.872              2.372
 Vibration    10          0.640              1.833              2.089
 Vibration    11          0.669              1.743              1.649
 Vibration    12          0.697              1.660              1.377
 Vibration    13          0.702              1.647              1.342
 Vibration    14          0.715              1.610              1.246
 Vibration    15          0.732              1.563              1.139
 Vibration    16          0.777              1.440              0.913
 Vibration    17          0.801              1.381              0.824
 Vibration    18          0.830              1.309              0.728
 Vibration    19          0.881              1.192              0.595
 Vibration    20          0.905              1.141              0.545
 Vibration    21          0.954              1.040              0.457

 Normal termination of Gaussian 09 at Wed Jul 28 23:20:09 2021.
