 Gaussian 09, Revision D.01,
 Gaussian 09:  ES64L-G09RevD.01 24-Apr-2013

 ----------------------------------------------------------------------
 # B3LYP/6-31G(d,p) opt=calcfc freq=noraman nosymm integral(ultrafinegr
 id)
 ----------------------------------------------------------------------

 ------------------------------------------------------------
 Candidate Structure: Conf:719 OPT and FREQ calc in gas phase
 ------------------------------------------------------------
 Symbolic Z-matrix:
 Charge =  1 Multiplicity = 1

 SCF Done:  E(RB3LYP) =  -796.467751576     A.U. after   17 cycles
 SCF Done:  E(RB3LYP) =  -796.476837528     A.U. after   14 cycles
 SCF Done:  E(RB3LYP) =  -796.478054546     A.U. after   14 cycles
 SCF Done:  E(RB3LYP) =  -796.479603143     A.U. after   12 cycles
 SCF Done:  E(RB3LYP) =  -796.479823161     A.U. after   11 cycles
 SCF Done:  E(RB3LYP) =  -796.479852457     A.U. after   11 cycles
 SCF Done:  E(RB3LYP) =  -796.479856286     A.U. after    8 cycles
 SCF Done:  E(RB3LYP) =  -796.479858124     A.U. after    9 cycles
 SCF Done:  E(RB3LYP) =  -796.479858718     A.U. after    9 cycles
 SCF Done:  E(RB3LYP) =  -796.479858770     A.U. after    7 cycles
 SCF Done:  E(RB3LYP) =  -796.479858781     A.U. after    7 cycles
 Optimization completed.
    -- Stationary point found.
 Normal termination of Gaussian 09 at Wed Jul 28 22:34:22 2021.

 ----------------------------------------------------------------------
 #N Geom=AllCheck Guess=TCheck SCRF=Check GenChk RB3LYP/6-31G(d,p) Freq
 ----------------------------------------------------------------------

 Structure from the checkpoint file:  "conf-719.chk"
 ------------------------------------------------------------
 Candidate Structure: Conf:719 OPT and FREQ calc in gas phase
 ------------------------------------------------------------
 Charge =  1 Multiplicity = 1

                          Input orientation:
 ---------------------------------------------------------------------
 Center     Atomic      Atomic             Coordinates (Angstroms)
 Number     Number       Type             X           Y           Z
 ---------------------------------------------------------------------
      1          8           0       -0.965531    0.105886    1.317370
      2          6           0       -1.369147    0.222241    0.164482
      3          7           0       -0.578702    0.323235   -0.919731
      4          6           0        0.878678    0.366118   -0.820677
      5          6           0        1.353292    0.903979   -2.166197
      6          8           0        2.688891    1.033375   -2.238940
      7          8           0        0.609467    1.173740   -3.085830
      8          6           0        1.499273   -1.027325   -0.460933
      9          6           0        2.751632   -0.979455    0.351806
     10          6           0        2.967589   -1.301913    1.673070
     11          7           0        4.286309   -1.132541    2.018180
     12          6           0        4.875040   -0.707915    0.920900
     13          7           0        3.997284   -0.602577   -0.120209
     14          6           0       -2.891215    0.221959   -0.119007
     15          6           0       -3.583413    0.712386    1.145380
     16          7           0       -5.069669    0.362449    1.145503
     17          1           0       -0.952127    0.519365   -1.842772
     18          1           0        1.163808    1.072740   -0.032914
     19          1           0        2.895196    1.379945   -3.125510
     20          1           0        0.753256   -1.543558    0.146421
     21          1           0        1.624292   -1.616008   -1.378438
     22          1           0        2.236238   -1.653673    2.388472
     23          1           0        5.923666   -0.464443    0.818656
     24          1           0        4.190161   -0.244418   -1.042959
     25          1           0       -3.181825   -0.813718   -0.342898
     26          1           0       -3.142729    0.834678   -0.990821
     27          1           0       -3.525870    1.795866    1.263109
     28          1           0       -3.134683    0.237631    2.019267
     29          1           0       -5.209728   -0.651999    1.080338
     30          1           0       -5.525859    0.682338    2.007206
     31          1           0       -5.563357    0.791671    0.355387
 ---------------------------------------------------------------------

 SCF Done:  E(RB3LYP) =  -796.479858781     A.U. after    1 cycles

 Alpha  occ. eigenvalues --  -19.31983 -19.26355 -19.24919 -14.66477 -14.48953
 Alpha  occ. eigenvalues --  -14.45441 -14.37180 -10.44347 -10.43005 -10.42877
 Alpha  occ. eigenvalues --  -10.37131 -10.35764 -10.30204 -10.30117 -10.28843
 Alpha  occ. eigenvalues --  -10.26123  -1.22991  -1.20328  -1.16985  -1.14032
 Alpha  occ. eigenvalues --   -1.07595  -1.05497  -0.96194  -0.93345  -0.90074
 Alpha  occ. eigenvalues --   -0.84652  -0.82373  -0.78740  -0.78171  -0.76513
 Alpha  occ. eigenvalues --   -0.73830  -0.70472  -0.68836  -0.67815  -0.65424
 Alpha  occ. eigenvalues --   -0.64722  -0.63657  -0.61914  -0.60321  -0.58999
 Alpha  occ. eigenvalues --   -0.58791  -0.57250  -0.56659  -0.55085  -0.53722
 Alpha  occ. eigenvalues --   -0.52856  -0.52351  -0.50629  -0.49360  -0.48323
 Alpha  occ. eigenvalues --   -0.47485  -0.47243  -0.46607  -0.44029  -0.40173
 Alpha  occ. eigenvalues --   -0.38903  -0.38591  -0.34244  -0.32572  -0.29054
 Alpha virt. eigenvalues --   -0.16672  -0.11871  -0.10919  -0.09719  -0.09536
 Alpha virt. eigenvalues --   -0.06917  -0.04406  -0.03748  -0.03486  -0.02468
 Alpha virt. eigenvalues --   -0.00868   0.00249   0.01426   0.02547   0.02922

 Mulliken charges:
               1
     1  O   -0.505866
     2  C    0.624397
     3  N   -0.545520
     4  C    0.016229
     5  C    0.592128
     6  O   -0.483491
     7  O   -0.462697
     8  C   -0.258176
     9  C    0.277255
    10  C   -0.000127
    11  N   -0.431517
    12  C    0.265155
    13  N   -0.529071
    14  C   -0.309872
    15  C   -0.128534
    16  N   -0.547556
    17  H    0.290534
    18  H    0.179367
    19  H    0.349184
    20  H    0.148185
    21  H    0.126916
    22  H    0.094368
    23  H    0.125524
    24  H    0.269139
    25  H    0.160857
    26  H    0.150403
    27  H    0.197693
    28  H    0.225423
    29  H    0.367767
    30  H    0.374436
    31  H    0.367468
 Sum of Mulliken charges =   1.00000

 Dipole moment (field-independent basis, Debye):
    X=            -19.5878    Y=              3.0198    Z=             -1.6290  Tot=             19.8861
 Quadrupole moment (field-independent basis, Debye-Ang):
   XX=             30.6935   YY=            -87.7269   ZZ=            -87.6959
   XY=             -0.1583   XZ=            -44.3222   YZ=              3.0226

  Exact polarizability: 165.337  -1.408  80.560   0.392 -15.198 126.943
 Approx polarizability: 208.154   4.965 121.470  10.821 -23.423 212.640

                      1                      2                      3
                      A                      A                      A
 Frequencies --     27.7235                32.5032                39.7149
 Red. masses --      4.7353                 3.6936                 5.0658
 Frc consts  --      0.0021                 0.0023                 0.0047
 IR Inten    --      6.1505                 7.8104                10.0699

                      4                      5                      6
                      A                      A                      A
 Frequencies --     45.1075                64.3472                78.4767
 Red. masses --      2.0348                 6.3572                 7.6694
 Frc consts  --      0.0024                 0.0155                 0.0278
 IR Inten    --      8.6667                 2.1733                 8.6903

                      7                      8                      9
                      A                      A                      A
 Frequencies --     94.4930               114.6653               128.0372
 Red. masses --      3.6292                 4.8088                 4.8993
 Frc consts  --      0.0191                 0.0373                 0.0473
 IR Inten    --      1.6988                 8.8966                 4.5457

                     10                     11                     12
                      A                      A                      A
 Frequencies --    187.7107               218.3842               240.6136
 Red. masses --      4.9258                 1.9569                 1.6351
 Frc consts  --      0.1023                 0.0550                 0.0558
 IR Inten    --      2.4948                11.4973                 2.7775

                     13                     14                     15
                      A                      A                      A
 Frequencies --    270.2753               306.8870               330.0344
 Red. masses --      5.0222                 2.7835                 3.6197
 Frc consts  --      0.2162                 0.1545                 0.2323
 IR Inten    --     20.1540                 2.5619                 2.2887

                     16                     17                     18
                      A                      A                      A
 Frequencies --    347.2463               376.6879               385.1794
 Red. masses --      6.4182                 3.8369                 3.8547
 Frc consts  --      0.4560                 0.3208                 0.3369
 IR Inten    --     11.7759                 1.7063                19.3015

                     19                     20                     21
                      A                      A                      A
 Frequencies --    530.1593               539.0747               557.2764
 Red. masses --      2.3229                 1.5430                 2.3063
 Frc consts  --      0.3847                 0.2642                 0.4220
 IR Inten    --     43.6440                98.8037                11.6341

                     22                     23                     24
                      A                      A                      A
 Frequencies --    599.1473               639.4042               648.4337
 Red. masses --      1.9658                 2.6223                 1.7663
 Frc consts  --      0.4158                 0.6317                 0.4376
 IR Inten    --     32.4869                45.5084                18.0837

                     25                     26                     27
                      A                      A                      A
 Frequencies --    666.8932               680.8455               710.8224
 Red. masses --      2.0492                 2.7351                 3.8186
 Frc consts  --      0.5370                 0.7470                 1.1368
 IR Inten    --     88.5500                 0.8365                 3.3977

                     28                     29                     30
                      A                      A                      A
 Frequencies --    735.5237               768.8051               798.2143
 Red. masses --      2.9646                 3.2563                 1.4237
 Frc consts  --      0.9450                 1.1340                 0.5345
 IR Inten    --     38.8736                 7.9149                12.8921

                     31                     32                     33
                      A                      A                      A
 Frequencies --    819.0370               819.3600               855.8839
 Red. masses --      2.5787                 1.3759                 1.3924
 Frc consts  --      1.0192                 0.5442                 0.6010
 IR Inten    --     15.5398                14.6577                14.8918

                     34                     35                     36
                      A                      A                      A
 Frequencies --    884.2674               917.3358               926.4011
 Red. masses --      2.6692                 1.2970                 3.5989
 Frc consts  --      1.2297                 0.6431                 1.8198
 IR Inten    --     33.5875                 4.7209                24.6531

                     37                     38                     39
                      A                      A                      A
 Frequencies --    931.0163               981.6407              1007.6154
 Red. masses --      5.7020                 2.1056                 4.4370
 Frc consts  --      2.9120                 1.1954                 2.6541
 IR Inten    --     11.7913                17.0513                 6.8603

                     40                     41                     42
                      A                      A                      A
 Frequencies --   1010.7836              1028.8461              1083.8761
 Red. masses --      3.0786                 3.6400                 1.9504
 Frc consts  --      1.8532                 2.2701                 1.3500
 IR Inten    --     35.7003                12.6348                36.0823

                     43                     44                     45
                      A                      A                      A
 Frequencies --   1108.9358              1119.7072              1146.2422
 Red. masses --      2.1365                 1.5879                 2.2387
 Frc consts  --      1.5480                 1.1729                 1.7330
 IR Inten    --     41.6698                35.1677                 4.9237

                     46                     47                     48
                      A                      A                      A
 Frequencies --   1159.4393              1188.6393              1203.0693
 Red. masses --      1.9440                 1.3149                 2.3731
 Frc consts  --      1.5397                 1.0945                 2.0237
 IR Inten    --     17.3869                 1.0511               180.5169

                     49                     50                     51
                      A                      A                      A
 Frequencies --   1242.0254              1275.4444              1283.6284
 Red. masses --      1.5432                 2.0519                 1.5348
 Frc consts  --      1.4026                 1.9667                 1.4900
 IR Inten    --     11.6383                 7.5757                 5.0394

                     52                     53                     54
                      A                      A                      A
 Frequencies --   1288.3587              1307.6509              1318.2055
 Red. masses --      1.3122                 1.3290                 1.2273
 Frc consts  --      1.2833                 1.3390                 1.2565
 IR Inten    --      1.9624                 7.7489                 5.7445

                     55                     56                     57
                      A                      A                      A
 Frequencies --   1327.8434              1357.3332              1367.3951
 Red. masses --      1.2508                 1.4102                 1.5173
 Frc consts  --      1.2994                 1.5308                 1.6715
 IR Inten    --     12.8197                 9.4796                36.4205

                     58                     59                     60
                      A                      A                      A
 Frequencies --   1398.7025              1405.6573              1430.1800
 Red. masses --      3.4701                 1.3412                 2.6727
 Frc consts  --      3.9999                 1.5614                 3.2210
 IR Inten    --     51.4677                17.2663               100.1978

                     61                     62                     63
                      A                      A                      A
 Frequencies --   1445.6996              1483.9402              1489.6222
 Red. masses --      2.9029                 1.1464                 1.1151
 Frc consts  --      3.5747                 1.4874                 1.4579
 IR Inten    --     28.7746                19.0789                 0.8327

                     64                     65                     66
                      A                      A                      A
 Frequencies --   1513.5622              1514.1298              1518.5224
 Red. masses --      1.0745                 3.5306                 1.1763
 Frc consts  --      1.4503                 4.7689                 1.5982
 IR Inten    --     14.2990                30.2800               195.5976

                     67                     68                     69
                      A                      A                      A
 Frequencies --   1548.4524              1617.2015              1669.9011
 Red. masses --      2.3848                 4.3802                 1.0431
 Frc consts  --      3.3689                 6.7495                 1.7138
 IR Inten    --    307.6378                 4.2984                53.8014

                     70                     71                     72
                      A                      A                      A
 Frequencies --   1673.4225              1777.6278              1831.1202
 Red. masses --      1.0440                10.1601                 9.6652
 Frc consts  --      1.7226                18.9159                19.0938
 IR Inten    --     43.7816               241.5407               259.3683

                     73                     74                     75
                      A                      A                      A
 Frequencies --   3038.9099              3043.8885              3075.0417
 Red. masses --      1.0642                 1.0700                 1.0837
 Frc consts  --      5.7902                 5.8409                 6.0375
 IR Inten    --      3.9733                21.2475                 6.3309

                     76                     77                     78
                      A                      A                      A
 Frequencies --   3102.2929              3115.2059              3129.4365
 Red. masses --      1.1004                 1.0599                 1.0948
 Frc consts  --      6.2400                 6.0604                 6.3170
 IR Inten    --      5.6539                 4.5756                 3.6339

                     79                     80                     81
                      A                      A                      A
 Frequencies --   3180.6185              3250.7384              3263.2569
 Red. masses --      1.1119                 1.0962                 1.0976
 Frc consts  --      6.6275                 6.8249                 6.8864
 IR Inten    --      4.1120                 6.0638                 0.7118

                     82                     83                     84
                      A                      A                      A
 Frequencies --   3399.6916              3491.8612              3494.0010
 Red. masses --      1.0303                 1.0935                 1.0938
 Frc consts  --      7.0162                 7.8559                 7.8674
 IR Inten    --     53.2888                96.4132                92.6443

                     85                     86                     87
                      A                      A                      A
 Frequencies --   3566.0390              3671.8259              3735.0420
 Red. masses --      1.0784                 1.0810                 1.0644
 Frc consts  --      8.0795                 8.5872                 8.7484
 IR Inten    --    116.7167                76.1828               109.6600

 - Thermochemistry -
 -------------------
 Temperature   298.150 Kelvin.  Pressure   1.00000 Atm.
 Atom     1 has atomic number  8 and mass  15.99491

 Molecular mass:   227.11442 amu.
 Principal axes and moments of inertia in atomic units:
                           1         2         3
     Eigenvalues --  2215.195807129.792989059.04625
           X            0.98938  -0.00695   0.14518
           Y           -0.13712  -0.37595   0.91644
           Z           -0.04821   0.92661   0.37291
 This molecule is an asymmetric top.
 Rotational symmetry number  1.
 Warning -- assumption of classical behavior for rotation
           may cause significant error
 Rotational temperatures (Kelvin)      0.03910     0.01215     0.00956
 Rotational constants (GHZ):           0.81471     0.25313     0.19922
 Zero-point vibrational energy     681861.0 (Joules/Mol)
                                  162.96869 (Kcal/Mol)
 Warning -- explicit consideration of  22 degrees of freedom as
           vibrations may cause significant error
 Vibrational temperatures:     39.89    46.76    57.14    64.90    92.58
          (Kelvin)            112.91   135.95   164.98   184.22   270.07
                              314.21   346.19   388.87   441.54   474.85
                              499.61   541.97   554.19   762.78   775.61
                              801.80   862.04   919.96   932.95   959.51
                              979.58  1022.71  1058.25  1106.14  1148.45
                             1178.41  1178.87  1231.42  1272.26  1319.84
                             1332.88  1339.52  1412.36  1449.73  1454.29
                             1480.28  1559.45  1595.51  1611.01  1649.18
                             1668.17  1710.18  1730.95  1787.00  1835.08
                             1846.85  1853.66  1881.42  1896.60  1910.47
                             1952.90  1967.37  2012.42  2022.42  2057.71
                             2080.04  2135.06  2143.23  2177.68  2178.49
                             2184.81  2227.87  2326.79  2402.61  2407.68
                             2557.61  2634.57  4372.31  4379.47  4424.29
                             4463.50  4482.08  4502.56  4576.19  4677.08
                             4695.09  4891.39  5024.00  5027.08  5130.73
                             5282.93  5373.89

 Zero-point correction=                           0.259707 (Hartree/Particle)
 Thermal correction to Energy=                    0.276113
 Thermal correction to Enthalpy=                  0.277057
 Thermal correction to Gibbs Free Energy=         0.212578
 Sum of electronic and zero-point Energies=           -796.220152
 Sum of electronic and thermal Energies=              -796.203746
 Sum of electronic and thermal Enthalpies=            -796.202802
 Sum of electronic and thermal Free Energies=         -796.267280

                     E (Thermal)             CV                S
                      KCal/Mol        Cal/Mol-Kelvin    Cal/Mol-Kelvin
 Total                  173.263             59.013            135.707
 Electronic               0.000              0.000              0.000
 Translational            0.889              2.981             42.163
 Rotational               0.889              2.981             33.325
 Vibrational            171.486             53.051             60.219
 Vibration     1          0.593              1.984              5.986
 Vibration     2          0.594              1.983              5.670
 Vibration     3          0.594              1.981              5.273
 Vibration     4          0.595              1.979              5.021
 Vibration     5          0.597              1.971              4.319
 Vibration     6          0.600              1.964              3.929
 Vibration     7          0.603              1.953              3.565
 Vibration     8          0.608              1.937              3.188
 Vibration     9          0.611              1.925              2.975
 Vibration    10          0.632              1.857              2.250
 Vibration    11          0.646              1.813              1.972
 Vibration    12          0.658              1.778              1.798
 Vibration    13          0.674              1.728              1.594
 Vibration    14          0.697              1.661              1.379
 Vibration    15          0.713              1.616              1.260
 Vibration    16          0.725              1.581              1.179
 Vibration    17          0.747              1.520              1.052
 Vibration    18          0.754              1.502              1.019
 Vibration    19          0.885              1.183              0.587
 Vibration    20          0.894              1.164              0.567
 Vibration    21          0.913              1.124              0.529
 Vibration    22          0.957              1.034              0.451

 Normal termination of Gaussian 09 at Wed Jul 28 22:53:40 2021.
