 Gaussian 09, Revision D.01,
 Gaussian 09:  ES64L-G09RevD.01 24-Apr-2013

 ----------------------------------------------------------------------
 # B3LYP/6-31G(d,p) opt=calcfc freq=noraman nosymm integral(ultrafinegr
 id)
 ----------------------------------------------------------------------

 ------------------------------------------------------------
 Candidate Structure: Conf:885 OPT and FREQ calc in gas phase
 ------------------------------------------------------------
 Symbolic Z-matrix:
 Charge =  1 Multiplicity = 1

 SCF Done:  E(RB3LYP) =  -796.486653402     A.U. after   14 cycles
 SCF Done:  E(RB3LYP) =  -796.493773362     A.U. after   13 cycles
 SCF Done:  E(RB3LYP) =  -796.495341663     A.U. after   13 cycles
 SCF Done:  E(RB3LYP) =  -796.496525518     A.U. after   13 cycles
 SCF Done:  E(RB3LYP) =  -796.496787468     A.U. after   12 cycles
 SCF Done:  E(RB3LYP) =  -796.494464024     A.U. after   15 cycles
 SCF Done:  E(RB3LYP) =  -796.496830778     A.U. after   11 cycles
 SCF Done:  E(RB3LYP) =  -796.496566016     A.U. after   12 cycles
 SCF Done:  E(RB3LYP) =  -796.496966079     A.U. after   14 cycles
 SCF Done:  E(RB3LYP) =  -796.497060718     A.U. after   12 cycles
 SCF Done:  E(RB3LYP) =  -796.497178451     A.U. after   13 cycles
 SCF Done:  E(RB3LYP) =  -796.497219192     A.U. after   12 cycles
 SCF Done:  E(RB3LYP) =  -796.497230112     A.U. after   11 cycles
 SCF Done:  E(RB3LYP) =  -796.497232008     A.U. after   10 cycles
 SCF Done:  E(RB3LYP) =  -796.497232325     A.U. after    8 cycles
 SCF Done:  E(RB3LYP) =  -796.497232448     A.U. after    8 cycles
 SCF Done:  E(RB3LYP) =  -796.497232495     A.U. after    8 cycles
 Optimization completed.
    -- Stationary point found.
 Normal termination of Gaussian 09 at Wed Jul 28 22:47:25 2021.

 ----------------------------------------------------------------------
 #N Geom=AllCheck Guess=TCheck SCRF=Check GenChk RB3LYP/6-31G(d,p) Freq
 ----------------------------------------------------------------------

 Structure from the checkpoint file:  "conf-885.chk"
 ------------------------------------------------------------
 Candidate Structure: Conf:885 OPT and FREQ calc in gas phase
 ------------------------------------------------------------
 Charge =  1 Multiplicity = 1

                          Input orientation:
 ---------------------------------------------------------------------
 Center     Atomic      Atomic             Coordinates (Angstroms)
 Number     Number       Type             X           Y           Z
 ---------------------------------------------------------------------
      1          8           0       -1.543180    0.267838   -0.798020
      2          6           0       -1.511624   -0.822738   -0.189941
      3          7           0       -0.391318   -1.340371    0.333979
      4          6           0        0.808434   -0.539720    0.614319
      5          6           0        0.437108    0.500139    1.689080
      6          8           0        1.527324    1.084422    2.188700
      7          8           0       -0.697353    0.737701    2.048705
      8          6           0        1.450499    0.060182   -0.679863
      9          6           0        2.828255    0.606047   -0.515525
     10          6           0        3.296666    1.898960   -0.490411
     11          7           0        4.659110    1.934155   -0.320526
     12          6           0        5.029089    0.675605   -0.244263
     13          7           0        3.962718   -0.175349   -0.349858
     14          6           0       -2.815488   -1.601476   -0.020850
     15          6           0       -3.904793   -0.644929    0.493018
     16          7           0       -4.046413    0.509206   -0.475303
     17          1           0       -0.492430   -2.192660    0.867734
     18          1           0        1.533867   -1.222271    1.066530
     19          1           0        1.246832    1.742814    2.848876
     20          1           0        1.433873   -0.746984   -1.423229
     21          1           0        0.800603    0.847179   -1.063556
     22          1           0        2.717362    2.807615   -0.586688
     23          1           0        6.041678    0.318092   -0.117326
     24          1           0        4.015345   -1.182532   -0.383513
     25          1           0       -3.103428   -2.030026   -0.988391
     26          1           0       -2.724297   -2.429156    0.686754
     27          1           0       -4.868763   -1.142124    0.607411
     28          1           0       -3.605358   -0.210226    1.448933
     29          1           0       -4.606086    0.261888   -1.294681
     30          1           0       -4.463507    1.334091   -0.039466
     31          1           0       -3.014638    0.694705   -0.780630
 ---------------------------------------------------------------------

 SCF Done:  E(RB3LYP) =  -796.497232495     A.U. after    1 cycles

 Alpha  occ. eigenvalues --  -19.31625 -19.29025 -19.26400 -14.60245 -14.52378
 Alpha  occ. eigenvalues --  -14.47281 -14.38604 -10.46058 -10.44601 -10.41984
 Alpha  occ. eigenvalues --  -10.37992 -10.37515 -10.31711 -10.31627 -10.30390
 Alpha  occ. eigenvalues --  -10.27592  -1.22956  -1.20875  -1.14873  -1.13929
 Alpha  occ. eigenvalues --   -1.09163  -1.08637  -0.95807  -0.94885  -0.91375
 Alpha  occ. eigenvalues --   -0.84964  -0.82349  -0.78055  -0.76898  -0.74507
 Alpha  occ. eigenvalues --   -0.73428  -0.71651  -0.69325  -0.67831  -0.66747
 Alpha  occ. eigenvalues --   -0.65654  -0.63436  -0.62241  -0.61641  -0.60144
 Alpha  occ. eigenvalues --   -0.59298  -0.57834  -0.57189  -0.56419  -0.55537
 Alpha  occ. eigenvalues --   -0.53894  -0.53179  -0.51853  -0.51365  -0.50363
 Alpha  occ. eigenvalues --   -0.49024  -0.48358  -0.47932  -0.44082  -0.42934
 Alpha  occ. eigenvalues --   -0.42309  -0.39872  -0.35773  -0.33951  -0.30448
 Alpha virt. eigenvalues --   -0.14992  -0.12032  -0.11448  -0.07357  -0.06758
 Alpha virt. eigenvalues --   -0.06000  -0.04914  -0.02657  -0.01965  -0.01574
 Alpha virt. eigenvalues --   -0.00927  -0.00304  -0.00050   0.00754   0.01839

 Mulliken charges:
               1
     1  O   -0.558629
     2  C    0.658200
     3  N   -0.503041
     4  C   -0.039447
     5  C    0.611025
     6  O   -0.445948
     7  O   -0.479136
     8  C   -0.253232
     9  C    0.294122
    10  C    0.002498
    11  N   -0.427889
    12  C    0.270796
    13  N   -0.543888
    14  C   -0.302538
    15  C   -0.123701
    16  N   -0.569341
    17  H    0.293823
    18  H    0.155487
    19  H    0.345891
    20  H    0.131512
    21  H    0.162933
    22  H    0.095107
    23  H    0.132685
    24  H    0.264069
    25  H    0.177096
    26  H    0.162405
    27  H    0.184697
    28  H    0.206431
    29  H    0.344532
    30  H    0.352648
    31  H    0.400832
 Sum of Mulliken charges =   1.00000

 Dipole moment (field-independent basis, Debye):
    X=            -13.1148    Y=             -5.1379    Z=              0.9954  Tot=             14.1204
 Quadrupole moment (field-independent basis, Debye-Ang):
   XX=            -24.0790   YY=            -79.0061   ZZ=            -84.7098
   XY=            -15.0974   XZ=              8.2856   YZ=              1.1546

  Exact polarizability: 170.149   8.262 114.606   3.922  -0.114  87.183
 Approx polarizability: 221.203   1.816 192.158   9.029  -5.949 130.708

                      1                      2                      3
                      A                      A                      A
 Frequencies --     17.1044                23.6104                43.4547
 Red. masses --      4.9838                 4.7331                 4.7323
 Frc consts  --      0.0009                 0.0016                 0.0053
 IR Inten    --      3.5019                11.8326                 0.8049

                      4                      5                      6
                      A                      A                      A
 Frequencies --     63.4249                73.5145                79.4183
 Red. masses --      5.9512                 4.0983                 4.6786
 Frc consts  --      0.0141                 0.0130                 0.0174
 IR Inten    --      4.4293                 2.3556                 6.6144

                      7                      8                      9
                      A                      A                      A
 Frequencies --    117.6148               150.8178               184.6015
 Red. masses --      5.3170                 6.0092                 3.2165
 Frc consts  --      0.0433                 0.0805                 0.0646
 IR Inten    --      2.6331                 6.1256                 3.8837

                     10                     11                     12
                      A                      A                      A
 Frequencies --    209.1998               278.5983               310.2289
 Red. masses --      3.7393                 4.6382                 3.8830
 Frc consts  --      0.0964                 0.2121                 0.2202
 IR Inten    --      6.4385                20.9789                67.6755

                     13                     14                     15
                      A                      A                      A
 Frequencies --    320.1519               351.8967               373.9798
 Red. masses --      2.1070                 4.1553                 4.2239
 Frc consts  --      0.1272                 0.3032                 0.3481
 IR Inten    --      1.3128                66.0261                54.5111

                     16                     17                     18
                      A                      A                      A
 Frequencies --    379.5172               401.7884               459.6749
 Red. masses --      2.5485                 1.4766                 2.8927
 Frc consts  --      0.2163                 0.1404                 0.3601
 IR Inten    --     24.5539                 8.9822                11.4359

                     19                     20                     21
                      A                      A                      A
 Frequencies --    499.8700               518.3916               564.5042
 Red. masses --      1.4187                 2.8327                 1.9490
 Frc consts  --      0.2089                 0.4485                 0.3659
 IR Inten    --     85.9116                73.5338                13.4732

                     22                     23                     24
                      A                      A                      A
 Frequencies --    599.1824               619.8475               658.9346
 Red. masses --      1.8195                 1.4143                 2.6307
 Frc consts  --      0.3849                 0.3201                 0.6730
 IR Inten    --     63.5796                81.7908                42.7776

                     25                     26                     27
                      A                      A                      A
 Frequencies --    676.5291               696.6206               732.1596
 Red. masses --      3.1791                 4.3656                 3.6581
 Frc consts  --      0.8573                 1.2482                 1.1554
 IR Inten    --      5.8605                 6.5437                25.9460

                     28                     29                     30
                      A                      A                      A
 Frequencies --    741.6476               776.6522               791.5961
 Red. masses --      3.1482                 3.3784                 2.8577
 Frc consts  --      1.0202                 1.2006                 1.0550
 IR Inten    --     42.5243                13.1514                22.2462

                     31                     32                     33
                      A                      A                      A
 Frequencies --    821.0478               846.9213               860.5863
 Red. masses --      1.3846                 2.5832                 1.4115
 Frc consts  --      0.5499                 1.0917                 0.6159
 IR Inten    --     15.1283                32.5141                11.8742

                     34                     35                     36
                      A                      A                      A
 Frequencies --    892.7009               927.2972               934.1649
 Red. masses --      2.6295                 5.8061                 1.9583
 Frc consts  --      1.2346                 2.9415                 1.0069
 IR Inten    --     38.7913                 9.5988                22.7615

                     37                     38                     39
                      A                      A                      A
 Frequencies --    958.1947               981.1121              1000.7859
 Red. masses --      1.4050                 2.5765                 3.0024
 Frc consts  --      0.7601                 1.4612                 1.7717
 IR Inten    --      5.5820                 2.6968                 6.6897

                     40                     41                     42
                      A                      A                      A
 Frequencies --   1020.8273              1039.7582              1085.3523
 Red. masses --      3.7752                 4.0476                 3.1433
 Frc consts  --      2.3179                 2.5782                 2.1816
 IR Inten    --     10.5153                 1.8579                13.5907

                     43                     44                     45
                      A                      A                      A
 Frequencies --   1112.6194              1131.5619              1137.8379
 Red. masses --      1.6337                 1.3754                 1.4571
 Frc consts  --      1.1915                 1.0376                 1.1114
 IR Inten    --     27.2492                97.0733                39.9196

                     46                     47                     48
                      A                      A                      A
 Frequencies --   1160.1295              1179.5550              1190.4463
 Red. masses --      1.9238                 1.5964                 1.7708
 Frc consts  --      1.5255                 1.3087                 1.4786
 IR Inten    --     19.4751                71.0941               115.8758

                     49                     50                     51
                      A                      A                      A
 Frequencies --   1262.1332              1272.1672              1286.1297
 Red. masses --      1.4404                 2.1360                 1.3721
 Frc consts  --      1.3519                 2.0368                 1.3372
 IR Inten    --      7.1393                12.0301                 2.2243

                     52                     53                     54
                      A                      A                      A
 Frequencies --   1308.6485              1318.0240              1321.5918
 Red. masses --      1.5258                 1.3551                 1.2808
 Frc consts  --      1.5396                 1.3870                 1.3180
 IR Inten    --     21.7230                43.4309                46.1640

                     55                     56                     57
                      A                      A                      A
 Frequencies --   1330.3442              1362.6185              1388.1606
 Red. masses --      1.3905                 1.5082                 1.5509
 Frc consts  --      1.4499                 1.6499                 1.7608
 IR Inten    --     34.3919                34.0316                82.7596

                     58                     59                     60
                      A                      A                      A
 Frequencies --   1395.1576              1403.6496              1430.4835
 Red. masses --      3.2857                 1.2216                 2.4157
 Frc consts  --      3.7681                 1.4180                 2.9124
 IR Inten    --     52.6610                79.5606                36.3642

                     61                     62                     63
                      A                      A                      A
 Frequencies --   1443.2922              1474.3404              1483.3123
 Red. masses --      2.9365                 1.2514                 1.1287
 Frc consts  --      3.6041                 1.6027                 1.4632
 IR Inten    --     28.9291               454.3407                86.5096

                     64                     65                     66
                      A                      A                      A
 Frequencies --   1500.1336              1513.0407              1516.3206
 Red. masses --      1.1503                 3.3465                 1.0808
 Frc consts  --      1.5252                 4.5138                 1.4641
 IR Inten    --      4.4652                24.4462                78.1333

                     67                     68                     69
                      A                      A                      A
 Frequencies --   1581.4855              1622.1961              1634.5587
 Red. masses --      2.2232                 4.5199                 1.1115
 Frc consts  --      3.2760                 7.0078                 1.7497
 IR Inten    --    137.5554                 5.7232                 5.1982

                     70                     71                     72
                      A                      A                      A
 Frequencies --   1675.9477              1727.5008              1826.5491
 Red. masses --      1.0448                 3.7504                10.5428
 Frc consts  --      1.7291                 6.5942                20.7238
 IR Inten    --     30.9208               108.0545               346.5780

                     73                     74                     75
                      A                      A                      A
 Frequencies --   2444.9982              3044.4143              3066.1679
 Red. masses --      1.1012                 1.0717                 1.0660
 Frc consts  --      3.8787                 5.8521                 5.9046
 IR Inten    --   1181.5029                19.3255                 1.1013

                     76                     77                     78
                      A                      A                      A
 Frequencies --   3095.2925              3107.3433              3131.3008
 Red. masses --      1.0856                 1.0611                 1.0994
 Frc consts  --      6.1282                 6.0364                 6.3513
 IR Inten    --      4.8483                 1.7673                 1.7370

                     79                     80                     81
                      A                      A                      A
 Frequencies --   3150.6701              3170.9559              3249.5979
 Red. masses --      1.0924                 1.1124                 1.0965
 Frc consts  --      6.3891                 6.5899                 6.8220
 IR Inten    --      0.8607                 0.3413                 5.5579

                     82                     83                     84
                      A                      A                      A
 Frequencies --   3265.1857              3466.4038              3540.3980
 Red. masses --      1.0977                 1.0525                 1.0952
 Frc consts  --      6.8954                 7.4514                 8.0879
 IR Inten    --      0.4697                86.2727                75.5597

                     85                     86                     87
                      A                      A                      A
 Frequencies --   3627.2403              3655.4878              3739.5666
 Red. masses --      1.0784                 1.0811                 1.0645
 Frc consts  --      8.3596                 8.5116                 8.7711
 IR Inten    --     47.5463                42.7297                92.1202

 - Thermochemistry -
 -------------------
 Temperature   298.150 Kelvin.  Pressure   1.00000 Atm.
 Atom     1 has atomic number  8 and mass  15.99491

 Molecular mass:   227.11442 amu.
 Principal axes and moments of inertia in atomic units:
                           1         2         3
     Eigenvalues --  1405.767557358.780937631.55006
           X            0.97979  -0.05159  -0.19325
           Y            0.19753   0.40142   0.89434
           Z           -0.03143   0.91444  -0.40350
 This molecule is an asymmetric top.
 Rotational symmetry number  1.
 Warning -- assumption of classical behavior for rotation
           may cause significant error
 Rotational temperatures (Kelvin)      0.06161     0.01177     0.01135
 Rotational constants (GHZ):           1.28381     0.24525     0.23648
 Zero-point vibrational energy     680844.1 (Joules/Mol)
                                  162.72564 (Kcal/Mol)
 Warning -- explicit consideration of  23 degrees of freedom as
           vibrations may cause significant error
 Vibrational temperatures:     24.61    33.97    62.52    91.25   105.77
          (Kelvin)            114.27   169.22   216.99   265.60   300.99
                              400.84   446.35   460.63   506.30   538.07
                              546.04   578.08   661.37   719.20   745.85
                              812.19   862.09   891.82   948.06   973.37
                             1002.28  1053.41  1067.06  1117.43  1138.93
                             1181.30  1218.53  1238.19  1284.40  1334.17
                             1344.05  1378.63  1411.60  1439.91  1468.74
                             1495.98  1561.58  1600.81  1628.06  1637.09
                             1669.17  1697.11  1712.78  1815.93  1830.36
                             1850.45  1882.85  1896.34  1901.47  1914.07
                             1960.50  1997.25  2007.32  2019.54  2058.14
                             2076.57  2121.24  2134.15  2158.35  2176.93
                             2181.64  2275.40  2333.98  2351.76  2411.31
                             2485.49  2627.99  3517.80  4380.23  4411.53
                             4453.43  4470.77  4505.24  4533.11  4562.29
                             4675.44  4697.87  4987.38  5093.84  5218.78
                             5259.43  5380.40

 Zero-point correction=                           0.259320 (Hartree/Particle)
 Thermal correction to Energy=                    0.274985
 Thermal correction to Enthalpy=                  0.275930
 Thermal correction to Gibbs Free Energy=         0.213371
 Sum of electronic and zero-point Energies=           -796.237913
 Sum of electronic and thermal Energies=              -796.222247
 Sum of electronic and thermal Enthalpies=            -796.221303
 Sum of electronic and thermal Free Energies=         -796.283862

                     E (Thermal)             CV                S
                      KCal/Mol        Cal/Mol-Kelvin    Cal/Mol-Kelvin
 Total                  172.556             57.938            131.666
 Electronic               0.000              0.000              0.000
 Translational            0.889              2.981             42.163
 Rotational               0.889              2.981             32.734
 Vibrational            170.779             51.976             56.768
 Vibration     1          0.593              1.986              6.945
 Vibration     2          0.593              1.985              6.305
 Vibration     3          0.595              1.980              5.095
 Vibration     4          0.597              1.972              4.348
 Vibration     5          0.599              1.966              4.057
 Vibration     6          0.600              1.963              3.905
 Vibration     7          0.608              1.935              3.139
 Vibration     8          0.618              1.902              2.662
 Vibration     9          0.631              1.861              2.281
 Vibration    10          0.642              1.827              2.051
 Vibration    11          0.679              1.713              1.542
 Vibration    12          0.699              1.654              1.361
 Vibration    13          0.706              1.635              1.309
 Vibration    14          0.728              1.571              1.158
 Vibration    15          0.745              1.526              1.063
 Vibration    16          0.750              1.514              1.041
 Vibration    17          0.767              1.466              0.956
 Vibration    18          0.818              1.339              0.767
 Vibration    19          0.855              1.250              0.658
 Vibration    20          0.873              1.209              0.614
 Vibration    21          0.920              1.108              0.515
 Vibration    22          0.957              1.034              0.451
 Vibration    23          0.980              0.990              0.417

 Optimization completed.
    -- Stationary point found.
 Normal termination of Gaussian 09 at Wed Jul 28 23:08:17 2021.
