 Gaussian 09, Revision D.01,
 Gaussian 09:  ES64L-G09RevD.01 24-Apr-2013

 ----------------------------------------------------------------------
 # B3LYP/6-31G(d,p) opt=calcfc freq=noraman nosymm integral(ultrafinegr
 id)
 ----------------------------------------------------------------------

 ------------------------------------------------------------
 Candidate Structure: Conf:628 OPT and FREQ calc in gas phase
 ------------------------------------------------------------
 Symbolic Z-matrix:
 Charge =  1 Multiplicity = 1

 SCF Done:  E(RB3LYP) =  -796.495144274     A.U. after   14 cycles
 SCF Done:  E(RB3LYP) =  -796.502837872     A.U. after   12 cycles
 SCF Done:  E(RB3LYP) =  -796.504281311     A.U. after   14 cycles
 SCF Done:  E(RB3LYP) =  -796.505001503     A.U. after   11 cycles
 SCF Done:  E(RB3LYP) =  -796.505334528     A.U. after   12 cycles
 SCF Done:  E(RB3LYP) =  -796.505369747     A.U. after   10 cycles
 SCF Done:  E(RB3LYP) =  -796.505383323     A.U. after   10 cycles
 SCF Done:  E(RB3LYP) =  -796.505386217     A.U. after    9 cycles
 SCF Done:  E(RB3LYP) =  -796.505386968     A.U. after    8 cycles
 SCF Done:  E(RB3LYP) =  -796.505387050     A.U. after    7 cycles
 Optimization completed.
    -- Stationary point found.
 Normal termination of Gaussian 09 at Wed Jul 28 22:33:54 2021.

 ----------------------------------------------------------------------
 #N Geom=AllCheck Guess=TCheck SCRF=Check GenChk RB3LYP/6-31G(d,p) Freq
 ----------------------------------------------------------------------

 Structure from the checkpoint file:  "conf-628.chk"
 ------------------------------------------------------------
 Candidate Structure: Conf:628 OPT and FREQ calc in gas phase
 ------------------------------------------------------------
 Charge =  1 Multiplicity = 1

                          Input orientation:
 ---------------------------------------------------------------------
 Center     Atomic      Atomic             Coordinates (Angstroms)
 Number     Number       Type             X           Y           Z
 ---------------------------------------------------------------------
      1          8           0       -1.446217   -0.067934   -0.864065
      2          6           0       -1.549610   -0.203976    0.379885
      3          7           0       -0.491029   -0.358898    1.168172
      4          6           0        0.886327   -0.420327    0.671245
      5          6           0        1.689845   -1.013051    1.825742
      6          8           0        2.983945   -1.189636    1.520665
      7          8           0        1.211385   -1.275855    2.908305
      8          6           0        1.426195    0.976485    0.205346
      9          6           0        2.380452    0.930350   -0.942140
     10          6           0        2.214747    1.315884   -2.253721
     11          7           0        3.361591    1.113674   -2.980532
     12          6           0        4.223913    0.606911   -2.125726
     13          7           0        3.687105    0.477937   -0.876392
     14          6           0       -2.930504   -0.155597    1.037188
     15          6           0       -4.011233   -0.736964    0.115606
     16          7           0       -3.938472   -0.052746   -1.230566
     17          1           0       -0.593108   -0.552637    2.161643
     18          1           0        0.923853   -1.102803   -0.184145
     19          1           0        3.420859   -1.563940    2.307068
     20          1           0        0.559825    1.550966   -0.129039
     21          1           0        1.842113    1.509241    1.069359
     22          1           0        1.326964    1.738554   -2.705236
     23          1           0        5.241612    0.318002   -2.349370
     24          1           0        4.129449    0.073026   -0.065304
     25          1           0       -2.944994   -0.705452    1.982117
     26          1           0       -3.158204    0.890548    1.280048
     27          1           0       -3.834642   -1.798493   -0.070338
     28          1           0       -5.011306   -0.617200    0.534306
     29          1           0       -4.345286    0.885287   -1.211425
     30          1           0       -2.850710    0.015095   -1.390474
     31          1           0       -4.404844   -0.586170   -1.966826
 ---------------------------------------------------------------------

 SCF Done:  E(RB3LYP) =  -796.505387050     A.U. after    1 cycles

 Alpha  occ. eigenvalues --  -19.33539 -19.29509 -19.27963 -14.60204 -14.52285
 Alpha  occ. eigenvalues --  -14.46905 -14.38588 -10.46247 -10.46014 -10.42282
 Alpha  occ. eigenvalues --  -10.37927 -10.37864 -10.32155 -10.31516 -10.30414
 Alpha  occ. eigenvalues --  -10.27692  -1.24591  -1.21179  -1.15773  -1.14859
 Alpha  occ. eigenvalues --   -1.09098  -1.08656  -0.96077  -0.94781  -0.91802
 Alpha  occ. eigenvalues --   -0.85439  -0.82828  -0.78254  -0.77035  -0.74794
 Alpha  occ. eigenvalues --   -0.73760  -0.72327  -0.69272  -0.67839  -0.66900
 Alpha  occ. eigenvalues --   -0.65711  -0.64095  -0.62549  -0.61784  -0.60965
 Alpha  occ. eigenvalues --   -0.60288  -0.58780  -0.57856  -0.56163  -0.55908
 Alpha  occ. eigenvalues --   -0.54886  -0.54208  -0.52304  -0.51433  -0.50077
 Alpha  occ. eigenvalues --   -0.49286  -0.49166  -0.48118  -0.45587  -0.43585
 Alpha  occ. eigenvalues --   -0.42129  -0.41602  -0.35698  -0.33964  -0.30574
 Alpha virt. eigenvalues --   -0.15001  -0.12576  -0.12167  -0.07083  -0.05891
 Alpha virt. eigenvalues --   -0.05693  -0.05213  -0.04002  -0.01753  -0.01389
 Alpha virt. eigenvalues --   -0.00861  -0.00199   0.00489   0.01207   0.01630

 Mulliken charges:
               1
     1  O   -0.564675
     2  C    0.635786
     3  N   -0.523341
     4  C    0.005857
     5  C    0.597933
     6  O   -0.481655
     7  O   -0.455396
     8  C   -0.260525
     9  C    0.278786
    10  C    0.001899
    11  N   -0.428347
    12  C    0.267900
    13  N   -0.529614
    14  C   -0.305382
    15  C   -0.120701
    16  N   -0.574609
    17  H    0.307476
    18  H    0.185255
    19  H    0.354416
    20  H    0.144293
    21  H    0.137106
    22  H    0.089275
    23  H    0.131287
    24  H    0.272085
    25  H    0.176618
    26  H    0.180994
    27  H    0.191667
    28  H    0.186481
    29  H    0.343518
    30  H    0.404867
    31  H    0.350747
 Sum of Mulliken charges =   1.00000

 Dipole moment (field-independent basis, Debye):
    X=            -11.8421    Y=             -2.2994    Z=              2.8742  Tot=             12.4009
 Quadrupole moment (field-independent basis, Debye-Ang):
   XX=             -4.9910   YY=            -87.4237   ZZ=            -93.5618
   XY=             -6.1248   XZ=             24.9858   YZ=              2.5256

  Exact polarizability: 159.050  -5.612  82.046  -6.296 -16.656 132.124
 Approx polarizability: 202.332 -15.282 124.116  -6.047 -23.594 216.016

                      1                      2                      3
                      A                      A                      A
 Frequencies --     27.4585                33.3455                51.7768
 Red. masses --      4.9947                 4.0578                 4.8145
 Frc consts  --      0.0022                 0.0027                 0.0076
 IR Inten    --      3.5087                 9.4517                 2.1195

                      4                      5                      6
                      A                      A                      A
 Frequencies --     61.6926                75.1962               101.1548
 Red. masses --      5.1628                 5.2930                 5.2973
 Frc consts  --      0.0116                 0.0176                 0.0319
 IR Inten    --      5.8228                 2.7789                 6.9178

                      7                      8                      9
                      A                      A                      A
 Frequencies --    118.7066               133.8042               188.9252
 Red. masses --      5.0088                 5.4516                 4.9783
 Frc consts  --      0.0416                 0.0575                 0.1047
 IR Inten    --      2.1839                 0.3806                 7.5115

                     10                     11                     12
                      A                      A                      A
 Frequencies --    207.2373               262.0132               288.1991
 Red. masses --      2.1981                 5.1868                 4.1043
 Frc consts  --      0.0556                 0.2098                 0.2009
 IR Inten    --     30.4894                68.7478                 3.4267

                     13                     14                     15
                      A                      A                      A
 Frequencies --    320.7729               347.0544               386.4887
 Red. masses --      2.0853                 6.3962                 3.6890
 Frc consts  --      0.1264                 0.4539                 0.3247
 IR Inten    --     12.6252                 0.6750                 4.4047

                     16                     17                     18
                      A                      A                      A
 Frequencies --    395.6179               413.0278               462.4501
 Red. masses --      4.0331                 1.5744                 1.8430
 Frc consts  --      0.3719                 0.1582                 0.2322
 IR Inten    --    199.5082                 5.8187                 3.6517

                     19                     20                     21
                      A                      A                      A
 Frequencies --    539.3380               544.4477               588.8475
 Red. masses --      2.0422                 2.0001                 2.4894
 Frc consts  --      0.3500                 0.3493                 0.5086
 IR Inten    --     66.2934                67.1766                 7.2217

                     22                     23                     24
                      A                      A                      A
 Frequencies --    607.7973               643.6541               666.4298
 Red. masses --      2.3977                 2.9958                 2.1467
 Frc consts  --      0.5219                 0.7313                 0.5617
 IR Inten    --     26.2722                71.1380               110.0852

                     25                     26                     27
                      A                      A                      A
 Frequencies --    680.2473               680.9559               730.7949
 Red. masses --      2.0567                 1.4182                 2.9369
 Frc consts  --      0.5607                 0.3874                 0.9241
 IR Inten    --      8.1356                23.6605                15.0070

                     28                     29                     30
                      A                      A                      A
 Frequencies --    735.4810               769.3345               819.3164
 Red. masses --      2.8967                 4.0053                 2.6095
 Frc consts  --      0.9232                 1.3967                 1.0321
 IR Inten    --     48.9804                10.0679                 7.0588

                     31                     32                     33
                      A                      A                      A
 Frequencies --    824.5353               850.4615               853.9679
 Red. masses --      1.3712                 2.1949                 1.5258
 Frc consts  --      0.5493                 0.9353                 0.6556
 IR Inten    --     16.5366                46.0550                16.6676

                     34                     35                     36
                      A                      A                      A
 Frequencies --    890.6737               930.0247               950.5766
 Red. masses --      2.1504                 5.9883                 2.3928
 Frc consts  --      1.0051                 3.0517                 1.2739
 IR Inten    --     90.4303                11.6288                 4.0726

                     37                     38                     39
                      A                      A                      A
 Frequencies --    955.0038              1000.3885              1005.2203
 Red. masses --      1.3668                 3.7992                 3.4071
 Frc consts  --      0.7344                 2.2401                 2.0284
 IR Inten    --      6.9922                 1.5483                 4.4122

                     40                     41                     42
                      A                      A                      A
 Frequencies --   1024.4856              1031.3644              1099.2904
 Red. masses --      3.7510                 3.2946                 3.1442
 Frc consts  --      2.3196                 2.0648                 2.2387
 IR Inten    --     24.9865                13.1328                12.4435

                     43                     44                     45
                      A                      A                      A
 Frequencies --   1119.5326              1133.2205              1139.8695
 Red. masses --      1.6001                 1.3883                 1.5222
 Frc consts  --      1.1816                 1.0504                 1.1653
 IR Inten    --     38.8805               112.5371                78.5491

                     46                     47                     48
                      A                      A                      A
 Frequencies --   1160.7850              1188.8839              1203.5722
 Red. masses --      1.8998                 1.2850                 2.3383
 Frc consts  --      1.5082                 1.0702                 1.9957
 IR Inten    --     16.9110                 4.3885               195.7765

                     49                     50                     51
                      A                      A                      A
 Frequencies --   1253.7906              1276.1959              1283.0678
 Red. masses --      1.4365                 1.7801                 1.6085
 Frc consts  --      1.3305                 1.7082                 1.5602
 IR Inten    --     24.9441                 7.9854                 3.2135

                     52                     53                     54
                      A                      A                      A
 Frequencies --   1293.7003              1305.3422              1313.0443
 Red. masses --      1.3395                 1.2294                 1.2603
 Frc consts  --      1.3209                 1.2342                 1.2802
 IR Inten    --     29.2360               193.5226                 2.7974

                     55                     56                     57
                      A                      A                      A
 Frequencies --   1327.5835              1366.4555              1380.5227
 Red. masses --      1.3760                 1.4838                 1.5312
 Frc consts  --      1.4289                 1.6323                 1.7194
 IR Inten    --      7.3845                53.1039                28.7572

                     58                     59                     60
                      A                      A                      A
 Frequencies --   1395.0751              1399.6490              1438.6479
 Red. masses --      1.3884                 3.0929                 2.4541
 Frc consts  --      1.5921                 3.5699                 2.9927
 IR Inten    --    169.4972                32.2744                91.0014

                     61                     62                     63
                      A                      A                      A
 Frequencies --   1446.6296              1459.2810              1475.5303
 Red. masses --      2.9034                 1.3436                 1.0884
 Frc consts  --      3.5800                 1.6857                 1.3961
 IR Inten    --     32.5479               494.9620                22.9934

                     64                     65                     66
                      A                      A                      A
 Frequencies --   1485.5345              1513.3950              1518.4644
 Red. masses --      1.1440                 3.5517                 1.0781
 Frc consts  --      1.4874                 4.7928                 1.4647
 IR Inten    --     10.3709                23.3343                37.6148

                     67                     68                     69
                      A                      A                      A
 Frequencies --   1575.9605              1616.9242              1634.5168
 Red. masses --      2.8331                 4.3712                 1.1212
 Frc consts  --      4.1457                 6.7333                 1.7648
 IR Inten    --    239.3517                 3.5392                31.1932

                     70                     71                     72
                      A                      A                      A
 Frequencies --   1679.4356              1725.9379              1834.8533
 Red. masses --      1.0709                 3.5667                 9.7762
 Frc consts  --      1.7797                 6.2599                19.3920
 IR Inten    --     75.7525               135.3385               278.8463

                     73                     74                     75
                      A                      A                      A
 Frequencies --   2343.6140              3048.3026              3056.4427
 Red. masses --      1.1056                 1.0693                 1.0682
 Frc consts  --      3.5778                 5.8543                 5.8796
 IR Inten    --   1254.1908                18.6394                 0.9707

                     76                     77                     78
                      A                      A                      A
 Frequencies --   3088.1934              3106.6723              3124.7860
 Red. masses --      1.0842                 1.0623                 1.0958
 Frc consts  --      6.0922                 6.0405                 6.3042
 IR Inten    --      3.5790                 2.4641                 0.4622

                     79                     80                     81
                      A                      A                      A
 Frequencies --   3127.0222              3166.5658              3248.3690
 Red. masses --      1.0955                 1.1113                 1.0962
 Frc consts  --      6.3115                 6.5653                 6.8152
 IR Inten    --      4.4666                 0.6222                 6.7674

                     82                     83                     84
                      A                      A                      A
 Frequencies --   3265.3709              3466.5168              3537.4755
 Red. masses --      1.0977                 1.0524                 1.0788
 Frc consts  --      6.8959                 7.4510                 7.9539
 IR Inten    --      0.4623                83.2178               149.8797

                     85                     86                     87
                      A                      A                      A
 Frequencies --   3540.5040              3669.0724              3731.5791
 Red. masses --      1.0951                 1.0811                 1.0644
 Frc consts  --      8.0878                 8.5753                 8.7328
 IR Inten    --     71.8703                77.1588               122.8713

 - Thermochemistry -
 -------------------
 Temperature   298.150 Kelvin.  Pressure   1.00000 Atm.
 Atom     1 has atomic number  8 and mass  15.99491

 Molecular mass:   227.11442 amu.
 Principal axes and moments of inertia in atomic units:
                           1         2         3
     Eigenvalues --  2466.327246070.827438217.20314
           X            0.97546   0.21609  -0.04227
           Y            0.12437  -0.38234   0.91561
           Z           -0.18169   0.89840   0.39983
 This molecule is an asymmetric top.
 Rotational symmetry number  1.
 Warning -- assumption of classical behavior for rotation
           may cause significant error
 Rotational temperatures (Kelvin)      0.03512     0.01427     0.01054
 Rotational constants (GHZ):           0.73175     0.29728     0.21963
 Zero-point vibrational energy     680456.5 (Joules/Mol)
                                  162.63301 (Kcal/Mol)
 Warning -- explicit consideration of  22 degrees of freedom as
           vibrations may cause significant error
 Vibrational temperatures:     39.51    47.98    74.50    88.76   108.19
          (Kelvin)            145.54   170.79   192.51   271.82   298.17
                              376.98   414.65   461.52   499.33   556.07
                              569.21   594.25   665.36   775.99   783.34
                              847.22   874.48   926.07   958.84   978.72
                              979.74  1051.45  1058.19  1106.90  1178.81
                             1186.32  1223.62  1228.67  1281.48  1338.10
                             1367.67  1374.04  1439.33  1446.29  1474.00
                             1483.90  1581.63  1610.76  1630.45  1640.02
                             1670.11  1710.54  1731.67  1803.92  1836.16
                             1846.05  1861.34  1878.09  1889.18  1910.09
                             1966.02  1986.26  2007.20  2013.78  2069.89
                             2081.37  2099.58  2122.96  2137.35  2177.44
                             2184.73  2267.45  2326.39  2351.70  2416.33
                             2483.24  2639.94  3371.93  4385.82  4397.53
                             4443.22  4469.80  4495.86  4499.08  4555.98
                             4673.67  4698.13  4987.54  5089.63  5093.99
                             5278.97  5368.90

 Zero-point correction=                           0.259172 (Hartree/Particle)
 Thermal correction to Energy=                    0.274687
 Thermal correction to Enthalpy=                  0.275631
 Thermal correction to Gibbs Free Energy=         0.214017
 Sum of electronic and zero-point Energies=           -796.246215
 Sum of electronic and thermal Energies=              -796.230700
 Sum of electronic and thermal Enthalpies=            -796.229756
 Sum of electronic and thermal Free Energies=         -796.291370

                     E (Thermal)             CV                S
                      KCal/Mol        Cal/Mol-Kelvin    Cal/Mol-Kelvin
 Total                  172.368             57.600            129.678
 Electronic               0.000              0.000              0.000
 Translational            0.889              2.981             42.163
 Rotational               0.889              2.981             33.175
 Vibrational            170.591             51.638             54.339
 Vibration     1          0.593              1.984              6.005
 Vibration     2          0.594              1.983              5.620
 Vibration     3          0.596              1.977              4.748
 Vibration     4          0.597              1.973              4.402
 Vibration     5          0.599              1.966              4.013
 Vibration     6          0.604              1.948              3.432
 Vibration     7          0.609              1.934              3.121
 Vibration     8          0.613              1.920              2.891
 Vibration     9          0.633              1.855              2.238
 Vibration    10          0.641              1.830              2.068
 Vibration    11          0.669              1.742              1.648
 Vibration    12          0.685              1.696              1.485
 Vibration    13          0.706              1.634              1.306
 Vibration    14          0.725              1.581              1.180
 Vibration    15          0.755              1.499              1.014
 Vibration    16          0.762              1.480              0.979
 Vibration    17          0.777              1.442              0.916
 Vibration    18          0.820              1.333              0.759
 Vibration    19          0.894              1.163              0.567
 Vibration    20          0.900              1.152              0.556
 Vibration    21          0.946              1.056              0.469
 Vibration    22          0.967              1.015              0.436

 Optimization completed.
    -- Stationary point found.
 Normal termination of Gaussian 09 at Wed Jul 28 22:54:05 2021.
