 Gaussian 09, Revision D.01,
 Gaussian 09:  ES64L-G09RevD.01 24-Apr-2013

 ----------------------------------------------------------------------
 # B3LYP/6-31G(d,p) opt=calcfc freq=noraman nosymm integral(ultrafinegr
 id)
 ----------------------------------------------------------------------

 -----------------------------------------------------------
 Candidate Structure: Conf:55 OPT and FREQ calc in gas phase
 -----------------------------------------------------------
 Symbolic Z-matrix:
 Charge =  1 Multiplicity = 1

 SCF Done:  E(RB3LYP) =  -796.467119766     A.U. after   14 cycles
 SCF Done:  E(RB3LYP) =  -796.473788746     A.U. after   14 cycles
 SCF Done:  E(RB3LYP) =  -796.475026773     A.U. after   14 cycles
 SCF Done:  E(RB3LYP) =  -796.473487352     A.U. after   14 cycles
 SCF Done:  E(RB3LYP) =  -796.475136195     A.U. after   11 cycles
 SCF Done:  E(RB3LYP) =  -796.469148232     A.U. after   12 cycles
 SCF Done:  E(RB3LYP) =  -796.475482238     A.U. after    9 cycles
 SCF Done:  E(RB3LYP) =  -796.475696648     A.U. after   11 cycles
 SCF Done:  E(RB3LYP) =  -796.476046900     A.U. after   12 cycles
 SCF Done:  E(RB3LYP) =  -796.476227667     A.U. after   12 cycles
 SCF Done:  E(RB3LYP) =  -796.476398313     A.U. after   11 cycles
 SCF Done:  E(RB3LYP) =  -796.476475348     A.U. after   11 cycles
 SCF Done:  E(RB3LYP) =  -796.476521400     A.U. after   10 cycles
 SCF Done:  E(RB3LYP) =  -796.476555966     A.U. after   10 cycles
 SCF Done:  E(RB3LYP) =  -796.476560897     A.U. after    9 cycles
 SCF Done:  E(RB3LYP) =  -796.476561451     A.U. after    8 cycles
 SCF Done:  E(RB3LYP) =  -796.476561483     A.U. after    7 cycles
 SCF Done:  E(RB3LYP) =  -796.476561503     A.U. after    7 cycles
 SCF Done:  E(RB3LYP) =  -796.476561512     A.U. after    7 cycles
 Optimization completed.
    -- Stationary point found.
 Normal termination of Gaussian 09 at Wed Jul 28 22:46:34 2021.

 ----------------------------------------------------------------------
 #N Geom=AllCheck Guess=TCheck SCRF=Check GenChk RB3LYP/6-31G(d,p) Freq
 ----------------------------------------------------------------------

 Structure from the checkpoint file:  "conf-55.chk"
 -----------------------------------------------------------
 Candidate Structure: Conf:55 OPT and FREQ calc in gas phase
 -----------------------------------------------------------
 Charge =  1 Multiplicity = 1

                          Input orientation:
 ---------------------------------------------------------------------
 Center     Atomic      Atomic             Coordinates (Angstroms)
 Number     Number       Type             X           Y           Z
 ---------------------------------------------------------------------
      1          8           0        1.421220    0.707789    1.059816
      2          6           0        1.532246    0.101092   -0.002290
      3          7           0        0.531598   -0.538922   -0.631944
      4          6           0       -0.799832   -0.679449   -0.058654
      5          6           0       -1.441432   -1.873369   -0.795459
      6          8           0       -2.641047   -2.267008   -0.375389
      7          8           0       -0.872698   -2.419730   -1.716890
      8          6           0       -1.630837    0.628394   -0.181452
      9          6           0       -2.952654    0.549929    0.525487
     10          6           0       -3.307744    0.136987    1.796946
     11          7           0       -4.663580    0.263399    1.998430
     12          6           0       -5.135949    0.750018    0.873621
     13          7           0       -4.147287    0.937262   -0.052717
     14          6           0        2.899792    0.064097   -0.725000
     15          6           0        3.976292    0.213023    0.340993
     16          7           0        5.332534    0.548515   -0.275642
     17          1           0        0.683640   -1.136354   -1.441698
     18          1           0       -0.700857   -0.924251    1.005808
     19          1           0       -2.974221   -1.684866    0.337891
     20          1           0       -1.776489    0.855329   -1.243654
     21          1           0       -1.016953    1.431267    0.240330
     22          1           0       -2.656886   -0.212868    2.587833
     23          1           0       -6.172194    0.978450    0.666716
     24          1           0       -4.268362    1.290731   -0.990861
     25          1           0        3.023316   -0.853858   -1.308873
     26          1           0        2.926672    0.911987   -1.423015
     27          1           0        3.716132    1.023823    1.022737
     28          1           0        4.123255   -0.701115    0.918890
     29          1           0        5.650297   -0.185731   -0.917808
     30          1           0        5.289800    1.424316   -0.808599
     31          1           0        6.052064    0.661110    0.447218
 ---------------------------------------------------------------------

 SCF Done:  E(RB3LYP) =  -796.476561512     A.U. after    1 cycles

 Alpha  occ. eigenvalues --  -19.29011 -19.25024 -19.24039 -14.66549 -14.48814
 Alpha  occ. eigenvalues --  -14.48301 -14.39804 -10.43129 -10.42974 -10.42479
 Alpha  occ. eigenvalues --  -10.37145 -10.35913 -10.32583 -10.32001 -10.31566
 Alpha  occ. eigenvalues --  -10.29041  -1.20404  -1.20293  -1.17003  -1.12267
 Alpha  occ. eigenvalues --   -1.10350  -1.05449  -0.96300  -0.95951  -0.90815
 Alpha  occ. eigenvalues --   -0.85380  -0.82566  -0.78812  -0.78442  -0.77118
 Alpha  occ. eigenvalues --   -0.72379  -0.70654  -0.70269  -0.68957  -0.67569
 Alpha  occ. eigenvalues --   -0.66668  -0.64505  -0.62858  -0.59915  -0.59639
 Alpha  occ. eigenvalues --   -0.57719  -0.56739  -0.55759  -0.54670  -0.53649
 Alpha  occ. eigenvalues --   -0.53190  -0.52389  -0.51513  -0.50368  -0.50106
 Alpha  occ. eigenvalues --   -0.49340  -0.47923  -0.47146  -0.41525  -0.39334
 Alpha  occ. eigenvalues --   -0.38664  -0.37923  -0.36983  -0.35023  -0.31811
 Alpha virt. eigenvalues --   -0.16741  -0.11882  -0.09833  -0.09710  -0.09289
 Alpha virt. eigenvalues --   -0.06983  -0.06376  -0.03727  -0.03318  -0.02298
 Alpha virt. eigenvalues --   -0.01369  -0.01150   0.00698   0.01684   0.02531

 Mulliken charges:
               1
     1  O   -0.512620
     2  C    0.620747
     3  N   -0.540069
     4  C   -0.045489
     5  C    0.617416
     6  O   -0.463794
     7  O   -0.460071
     8  C   -0.221085
     9  C    0.225934
    10  C   -0.038411
    11  N   -0.414771
    12  C    0.272549
    13  N   -0.521591
    14  C   -0.306767
    15  C   -0.128154
    16  N   -0.547751
    17  H    0.294322
    18  H    0.165029
    19  H    0.339765
    20  H    0.120004
    21  H    0.166930
    22  H    0.111897
    23  H    0.143185
    24  H    0.278293
    25  H    0.151768
    26  H    0.161018
    27  H    0.223283
    28  H    0.198521
    29  H    0.368206
    30  H    0.367426
    31  H    0.374278
 Sum of Mulliken charges =   1.00000

 Dipole moment (field-independent basis, Debye):
    X=             19.8103    Y=              4.2548    Z=             -3.8632  Tot=             20.6271
 Quadrupole moment (field-independent basis, Debye-Ang):
   XX=             43.1911   YY=            -94.1303   ZZ=            -95.3977
   XY=             -0.0972   XZ=              2.1158   YZ=            -11.0630

  Exact polarizability: 170.745  -0.946  92.943 -12.106   4.731 110.583
 Approx polarizability: 207.062  -1.619 143.708 -15.509   7.073 195.389

                      1                      2                      3
                      A                      A                      A
 Frequencies --     26.1631                34.9171                47.0962
 Red. masses --      4.3944                 4.3432                 3.0704
 Frc consts  --      0.0018                 0.0031                 0.0040
 IR Inten    --      7.7368                 7.6488                 2.5235

                      4                      5                      6
                      A                      A                      A
 Frequencies --     49.9110                68.6648                86.5554
 Red. masses --      2.3061                 6.6975                 5.5773
 Frc consts  --      0.0034                 0.0186                 0.0246
 IR Inten    --      6.8851                10.7226                 7.8173

                      7                      8                      9
                      A                      A                      A
 Frequencies --     91.5465               115.4544               122.7080
 Red. masses --      5.2274                 5.0079                 4.7430
 Frc consts  --      0.0258                 0.0393                 0.0421
 IR Inten    --      5.9373                 7.6018                 6.1917

                     10                     11                     12
                      A                      A                      A
 Frequencies --    195.5609               223.2307               243.9413
 Red. masses --      5.1033                 1.5782                 1.9922
 Frc consts  --      0.1150                 0.0463                 0.0698
 IR Inten    --      5.0681                17.2175                16.5531

                     13                     14                     15
                      A                      A                      A
 Frequencies --    269.0885               315.4867               328.7799
 Red. masses --      5.3623                 2.3692                 7.2414
 Frc consts  --      0.2288                 0.1389                 0.4612
 IR Inten    --      9.5285                 5.0962                 0.5382

                     16                     17                     18
                      A                      A                      A
 Frequencies --    349.2050               379.2597               401.1574
 Red. masses --      5.3630                 3.6636                 4.3517
 Frc consts  --      0.3853                 0.3105                 0.4126
 IR Inten    --     15.0815                14.4408                15.8512

                     19                     20                     21
                      A                      A                      A
 Frequencies --    545.2232               546.4218               581.7044
 Red. masses --      2.2016                 1.9611                 2.5308
 Frc consts  --      0.3856                 0.3450                 0.5046
 IR Inten    --     55.3668                39.7074                45.1535

                     22                     23                     24
                      A                      A                      A
 Frequencies --    615.6148               650.9650               661.8423
 Red. masses --      2.8646                 1.6517                 3.0464
 Frc consts  --      0.6396                 0.4124                 0.7862
 IR Inten    --     28.7300                13.0751                21.0633

                     25                     26                     27
                      A                      A                      A
 Frequencies --    676.3953               682.7973               714.5944
 Red. masses --      1.7784                 1.7102                 3.7796
 Frc consts  --      0.4794                 0.4698                 1.1371
 IR Inten    --     18.7319                49.4086                 6.2730

                     28                     29                     30
                      A                      A                      A
 Frequencies --    735.4756               759.5635               795.8408
 Red. masses --      3.2885                 3.4360                 1.3676
 Frc consts  --      1.0481                 1.1680                 0.5103
 IR Inten    --      0.8652                 0.3380                11.8780

                     31                     32                     33
                      A                      A                      A
 Frequencies --    820.1761               834.5977               855.3812
 Red. masses --      2.7586                 1.3768                 1.3823
 Frc consts  --      1.0933                 0.5650                 0.5959
 IR Inten    --      1.5195                21.7327                26.6701

                     34                     35                     36
                      A                      A                      A
 Frequencies --    883.7212               917.1855               930.7589
 Red. masses --      2.7342                 1.2818                 5.9767
 Frc consts  --      1.2581                 0.6353                 3.0506
 IR Inten    --     36.1831                 5.2246                11.3413

                     37                     38                     39
                      A                      A                      A
 Frequencies --    937.6255               983.6195              1016.1201
 Red. masses --      3.4984                 2.0808                 2.9493
 Frc consts  --      1.8121                 1.1861                 1.7941
 IR Inten    --     42.7544                31.3312                 6.8637

                     40                     41                     42
                      A                      A                      A
 Frequencies --   1024.0024              1036.8739              1089.6429
 Red. masses --      3.2857                 3.9539                 1.6305
 Frc consts  --      2.0300                 2.5046                 1.1406
 IR Inten    --     12.4574                 3.3173                15.8379

                     43                     44                     45
                      A                      A                      A
 Frequencies --   1115.4548              1118.6127              1154.1314
 Red. masses --      1.6586                 2.3099                 2.6396
 Frc consts  --      1.2159                 1.7030                 2.0716
 IR Inten    --     23.5880                37.9589                 8.4547

                     46                     47                     48
                      A                      A                      A
 Frequencies --   1157.4408              1176.9185              1233.8610
 Red. masses --      2.0580                 1.3742                 1.5050
 Frc consts  --      1.6244                 1.1215                 1.3499
 IR Inten    --      9.8678                 0.4897                10.6798

                     49                     50                     51
                      A                      A                      A
 Frequencies --   1244.3492              1260.2384              1287.5436
 Red. masses --      1.8953                 1.8539                 1.4576
 Frc consts  --      1.7291                 1.7348                 1.4237
 IR Inten    --      1.0809                10.0205                 1.0177

                     52                     53                     54
                      A                      A                      A
 Frequencies --   1290.0541              1310.0564              1326.3275
 Red. masses --      1.3113                 1.3137                 1.3023
 Frc consts  --      1.2858                 1.3284                 1.3498
 IR Inten    --      1.8969                13.1598                15.1570

                     55                     56                     57
                      A                      A                      A
 Frequencies --   1334.7033              1356.5956              1371.0191
 Red. masses --      1.4400                 1.3944                 1.4989
 Frc consts  --      1.5114                 1.5120                 1.6600
 IR Inten    --     30.9654                36.2270               115.0705

                     58                     59                     60
                      A                      A                      A
 Frequencies --   1406.2201              1407.2193              1424.3474
 Red. masses --      1.3444                 2.7598                 2.3028
 Frc consts  --      1.5663                 3.2200                 2.7525
 IR Inten    --     14.6096                91.5982               208.3806

                     61                     62                     63
                      A                      A                      A
 Frequencies --   1444.7945              1489.6896              1494.4355
 Red. masses --      3.2702                 1.1151                 1.4623
 Frc consts  --      4.0220                 1.4580                 1.9241
 IR Inten    --     21.3602                 0.8376                15.1073

                     64                     65                     66
                      A                      A                      A
 Frequencies --   1508.3903              1512.9138              1518.4782
 Red. masses --      2.2249                 1.0756                 1.1802
 Frc consts  --      2.9825                 1.4505                 1.6033
 IR Inten    --     19.8396                12.8952               215.9270

                     67                     68                     69
                      A                      A                      A
 Frequencies --   1543.0532              1604.8764              1669.6774
 Red. masses --      2.5050                 3.9600                 1.0430
 Frc consts  --      3.5141                 6.0094                 1.7131
 IR Inten    --    324.5682                11.7450                54.5548

                     70                     71                     72
                      A                      A                      A
 Frequencies --   1673.5066              1774.6383              1846.1289
 Red. masses --      1.0442                10.1967                 9.1980
 Frc consts  --      1.7230                18.9204                18.4701
 IR Inten    --     44.1118               271.6405               273.0426

                     73                     74                     75
                      A                      A                      A
 Frequencies --   3040.4804              3052.1833              3064.4753
 Red. masses --      1.0637                 1.0630                 1.0806
 Frc consts  --      5.7938                 5.8345                 5.9790
 IR Inten    --      3.8023                 6.0473                12.9862

                     76                     77                     78
                      A                      A                      A
 Frequencies --   3100.1580              3102.7037              3116.3903
 Red. masses --      1.1053                 1.1010                 1.0602
 Frc consts  --      6.2587                 6.2446                 6.0665
 IR Inten    --      4.5754                 5.5915                 3.4514

                     79                     80                     81
                      A                      A                      A
 Frequencies --   3182.4245              3245.3669              3270.1197
 Red. masses --      1.1117                 1.0959                 1.0980
 Frc consts  --      6.6338                 6.8005                 6.9183
 IR Inten    --      3.2452                 4.1473                 0.5083

                     82                     83                     84
                      A                      A                      A
 Frequencies --   3399.5676              3492.3137              3493.2744
 Red. masses --      1.0303                 1.0935                 1.0938
 Frc consts  --      7.0156                 7.8580                 7.8641
 IR Inten    --     54.4020                95.3050                92.7426

                     85                     86                     87
                      A                      A                      A
 Frequencies --   3524.1611              3579.7906              3652.2858
 Red. masses --      1.0781                 1.0674                 1.0817
 Frc consts  --      7.8890                 8.0594                 8.5010
 IR Inten    --    139.8841               428.9354                61.4516

 - Thermochemistry -
 -------------------
 Temperature   298.150 Kelvin.  Pressure   1.00000 Atm.
 Atom     1 has atomic number  8 and mass  15.99491

 Molecular mass:   227.11442 amu.
 Principal axes and moments of inertia in atomic units:
                           1         2         3
     Eigenvalues --  1662.098938157.336049200.75630
           X            0.99346   0.05066   0.10231
           Y            0.02022   0.80394  -0.59436
           Z           -0.11236   0.59254   0.79766
 This molecule is an asymmetric top.
 Rotational symmetry number  1.
 Warning -- assumption of classical behavior for rotation
           may cause significant error
 Rotational temperatures (Kelvin)      0.05211     0.01062     0.00941
 Rotational constants (GHZ):           1.08582     0.22124     0.19615
 Zero-point vibrational energy     681968.6 (Joules/Mol)
                                  162.99440 (Kcal/Mol)
 Warning -- explicit consideration of  22 degrees of freedom as
           vibrations may cause significant error
 Vibrational temperatures:     37.64    50.24    67.76    71.81    98.79
          (Kelvin)            124.53   131.71   166.11   176.55   281.37
                              321.18   350.98   387.16   453.91   473.04
                              502.43   545.67   577.18   784.45   786.18
                              836.94   885.73   936.59   952.24   973.18
                              982.39  1028.14  1058.18  1092.84  1145.04
                             1180.05  1200.80  1230.70  1271.48  1319.62
                             1339.15  1349.03  1415.21  1461.97  1473.31
                             1491.83  1567.75  1604.89  1609.43  1660.54
                             1665.30  1693.32  1775.25  1790.34  1813.20
                             1852.49  1856.10  1884.88  1908.29  1920.34
                             1951.84  1972.59  2023.23  2024.67  2049.32
                             2078.73  2143.33  2150.16  2170.23  2176.74
                             2184.75  2220.11  2309.06  2402.29  2407.80
                             2553.31  2656.16  4374.57  4391.41  4409.09
                             4460.43  4464.09  4483.79  4578.79  4669.35
                             4704.97  4891.21  5024.65  5026.04  5070.48
                             5150.51  5254.82

 Zero-point correction=                           0.259748 (Hartree/Particle)
 Thermal correction to Energy=                    0.275997
 Thermal correction to Enthalpy=                  0.276941
 Thermal correction to Gibbs Free Energy=         0.213101
 Sum of electronic and zero-point Energies=           -796.216813
 Sum of electronic and thermal Energies=              -796.200565
 Sum of electronic and thermal Enthalpies=            -796.199621
 Sum of electronic and thermal Free Energies=         -796.263460

                     E (Thermal)             CV                S
                      KCal/Mol        Cal/Mol-Kelvin    Cal/Mol-Kelvin
 Total                  173.191             58.630            134.362
 Electronic               0.000              0.000              0.000
 Translational            0.889              2.981             42.163
 Rotational               0.889              2.981             33.189
 Vibrational            171.413             52.668             59.010
 Vibration     1          0.593              1.985              6.101
 Vibration     2          0.594              1.983              5.528
 Vibration     3          0.595              1.979              4.936
 Vibration     4          0.595              1.978              4.821
 Vibration     5          0.598              1.969              4.191
 Vibration     6          0.601              1.959              3.736
 Vibration     7          0.602              1.955              3.627
 Vibration     8          0.608              1.937              3.175
 Vibration     9          0.610              1.930              3.057
 Vibration    10          0.636              1.846              2.174
 Vibration    11          0.649              1.806              1.933
 Vibration    12          0.659              1.773              1.774
 Vibration    13          0.673              1.730              1.602
 Vibration    14          0.703              1.644              1.333
 Vibration    15          0.712              1.618              1.266
 Vibration    16          0.726              1.577              1.170
 Vibration    17          0.749              1.514              1.042
 Vibration    18          0.767              1.468              0.958
 Vibration    19          0.900              1.150              0.554
 Vibration    20          0.902              1.148              0.552
 Vibration    21          0.938              1.071              0.482
 Vibration    22          0.975              0.999              0.424

 Optimization completed.
    -- Stationary point found.
 Normal termination of Gaussian 09 at Wed Jul 28 23:05:58 2021.
