 Gaussian 09, Revision D.01,
 Gaussian 09:  ES64L-G09RevD.01 24-Apr-2013

 ----------------------------------------------------------------------
 # B3LYP/6-31G(d) opt=calcfc freq=noraman nosymm integral(ultrafinegrid
 )
 ----------------------------------------------------------------------

 ------------------------------------------------------------
 Candidate Structure: Conf:715 OPT and FREQ calc in gas phase
 ------------------------------------------------------------
 Symbolic Z-matrix:
 Charge =  1 Multiplicity = 1

 SCF Done:  E(RB3LYP) =  -796.450746176     A.U. after   14 cycles
 SCF Done:  E(RB3LYP) =  -796.459659788     A.U. after   15 cycles
 SCF Done:  E(RB3LYP) =  -796.452910817     A.U. after   15 cycles
 SCF Done:  E(RB3LYP) =  -796.460326916     A.U. after   11 cycles
 SCF Done:  E(RB3LYP) =  -796.407863976     A.U. after   15 cycles
 SCF Done:  E(RB3LYP) =  -796.460383734     A.U. after   10 cycles
 SCF Done:  E(RB3LYP) =  -796.462237448     A.U. after   14 cycles
 SCF Done:  E(RB3LYP) =  -796.462795827     A.U. after   14 cycles
 SCF Done:  E(RB3LYP) =  -796.463297190     A.U. after   12 cycles
 SCF Done:  E(RB3LYP) =  -796.463430863     A.U. after   11 cycles
 SCF Done:  E(RB3LYP) =  -796.463687144     A.U. after   11 cycles
 SCF Done:  E(RB3LYP) =  -796.463718938     A.U. after   11 cycles
 SCF Done:  E(RB3LYP) =  -796.463742326     A.U. after   11 cycles
 SCF Done:  E(RB3LYP) =  -796.463748725     A.U. after   10 cycles
 SCF Done:  E(RB3LYP) =  -796.463750511     A.U. after    9 cycles
 SCF Done:  E(RB3LYP) =  -796.463751112     A.U. after    8 cycles
 SCF Done:  E(RB3LYP) =  -796.463751343     A.U. after    8 cycles
 SCF Done:  E(RB3LYP) =  -796.463751487     A.U. after    8 cycles
 SCF Done:  E(RB3LYP) =  -796.463751513     A.U. after    7 cycles
 Optimization completed.
    -- Stationary point found.
 Normal termination of Gaussian 09 at Wed Jul 28 22:50:34 2021.

 --------------------------------------------------------------------
 #N Geom=AllCheck Guess=TCheck SCRF=Check GenChk RB3LYP/6-31G(d) Freq
 --------------------------------------------------------------------

 Structure from the checkpoint file:  "conf-715.chk"
 ------------------------------------------------------------
 Candidate Structure: Conf:715 OPT and FREQ calc in gas phase
 ------------------------------------------------------------
 Charge =  1 Multiplicity = 1

                          Input orientation:
 ---------------------------------------------------------------------
 Center     Atomic      Atomic             Coordinates (Angstroms)
 Number     Number       Type             X           Y           Z
 ---------------------------------------------------------------------
      1          8           0       -2.211635    1.210076   -0.220586
      2          6           0       -1.546909    0.424886    0.486004
      3          7           0       -0.240366    0.604342    0.721236
      4          6           0        0.549321    1.496110   -0.110611
      5          6           0        0.543213    0.954224   -1.560387
      6          8           0        1.145602    1.738671   -2.478372
      7          8           0        0.078959   -0.113990   -1.870703
      8          6           0        1.994268    1.594558    0.466648
      9          6           0        2.647908    0.265157    0.669375
     10          6           0        2.744613   -0.536081    1.789678
     11          7           0        3.374199   -1.722759    1.499673
     12          6           0        3.663129   -1.654154    0.219302
     13          7           0        3.241612   -0.478551   -0.337575
     14          6           0       -2.225756   -0.803813    1.086025
     15          6           0       -3.006551   -1.534427   -0.017327
     16          7           0       -4.030086   -0.588312   -0.615934
     17          1           0        0.289037   -0.139675    1.171687
     18          1           0        0.085699    2.488644   -0.105658
     19          1           0        1.389252    2.606053   -2.110853
     20          1           0        2.594460    2.241429   -0.184849
     21          1           0        1.930867    2.106850    1.431675
     22          1           0        2.429844   -0.298136    2.798889
     23          1           0        4.175517   -2.413432   -0.356269
     24          1           0        3.367073   -0.198849   -1.301631
     25          1           0       -1.508287   -1.506131    1.519892
     26          1           0       -2.899379   -0.487387    1.892617
     27          1           0       -3.522075   -2.420681    0.356025
     28          1           0       -2.338280   -1.819276   -0.833350
     29          1           0       -3.516904    0.354720   -0.663566
     30          1           0       -4.339861   -0.884252   -1.546465
     31          1           0       -4.858322   -0.485797   -0.020979
 ---------------------------------------------------------------------

 SCF Done:  E(RB3LYP) =  -796.463751513     A.U. after    1 cycles

 Alpha  occ. eigenvalues --  -19.32359 -19.28432 -19.26383 -14.60884 -14.51371
 Alpha  occ. eigenvalues --  -14.49544 -14.41018 -10.45288 -10.44758 -10.41914
 Alpha  occ. eigenvalues --  -10.38206 -10.37023 -10.33982 -10.33957 -10.33129
 Alpha  occ. eigenvalues --  -10.30369  -1.22902  -1.20201  -1.15391  -1.14677
 Alpha  occ. eigenvalues --   -1.11603  -1.08194  -0.97333  -0.95635  -0.92367
 Alpha  occ. eigenvalues --   -0.85940  -0.82660  -0.78693  -0.76206  -0.74893
 Alpha  occ. eigenvalues --   -0.74273  -0.73061  -0.71615  -0.69540  -0.67886
 Alpha  occ. eigenvalues --   -0.66719  -0.65347  -0.64349  -0.61321  -0.59945
 Alpha  occ. eigenvalues --   -0.58489  -0.57728  -0.56484  -0.56223  -0.55995
 Alpha  occ. eigenvalues --   -0.55450  -0.54435  -0.52972  -0.51915  -0.51336
 Alpha  occ. eigenvalues --   -0.50797  -0.50579  -0.49874  -0.44367  -0.42802
 Alpha  occ. eigenvalues --   -0.41746  -0.39793  -0.38228  -0.36341  -0.33287
 Alpha virt. eigenvalues --   -0.14387  -0.12165  -0.12004  -0.08712  -0.07092
 Alpha virt. eigenvalues --   -0.06519  -0.05389  -0.04580  -0.03061  -0.01962
 Alpha virt. eigenvalues --   -0.01039  -0.00377  -0.00078   0.01204   0.01690

 Mulliken charges:
               1
     1  O   -0.564259
     2  C    0.668451
     3  N   -0.575813
     4  C   -0.098720
     5  C    0.634896
     6  O   -0.554089
     7  O   -0.452662
     8  C   -0.390092
     9  C    0.300336
    10  C   -0.092790
    11  N   -0.401951
    12  C    0.220547
    13  N   -0.601384
    14  C   -0.399420
    15  C   -0.204162
    16  N   -0.751661
    17  H    0.360473
    18  H    0.207908
    19  H    0.429350
    20  H    0.173862
    21  H    0.209034
    22  H    0.154331
    23  H    0.187271
    24  H    0.351353
    25  H    0.216649
    26  H    0.214242
    27  H    0.229243
    28  H    0.249355
    29  H    0.450864
    30  H    0.418916
    31  H    0.409922
 Sum of Mulliken charges =   1.00000

 Dipole moment (field-independent basis, Debye):
    X=            -10.1083    Y=              0.4664    Z=             -1.0848  Tot=             10.1770
 Quadrupole moment (field-independent basis, Debye-Ang):
   XX=            -24.1427   YY=            -78.1185   ZZ=            -89.8849
   XY=             23.7403   XZ=             -6.2138   YZ=              2.0721

  Exact polarizability: 134.179  -4.161 118.035   0.820  -8.328 110.091
 Approx polarizability: 170.846  -9.898 191.220  -0.171 -15.408 178.252

                      1                      2                      3
                      A                      A                      A
 Frequencies --     20.3524                26.7379                52.3494
 Red. masses --      4.1962                 6.3173                 5.5489
 Frc consts  --      0.0010                 0.0027                 0.0090
 IR Inten    --     15.5431                 4.1554                 3.7037

                      4                      5                      6
                      A                      A                      A
 Frequencies --     62.4085                68.3057                83.4574
 Red. masses --      4.9721                 4.3475                 4.9058
 Frc consts  --      0.0114                 0.0120                 0.0201
 IR Inten    --     14.2461                 7.6546                 7.3969

                      7                      8                      9
                      A                      A                      A
 Frequencies --    121.0189               134.0366               204.3587
 Red. masses --      6.7720                 4.6581                 4.5415
 Frc consts  --      0.0584                 0.0493                 0.1117
 IR Inten    --      1.9362                 5.1032                 5.0689

                     10                     11                     12
                      A                      A                      A
 Frequencies --    221.6849               243.5693               325.5799
 Red. masses --      2.6327                 5.4530                 4.0667
 Frc consts  --      0.0762                 0.1906                 0.2540
 IR Inten    --     18.4041                14.2744                16.2339

                     13                     14                     15
                      A                      A                      A
 Frequencies --    333.8379               342.0957               377.0651
 Red. masses --      3.0322                 2.3733                 1.3344
 Frc consts  --      0.1991                 0.1636                 0.1118
 IR Inten    --     10.7604                57.1763                 0.7411

                     16                     17                     18
                      A                      A                      A
 Frequencies --    381.7487               449.7689               466.5770
 Red. masses --      2.9789                 3.2555                 2.4512
 Frc consts  --      0.2558                 0.3880                 0.3144
 IR Inten    --     32.3837                12.9098               140.7162

                     19                     20                     21
                      A                      A                      A
 Frequencies --    514.6979               519.7132               554.8204
 Red. masses --      1.4722                 2.5020                 1.5614
 Frc consts  --      0.2298                 0.3982                 0.2832
 IR Inten    --     30.6864                 5.6313                62.8144

                     22                     23                     24
                      A                      A                      A
 Frequencies --    593.8227               634.1178               668.1418
 Red. masses --      3.5548                 4.0488                 3.3348
 Frc consts  --      0.7385                 0.9592                 0.8771
 IR Inten    --      6.6927                 3.1677                67.3496

                     25                     26                     27
                      A                      A                      A
 Frequencies --    675.2575               690.0393               693.4059
 Red. masses --      2.1886                 2.3616                 2.1156
 Frc consts  --      0.5880                 0.6625                 0.5993
 IR Inten    --      2.6708                36.1902                15.4538

                     28                     29                     30
                      A                      A                      A
 Frequencies --    738.0266               772.7916               833.4487
 Red. masses --      3.4971                 4.9281                 1.4796
 Frc consts  --      1.1223                 1.7340                 0.6056
 IR Inten    --     14.7284                 1.9590                 5.9351

                     31                     32                     33
                      A                      A                      A
 Frequencies --    837.5112               853.3438               862.5866
 Red. masses --      2.1448                 2.0517                 1.9809
 Frc consts  --      0.8864                 0.8803                 0.8684
 IR Inten    --     46.5190                 1.9058                 5.3194

                     34                     35                     36
                      A                      A                      A
 Frequencies --    894.0589               927.5395               943.6706
 Red. masses --      2.0089                 5.3329                 2.5908
 Frc consts  --      0.9461                 2.7032                 1.3593
 IR Inten    --     59.4960                13.9114                 9.5291

                     37                     38                     39
                      A                      A                      A
 Frequencies --    960.7759               965.1432              1001.0765
 Red. masses --      1.3538                 2.7839                 3.1208
 Frc consts  --      0.7363                 1.5279                 1.8427
 IR Inten    --      6.3118                 3.6893                 3.4563

                     40                     41                     42
                      A                      A                      A
 Frequencies --   1013.0206              1044.7299              1115.9832
 Red. masses --      3.3908                 2.8343                 2.0201
 Frc consts  --      2.0502                 1.8227                 1.4823
 IR Inten    --     14.4175                 8.1060                11.2510

                     43                     44                     45
                      A                      A                      A
 Frequencies --   1122.4248              1138.3404              1143.7837
 Red. masses --      1.7088                 1.5201                 1.4544
 Frc consts  --      1.2684                 1.1606                 1.1210
 IR Inten    --     19.5088                53.6377                35.0241

                     46                     47                     48
                      A                      A                      A
 Frequencies --   1160.7978              1182.0535              1221.0667
 Red. masses --      1.9296                 1.8706                 1.6761
 Frc consts  --      1.5319                 1.5399                 1.4724
 IR Inten    --     18.7064                 7.8019                37.7307

                     49                     50                     51
                      A                      A                      A
 Frequencies --   1247.1887              1273.5846              1279.3691
 Red. masses --      1.4527                 1.4615                 2.1507
 Frc consts  --      1.3313                 1.3967                 2.0741
 IR Inten    --     23.3766                39.2299                 3.0392

                     52                     53                     54
                      A                      A                      A
 Frequencies --   1295.7895              1301.5964              1332.0426
 Red. masses --      1.5135                 1.4109                 1.6494
 Frc consts  --      1.4973                 1.4083                 1.7243
 IR Inten    --    152.7856               148.7756                58.2821

                     55                     56                     57
                      A                      A                      A
 Frequencies --   1346.3762              1378.7079              1391.8547
 Red. masses --      1.2748                 1.5840                 1.6603
 Frc consts  --      1.3615                 1.7740                 1.8951
 IR Inten    --     27.2929                23.2966                43.6837

                     58                     59                     60
                      A                      A                      A
 Frequencies --   1403.0774              1414.9741              1423.8332
 Red. masses --      2.6147                 1.5567                 1.3707
 Frc consts  --      3.0327                 1.8363                 1.6372
 IR Inten    --     10.5574                44.8167                21.0817

                     61                     62                     63
                      A                      A                      A
 Frequencies --   1447.0939              1497.2744              1501.5727
 Red. masses --      2.7757                 1.0971                 1.2076
 Frc consts  --      3.4246                 1.4491                 1.6043
 IR Inten    --     30.6659                15.1372                44.4258

                     64                     65                     66
                      A                      A                      A
 Frequencies --   1509.0370              1516.2806              1530.4078
 Red. masses --      1.2983                 2.7657                 1.0919
 Frc consts  --      1.7419                 3.7464                 1.5067
 IR Inten    --    590.4489                27.2884               176.3850

                     67                     68                     69
                      A                      A                      A
 Frequencies --   1585.6223              1614.9665              1662.3698
 Red. masses --      2.2296                 4.0443                 1.1740
 Frc consts  --      3.3028                 6.2147                 1.9115
 IR Inten    --    218.8703                 9.9291                 9.3300

                     70                     71                     72
                      A                      A                      A
 Frequencies --   1705.3516              1732.5807              1869.2954
 Red. masses --      1.0461                 3.2170                10.4301
 Frc consts  --      1.7924                 5.6898                21.4732
 IR Inten    --     33.1506               164.3299               181.4154

                     73                     74                     75
                      A                      A                      A
 Frequencies --   2688.1505              3063.0681              3069.8645
 Red. masses --      1.0869                 1.0664                 1.0666
 Frc consts  --      4.6273                 5.8947                 5.9226
 IR Inten    --    932.9352                17.7849                 1.5353

                     76                     77                     78
                      A                      A                      A
 Frequencies --   3090.1577              3117.0452              3117.8315
 Red. masses --      1.0849                 1.0623                 1.0990
 Frc consts  --      6.1036                 6.0812                 6.2943
 IR Inten    --      7.1427                 1.1207                 3.4062

                     79                     80                     81
                      A                      A                      A
 Frequencies --   3134.0029              3178.9523              3246.2763
 Red. masses --      1.0973                 1.1125                 1.0962
 Frc consts  --      6.3498                 6.6237                 6.8062
 IR Inten    --      1.3324                 0.2667                 3.6969

                     82                     83                     84
                      A                      A                      A
 Frequencies --   3277.3091              3450.6464              3508.0078
 Red. masses --      1.0979                 1.0533                 1.0786
 Frc consts  --      6.9480                 7.3894                 7.8208
 IR Inten    --      0.4820                94.1426               198.2877

                     85                     86                     87
                      A                      A                      A
 Frequencies --   3520.4254              3628.6581              3714.8823
 Red. masses --      1.0951                 1.0816                 1.0663
 Frc consts  --      7.9966                 8.3908                 8.6698
 IR Inten    --     76.3963                56.4511                50.5008

 - Thermochemistry -
 -------------------
 Temperature   298.150 Kelvin.  Pressure   1.00000 Atm.
 Atom     1 has atomic number  8 and mass  15.99491

 Molecular mass:   227.11442 amu.
 Principal axes and moments of inertia in atomic units:
                           1         2         3
     Eigenvalues --  2206.370855446.826656338.48407
           X            0.99322   0.10355  -0.05284
           Y           -0.03626   0.70780   0.70548
           Z            0.11045  -0.69878   0.70676
 This molecule is an asymmetric top.
 Rotational symmetry number  1.
 Warning -- assumption of classical behavior for rotation
           may cause significant error
 Rotational temperatures (Kelvin)      0.03926     0.01590     0.01366
 Rotational constants (GHZ):           0.81797     0.33134     0.28473
 Zero-point vibrational energy     683406.6 (Joules/Mol)
                                  163.33811 (Kcal/Mol)
 Warning -- explicit consideration of  22 degrees of freedom as
           vibrations may cause significant error
 Vibrational temperatures:     29.28    38.47    75.32    89.79    98.28
          (Kelvin)            120.08   174.12   192.85   294.03   318.95
                              350.44   468.44   480.32   492.20   542.51
                              549.25   647.12   671.30   740.53   747.75
                              798.26   854.38   912.35   961.31   971.54
                              992.81   997.66  1061.85  1111.87  1199.15
                             1204.99  1227.77  1241.07  1286.35  1334.52
                             1357.73  1382.34  1388.62  1440.32  1457.51
                             1503.13  1605.65  1614.92  1637.82  1645.65
                             1670.13  1700.71  1756.84  1794.42  1832.40
                             1840.72  1864.35  1872.70  1916.51  1937.13
                             1983.65  2002.57  2018.71  2035.83  2048.58
                             2082.04  2154.24  2160.43  2171.17  2181.59
                             2201.91  2281.35  2323.57  2391.78  2453.62
                             2492.79  2689.50  3867.64  4407.07  4416.84
                             4446.04  4484.73  4485.86  4509.13  4573.80
                             4670.66  4715.31  4964.70  5047.23  5065.10
                             5220.82  5344.88

 Zero-point correction=                           0.260296 (Hartree/Particle)
 Thermal correction to Energy=                    0.275856
 Thermal correction to Enthalpy=                  0.276800
 Thermal correction to Gibbs Free Energy=         0.214795
 Sum of electronic and zero-point Energies=           -796.203456
 Sum of electronic and thermal Energies=              -796.187895
 Sum of electronic and thermal Enthalpies=            -796.186951
 Sum of electronic and thermal Free Energies=         -796.248956

                     E (Thermal)             CV                S
                      KCal/Mol        Cal/Mol-Kelvin    Cal/Mol-Kelvin
 Total                  173.102             57.646            130.500
 Electronic               0.000              0.000              0.000
 Translational            0.889              2.981             42.163
 Rotational               0.889              2.981             32.699
 Vibrational            171.325             51.685             55.638
 Vibration     1          0.593              1.986              6.600
 Vibration     2          0.593              1.984              6.058
 Vibration     3          0.596              1.977              4.727
 Vibration     4          0.597              1.972              4.380
 Vibration     5          0.598              1.969              4.202
 Vibration     6          0.600              1.961              3.808
 Vibration     7          0.609              1.932              3.084
 Vibration     8          0.613              1.919              2.887
 Vibration     9          0.640              1.834              2.094
 Vibration    10          0.648              1.808              1.945
 Vibration    11          0.659              1.773              1.777
 Vibration    12          0.710              1.624              1.282
 Vibration    13          0.715              1.608              1.241
 Vibration    14          0.721              1.591              1.202
 Vibration    15          0.748              1.519              1.051
 Vibration    16          0.751              1.509              1.032
 Vibration    17          0.809              1.361              0.796
 Vibration    18          0.824              1.324              0.747
 Vibration    19          0.870              1.217              0.622
 Vibration    20          0.875              1.206              0.611
 Vibration    21          0.910              1.129              0.534
 Vibration    22          0.951              1.045              0.460

 Optimization completed.
    -- Stationary point found.
 Normal termination of Gaussian 09 at Wed Jul 28 23:08:03 2021.
