 Gaussian 09, Revision D.01,
 Gaussian 09:  ES64L-G09RevD.01 24-Apr-2013

 ----------------------------------------------------------------------
 # B3LYP/6-31G(d) opt=calcfc freq=noraman nosymm integral(ultrafinegrid
 )
 ----------------------------------------------------------------------

 ------------------------------------------------------------
 Candidate Structure: Conf:628 OPT and FREQ calc in gas phase
 ------------------------------------------------------------
 Symbolic Z-matrix:
 Charge =  1 Multiplicity = 1

 SCF Done:  E(RB3LYP) =  -796.460680814     A.U. after   14 cycles
 SCF Done:  E(RB3LYP) =  -796.468386146     A.U. after   12 cycles
 SCF Done:  E(RB3LYP) =  -796.469495220     A.U. after   12 cycles
 SCF Done:  E(RB3LYP) =  -796.470039529     A.U. after   11 cycles
 SCF Done:  E(RB3LYP) =  -796.470128542     A.U. after   12 cycles
 SCF Done:  E(RB3LYP) =  -796.470138152     A.U. after   10 cycles
 SCF Done:  E(RB3LYP) =  -796.470139659     A.U. after    9 cycles
 SCF Done:  E(RB3LYP) =  -796.470140101     A.U. after    8 cycles
 SCF Done:  E(RB3LYP) =  -796.470140161     A.U. after    7 cycles
 Optimization completed.
    -- Stationary point found.
 Normal termination of Gaussian 09 at Wed Jul 28 22:25:18 2021.

 --------------------------------------------------------------------
 #N Geom=AllCheck Guess=TCheck SCRF=Check GenChk RB3LYP/6-31G(d) Freq
 --------------------------------------------------------------------

 Structure from the checkpoint file:  "conf-628.chk"
 ------------------------------------------------------------
 Candidate Structure: Conf:628 OPT and FREQ calc in gas phase
 ------------------------------------------------------------
 Charge =  1 Multiplicity = 1

                          Input orientation:
 ---------------------------------------------------------------------
 Center     Atomic      Atomic             Coordinates (Angstroms)
 Number     Number       Type             X           Y           Z
 ---------------------------------------------------------------------
      1          8           0       -1.438297   -0.073793   -0.874045
      2          6           0       -1.542961   -0.204775    0.366388
      3          7           0       -0.486389   -0.354798    1.163253
      4          6           0        0.892813   -0.416999    0.672466
      5          6           0        1.693110   -1.007670    1.830077
      6          8           0        2.989171   -1.185786    1.526603
      7          8           0        1.215219   -1.267700    2.913312
      8          6           0        1.435058    0.979734    0.207338
      9          6           0        2.391504    0.932410   -0.938823
     10          6           0        2.231716    1.324453   -2.249309
     11          7           0        3.378479    1.117884   -2.975115
     12          6           0        4.235488    0.601539   -2.120726
     13          7           0        3.695719    0.471177   -0.872888
     14          6           0       -2.924799   -0.158584    1.027200
     15          6           0       -4.005755   -0.752920    0.115909
     16          7           0       -3.980674   -0.048987   -1.225326
     17          1           0       -0.594696   -0.544729    2.157087
     18          1           0        0.932376   -1.100551   -0.182216
     19          1           0        3.424496   -1.558922    2.318971
     20          1           0        0.568790    1.555758   -0.127285
     21          1           0        1.850299    1.512036    1.073075
     22          1           0        1.348078    1.755259   -2.702931
     23          1           0        5.252162    0.306640   -2.344121
     24          1           0        4.133345    0.057545   -0.062139
     25          1           0       -2.937074   -0.705332    1.975209
     26          1           0       -3.160425    0.887244    1.267611
     27          1           0       -3.808339   -1.806991   -0.092356
     28          1           0       -5.003299   -0.659758    0.548436
     29          1           0       -4.382831    0.892645   -1.178782
     30          1           0       -2.925168    0.025044   -1.441719
     31          1           0       -4.477096   -0.570791   -1.953759
 ---------------------------------------------------------------------

 SCF Done:  E(RB3LYP) =  -796.470140161     A.U. after    1 cycles

 Alpha  occ. eigenvalues --  -19.33352 -19.28975 -19.27776 -14.61201 -14.51885
 Alpha  occ. eigenvalues --  -14.46764 -14.38422 -10.45841 -10.45838 -10.42599
 Alpha  occ. eigenvalues --  -10.37819 -10.37677 -10.31938 -10.31368 -10.30237
 Alpha  occ. eigenvalues --  -10.27527  -1.24368  -1.20618  -1.15812  -1.15464
 Alpha  occ. eigenvalues --   -1.08936  -1.08256  -0.96138  -0.94653  -0.91638
 Alpha  occ. eigenvalues --   -0.85336  -0.82943  -0.78068  -0.76881  -0.75358
 Alpha  occ. eigenvalues --   -0.74249  -0.72462  -0.69215  -0.67867  -0.66804
 Alpha  occ. eigenvalues --   -0.65914  -0.63997  -0.62319  -0.61634  -0.61003
 Alpha  occ. eigenvalues --   -0.60182  -0.58708  -0.57789  -0.56188  -0.55831
 Alpha  occ. eigenvalues --   -0.54854  -0.54139  -0.52158  -0.51227  -0.49907
 Alpha  occ. eigenvalues --   -0.49131  -0.49010  -0.48043  -0.45392  -0.43077
 Alpha  occ. eigenvalues --   -0.41666  -0.41393  -0.35520  -0.33837  -0.30390
 Alpha virt. eigenvalues --   -0.14626  -0.12649  -0.12349  -0.07558  -0.05968
 Alpha virt. eigenvalues --   -0.05593  -0.05287  -0.04054  -0.01987  -0.01498
 Alpha virt. eigenvalues --   -0.01050  -0.00367   0.00444   0.01044   0.01675

 Mulliken charges:
               1
     1  O   -0.566853
     2  C    0.659586
     3  N   -0.606584
     4  C   -0.029919
     5  C    0.595936
     6  O   -0.567194
     7  O   -0.452214
     8  C   -0.375739
     9  C    0.317320
    10  C   -0.064476
    11  N   -0.410907
    12  C    0.213764
    13  N   -0.605861
    14  C   -0.402573
    15  C   -0.198540
    16  N   -0.752462
    17  H    0.376598
    18  H    0.225391
    19  H    0.442074
    20  H    0.188567
    21  H    0.179559
    22  H    0.132998
    23  H    0.173587
    24  H    0.345301
    25  H    0.219261
    26  H    0.218144
    27  H    0.233002
    28  H    0.230697
    29  H    0.409631
    30  H    0.453839
    31  H    0.418068
 Sum of Mulliken charges =   1.00000

 Dipole moment (field-independent basis, Debye):
    X=            -12.4089    Y=             -2.3041    Z=              2.7513  Tot=             12.9174
 Quadrupole moment (field-independent basis, Debye-Ang):
   XX=             -2.5750   YY=            -87.5363   ZZ=            -93.6558
   XY=             -6.2620   XZ=             25.8653   YZ=              2.5120

  Exact polarizability: 157.428  -5.723  81.290  -6.296 -16.625 131.296
 Approx polarizability: 199.648 -15.407 122.424  -6.363 -23.494 214.318

                      1                      2                      3
                      A                      A                      A
 Frequencies --     27.9953                33.3691                50.7033
 Red. masses --      5.0982                 3.9721                 4.9071
 Frc consts  --      0.0024                 0.0026                 0.0074
 IR Inten    --      3.6889                10.2633                 2.4442

                      4                      5                      6
                      A                      A                      A
 Frequencies --     61.5339                74.8359                99.0285
 Red. masses --      5.0904                 5.2641                 5.3388
 Frc consts  --      0.0114                 0.0174                 0.0308
 IR Inten    --      5.9039                 2.8410                 6.9226

                      7                      8                      9
                      A                      A                      A
 Frequencies --    117.7713               132.5016               188.8446
 Red. masses --      5.0735                 5.5185                 5.0030
 Frc consts  --      0.0415                 0.0571                 0.1051
 IR Inten    --      2.7339                 0.4599                 6.8125

                     10                     11                     12
                      A                      A                      A
 Frequencies --    209.3521               262.5124               286.6606
 Red. masses --      2.2048                 5.2967                 4.0857
 Frc consts  --      0.0569                 0.2151                 0.1978
 IR Inten    --     20.3034                50.4474                 3.8584

                     13                     14                     15
                      A                      A                      A
 Frequencies --    320.8494               345.5511               386.0748
 Red. masses --      2.0956                 5.9101                 3.3286
 Frc consts  --      0.1271                 0.4158                 0.2923
 IR Inten    --      9.8193                 0.4560                 3.3155

                     16                     17                     18
                      A                      A                      A
 Frequencies --    388.6210               398.6741               444.5404
 Red. masses --      2.0121                 2.1657                 2.3863
 Frc consts  --      0.1790                 0.2028                 0.2778
 IR Inten    --     74.9467                56.9284                 3.9398

                     19                     20                     21
                      A                      A                      A
 Frequencies --    534.8765               541.9927               587.3518
 Red. masses --      1.5831                 2.7851                 2.6947
 Frc consts  --      0.2669                 0.4820                 0.5477
 IR Inten    --     65.9471                63.0676                 3.0004

                     22                     23                     24
                      A                      A                      A
 Frequencies --    607.7140               643.6520               667.8282
 Red. masses --      2.2743                 2.9527                 2.1329
 Frc consts  --      0.4949                 0.7207                 0.5605
 IR Inten    --     30.5421                62.0797               133.0806

                     25                     26                     27
                      A                      A                      A
 Frequencies --    673.8705               681.4674               730.6170
 Red. masses --      1.2402                 2.6055                 3.0082
 Frc consts  --      0.3318                 0.7129                 0.9461
 IR Inten    --     12.5715                 0.8173                 9.0377

                     28                     29                     30
                      A                      A                      A
 Frequencies --    737.4496               769.6199               818.3687
 Red. masses --      2.8801                 4.0012                 1.3705
 Frc consts  --      0.9228                 1.3963                 0.5408
 IR Inten    --     49.6776                 9.2857                16.7231

                     31                     32                     33
                      A                      A                      A
 Frequencies --    821.4812               849.8294               853.7564
 Red. masses --      2.6512                 1.5005                 2.3742
 Frc consts  --      1.0541                 0.6385                 1.0196
 IR Inten    --      7.4487                18.2549                22.9503

                     34                     35                     36
                      A                      A                      A
 Frequencies --    888.9977               930.8011               950.8379
 Red. masses --      1.9912                 6.0059                 2.3863
 Frc consts  --      0.9272                 3.0658                 1.2711
 IR Inten    --     92.2437                11.8544                 3.5297

                     37                     38                     39
                      A                      A                      A
 Frequencies --    957.7307              1002.1652              1008.9440
 Red. masses --      1.3893                 3.6379                 3.5682
 Frc consts  --      0.7508                 2.1527                 2.1401
 IR Inten    --      4.5818                 1.4919                 3.1371

                     40                     41                     42
                      A                      A                      A
 Frequencies --   1026.4674              1034.1486              1103.5931
 Red. masses --      3.7675                 3.2905                 3.1103
 Frc consts  --      2.3388                 2.0734                 2.2319
 IR Inten    --     25.5255                13.0022                11.2275

                     43                     44                     45
                      A                      A                      A
 Frequencies --   1124.5506              1137.2668              1145.3448
 Red. masses --      1.6223                 1.4153                 1.5265
 Frc consts  --      1.2088                 1.0785                 1.1798
 IR Inten    --     37.4937               121.3405                52.5489

                     46                     47                     48
                      A                      A                      A
 Frequencies --   1162.5721              1198.0141              1209.2371
 Red. masses --      1.9160                 1.2931                 2.3982
 Frc consts  --      1.5257                 1.0934                 2.0661
 IR Inten    --     16.5658                 1.8734               189.5806

                     49                     50                     51
                      A                      A                      A
 Frequencies --   1263.3280              1281.3173              1287.9981
 Red. masses --      1.4825                 1.9210                 1.5311
 Frc consts  --      1.3940                 1.8582                 1.4965
 IR Inten    --     10.0275                 6.5887                 3.1765

                     52                     53                     54
                      A                      A                      A
 Frequencies --   1302.5877              1322.0182              1337.1876
 Red. masses --      1.3205                 1.2982                 1.3516
 Frc consts  --      1.3201                 1.3368                 1.4240
 IR Inten    --     14.4801                 0.5984                 4.5503

                     55                     56                     57
                      A                      A                      A
 Frequencies --   1344.6699              1376.5006              1395.4406
 Red. masses --      1.2519                 1.5068                 1.6810
 Frc consts  --      1.3337                 1.6821                 1.9286
 IR Inten    --     47.6834                41.8497                17.2470

                     58                     59                     60
                      A                      A                      A
 Frequencies --   1402.8189              1416.0786              1443.8302
 Red. masses --      3.0421                 1.2782                 2.3712
 Frc consts  --      3.5272                 1.5102                 2.9124
 IR Inten    --     31.9561                54.7405                55.3847

                     61                     62                     63
                      A                      A                      A
 Frequencies --   1449.6351              1490.9069              1491.3272
 Red. masses --      2.9072                 1.2688                 1.0871
 Frc consts  --      3.5995                 1.6616                 1.4246
 IR Inten    --     32.2942               553.3457                54.5377

                     64                     65                     66
                      A                      A                      A
 Frequencies --   1501.8243              1516.4256              1529.5760
 Red. masses --      1.1691                 3.1284                 1.0773
 Frc consts  --      1.5536                 4.2386                 1.4851
 IR Inten    --      6.8015                23.2425                41.5495

                     67                     68                     69
                      A                      A                      A
 Frequencies --   1581.8337              1619.7114              1661.7482
 Red. masses --      2.6687                 4.2821                 1.1790
 Frc consts  --      3.9344                 6.6188                 1.9181
 IR Inten    --    244.4976                 3.6888                38.1892

                     70                     71                     72
                      A                      A                      A
 Frequencies --   1706.3782              1734.0258              1837.2752
 Red. masses --      1.1029                 2.8954                 9.5845
 Frc consts  --      1.8920                 5.1295                19.0620
 IR Inten    --     90.0604               121.7330               277.4116

                     73                     74                     75
                      A                      A                      A
 Frequencies --   2620.8952              3050.2624              3059.0455
 Red. masses --      1.0887                 1.0698                 1.0684
 Frc consts  --      4.4063                 5.8644                 5.8908
 IR Inten    --   1157.2653                19.7953                 1.1593

                     76                     77                     78
                      A                      A                      A
 Frequencies --   3094.0259              3115.9922              3125.7520
 Red. masses --      1.0841                 1.0682                 1.0888
 Frc consts  --      6.1148                 6.1109                 6.2679
 IR Inten    --      3.7003                 1.4015                 1.2884

                     79                     80                     81
                      A                      A                      A
 Frequencies --   3127.7051              3175.4991              3253.8962
 Red. masses --      1.0947                 1.1115                 1.0961
 Frc consts  --      6.3094                 6.6038                 6.8379
 IR Inten    --      5.0111                 0.5718                 7.6618

                     82                     83                     84
                      A                      A                      A
 Frequencies --   3272.8515              3450.1069              3519.9945
 Red. masses --      1.0975                 1.0531                 1.0952
 Frc consts  --      6.9265                 7.3858                 7.9949
 IR Inten    --      0.8762                86.9618                77.4996

                     85                     86                     87
                      A                      A                      A
 Frequencies --   3533.1612              3653.5756              3664.3084
 Red. masses --      1.0785                 1.0808                 1.0643
 Frc consts  --      7.9321                 8.5004                 8.4199
 IR Inten    --    132.4321                82.8869               104.2783

 - Thermochemistry -
 -------------------
 Temperature   298.150 Kelvin.  Pressure   1.00000 Atm.
 Atom     1 has atomic number  8 and mass  15.99491

 Molecular mass:   227.11442 amu.
 Principal axes and moments of inertia in atomic units:
                           1         2         3
     Eigenvalues --  2467.349136104.049848250.12406
           X            0.97609   0.21296  -0.04359
           Y            0.12424  -0.38202   0.91576
           Z           -0.17837   0.89928   0.39934
 This molecule is an asymmetric top.
 Rotational symmetry number  1.
 Warning -- assumption of classical behavior for rotation
           may cause significant error
 Rotational temperatures (Kelvin)      0.03510     0.01419     0.01050
 Rotational constants (GHZ):           0.73145     0.29566     0.21875
 Zero-point vibrational energy     683315.8 (Joules/Mol)
                                  163.31639 (Kcal/Mol)
 Warning -- explicit consideration of  22 degrees of freedom as
           vibrations may cause significant error
 Vibrational temperatures:     40.28    48.01    72.95    88.53   107.67
          (Kelvin)            142.48   169.45   190.64   271.70   301.21
                              377.70   412.44   461.63   497.17   555.47
                              559.14   573.60   639.59   769.57   779.81
                              845.07   874.36   926.07   960.85   969.55
                              980.48  1051.19  1061.02  1107.31  1177.45
                             1181.93  1222.71  1228.36  1279.07  1339.21
                             1368.04  1377.96  1441.89  1451.64  1476.86
                             1487.91  1587.82  1617.98  1636.27  1647.89
                             1672.68  1723.67  1739.82  1817.64  1843.53
                             1853.14  1874.13  1902.09  1923.91  1934.68
                             1980.47  2007.73  2018.34  2037.42  2077.35
                             2085.70  2145.08  2145.68  2160.79  2181.80
                             2200.72  2275.90  2330.40  2390.88  2455.09
                             2494.87  2643.43  3770.88  4388.64  4401.28
                             4451.61  4483.21  4497.25  4500.06  4568.83
                             4681.62  4708.90  4963.93  5064.48  5083.42
                             5256.67  5272.12

 Zero-point correction=                           0.260261 (Hartree/Particle)
 Thermal correction to Energy=                    0.275817
 Thermal correction to Enthalpy=                  0.276761
 Thermal correction to Gibbs Free Energy=         0.215042
 Sum of electronic and zero-point Energies=           -796.209879
 Sum of electronic and thermal Energies=              -796.194323
 Sum of electronic and thermal Enthalpies=            -796.193379
 Sum of electronic and thermal Free Energies=         -796.255098

                     E (Thermal)             CV                S
                      KCal/Mol        Cal/Mol-Kelvin    Cal/Mol-Kelvin
 Total                  173.078             57.589            129.900
 Electronic               0.000              0.000              0.000
 Translational            0.889              2.981             42.163
 Rotational               0.889              2.981             33.185
 Vibrational            171.301             51.627             54.552
 Vibration     1          0.593              1.984              5.967
 Vibration     2          0.594              1.983              5.618
 Vibration     3          0.595              1.977              4.790
 Vibration     4          0.597              1.973              4.407
 Vibration     5          0.599              1.966              4.022
 Vibration     6          0.604              1.950              3.473
 Vibration     7          0.608              1.935              3.137
 Vibration     8          0.613              1.921              2.909
 Vibration     9          0.633              1.855              2.239
 Vibration    10          0.642              1.826              2.049
 Vibration    11          0.670              1.741              1.645
 Vibration    12          0.684              1.698              1.494
 Vibration    13          0.706              1.634              1.306
 Vibration    14          0.724              1.584              1.186
 Vibration    15          0.755              1.500              1.015
 Vibration    16          0.757              1.494              1.005
 Vibration    17          0.765              1.473              0.968
 Vibration    18          0.804              1.373              0.812
 Vibration    19          0.890              1.173              0.576
 Vibration    20          0.897              1.157              0.561
 Vibration    21          0.944              1.059              0.472
 Vibration    22          0.967              1.015              0.437

 Optimization completed.
    -- Stationary point found.
 Normal termination of Gaussian 09 at Wed Jul 28 22:41:14 2021.
