 Gaussian 09, Revision D.01,
 Gaussian 09:  ES64L-G09RevD.01 24-Apr-2013

 ----------------------------------------------------------------------
 # B3LYP/6-31G(d) opt=calcfc freq=noraman nosymm integral(ultrafinegrid
 )
 ----------------------------------------------------------------------

 ------------------------------------------------------------
 Candidate Structure: Conf:862 OPT and FREQ calc in gas phase
 ------------------------------------------------------------
 Symbolic Z-matrix:
 Charge =  1 Multiplicity = 1

 SCF Done:  E(RB3LYP) =  -796.470139772     A.U. after   15 cycles
 SCF Done:  E(RB3LYP) =  -796.472335510     A.U. after   15 cycles
 SCF Done:  E(RB3LYP) =  -796.477642260     A.U. after   14 cycles
 SCF Done:  E(RB3LYP) =  -796.471591842     A.U. after   13 cycles
 SCF Done:  E(RB3LYP) =  -796.479815741     A.U. after   11 cycles
 SCF Done:  E(RB3LYP) =  -796.480016904     A.U. after   13 cycles
 SCF Done:  E(RB3LYP) =  -796.481781249     A.U. after   13 cycles
 SCF Done:  E(RB3LYP) =  -796.471531560     A.U. after   13 cycles
 SCF Done:  E(RB3LYP) =  -796.481781450     A.U. after    7 cycles
 SCF Done:  E(RB3LYP) =  -796.482265055     A.U. after   12 cycles
 SCF Done:  E(RB3LYP) =  -796.482391239     A.U. after   11 cycles
 SCF Done:  E(RB3LYP) =  -796.482426137     A.U. after   10 cycles
 SCF Done:  E(RB3LYP) =  -796.482440661     A.U. after    9 cycles
 SCF Done:  E(RB3LYP) =  -796.482455916     A.U. after   10 cycles
 SCF Done:  E(RB3LYP) =  -796.482461223     A.U. after   10 cycles
 SCF Done:  E(RB3LYP) =  -796.482463485     A.U. after   10 cycles
 SCF Done:  E(RB3LYP) =  -796.482463756     A.U. after    8 cycles
 Optimization completed.
    -- Stationary point found.
 Normal termination of Gaussian 09 at Wed Jul 28 22:44:22 2021.

 --------------------------------------------------------------------
 #N Geom=AllCheck Guess=TCheck SCRF=Check GenChk RB3LYP/6-31G(d) Freq
 --------------------------------------------------------------------

 Structure from the checkpoint file:  "conf-862.chk"
 ------------------------------------------------------------
 Candidate Structure: Conf:862 OPT and FREQ calc in gas phase
 ------------------------------------------------------------
 Charge =  1 Multiplicity = 1

                          Input orientation:
 ---------------------------------------------------------------------
 Center     Atomic      Atomic             Coordinates (Angstroms)
 Number     Number       Type             X           Y           Z
 ---------------------------------------------------------------------
      1          8           0       -0.722614    1.797765   -0.154069
      2          6           0        0.344529    1.265901    0.182991
      3          7           0        0.495705    0.580628    1.336101
      4          6           0       -0.628905    0.164004    2.157934
      5          6           0       -0.191509    0.213560    3.616124
      6          8           0       -1.244694    0.197495    4.443652
      7          8           0        0.968611    0.204071    3.963486
      8          6           0       -1.112033   -1.306876    1.813876
      9          6           0       -0.893636   -1.637625    0.369994
     10          6           0       -1.404383   -1.091318   -0.781400
     11          7           0       -0.667575   -1.478676   -1.884909
     12          6           0        0.255714   -2.305073   -1.417310
     13          7           0        0.164626   -2.422403   -0.066439
     14          6           0        1.554828    1.258081   -0.760299
     15          6           0        1.221231    1.797632   -2.156512
     16          7           0       -0.089642    1.242943   -2.665999
     17          1           0        1.414955    0.295079    1.655958
     18          1           0       -1.449220    0.860897    1.981724
     19          1           0       -0.907507    0.180103    5.361181
     20          1           0       -2.165892   -1.391238    2.094169
     21          1           0       -0.564217   -2.022512    2.438096
     22          1           0       -2.231328   -0.400978   -0.868207
     23          1           0        0.987016   -2.839832   -2.007771
     24          1           0        0.721396   -3.038843    0.512080
     25          1           0        1.940139    0.234848   -0.830766
     26          1           0        2.365704    1.870891   -0.347598
     27          1           0        2.004643    1.538629   -2.870757
     28          1           0        1.099747    2.882506   -2.142571
     29          1           0       -0.160053    0.190159   -2.651232
     30          1           0       -0.309850    1.583488   -3.606024
     31          1           0       -0.795683    1.576901   -1.977305
 ---------------------------------------------------------------------

 SCF Done:  E(RB3LYP) =  -796.482463757     A.U. after    1 cycles

 Alpha  occ. eigenvalues --  -19.31798 -19.26846 -19.26322 -14.58491 -14.52940
 Alpha  occ. eigenvalues --  -14.50395 -14.46131 -10.44508 -10.44283 -10.40460
 Alpha  occ. eigenvalues --  -10.38002 -10.37423 -10.35938 -10.35539 -10.33928
 Alpha  occ. eigenvalues --  -10.33102  -1.22863  -1.18698  -1.15191  -1.14128
 Alpha  occ. eigenvalues --   -1.13332  -1.07008  -1.00943  -0.94491  -0.92281
 Alpha  occ. eigenvalues --   -0.87811  -0.82306  -0.80205  -0.75463  -0.74801
 Alpha  occ. eigenvalues --   -0.73270  -0.72641  -0.71835  -0.71132  -0.67537
 Alpha  occ. eigenvalues --   -0.65784  -0.63657  -0.62248  -0.61402  -0.60535
 Alpha  occ. eigenvalues --   -0.59279  -0.58543  -0.58049  -0.56941  -0.55567
 Alpha  occ. eigenvalues --   -0.55028  -0.54400  -0.53845  -0.53562  -0.52797
 Alpha  occ. eigenvalues --   -0.52056  -0.50012  -0.49680  -0.43960  -0.42862
 Alpha  occ. eigenvalues --   -0.41638  -0.41197  -0.40042  -0.39853  -0.35777
 Alpha virt. eigenvalues --   -0.13346  -0.12352  -0.10669  -0.09444  -0.07790
 Alpha virt. eigenvalues --   -0.05324  -0.04189  -0.03357  -0.02958  -0.02107
 Alpha virt. eigenvalues --   -0.01996  -0.00079  -0.00020   0.00643   0.01527

 Mulliken charges:
               1
     1  O   -0.552000
     2  C    0.652068
     3  N   -0.595907
     4  C   -0.028853
     5  C    0.586600
     6  O   -0.550349
     7  O   -0.450914
     8  C   -0.377452
     9  C    0.330695
    10  C   -0.070299
    11  N   -0.485321
    12  C    0.213357
    13  N   -0.594102
    14  C   -0.399101
    15  C   -0.187326
    16  N   -0.767906
    17  H    0.359048
    18  H    0.226129
    19  H    0.437664
    20  H    0.216797
    21  H    0.176035
    22  H    0.169924
    23  H    0.198000
    24  H    0.360759
    25  H    0.196809
    26  H    0.227470
    27  H    0.218613
    28  H    0.227525
    29  H    0.422167
    30  H    0.407219
    31  H    0.432651
 Sum of Mulliken charges =   1.00000

 Dipole moment (field-independent basis, Debye):
    X=              2.5808    Y=              0.3466    Z=             -3.2335  Tot=              4.1516
 Quadrupole moment (field-independent basis, Debye-Ang):
   XX=            -83.8889   YY=            -72.7968   ZZ=            -49.8854
   XY=             -0.4128   XZ=            -11.1690   YZ=            -16.5117

  Exact polarizability: 106.272  -5.105 102.054  -7.823  -8.424 148.653
 Approx polarizability: 185.491 -26.266 150.644   1.051 -16.119 206.031

                      1                      2                      3
                      A                      A                      A
 Frequencies --     43.9365                54.3388                85.0047
 Red. masses --      5.3527                 7.3666                 4.0148
 Frc consts  --      0.0061                 0.0128                 0.0171
 IR Inten    --      2.9140                 1.0810                 0.5818

                      4                      5                      6
                      A                      A                      A
 Frequencies --    108.1735               110.7172               122.0306
 Red. masses --      4.7748                 5.2700                 3.8943
 Frc consts  --      0.0329                 0.0381                 0.0342
 IR Inten    --      5.3689                10.2256                 5.5237

                      7                      8                      9
                      A                      A                      A
 Frequencies --    142.9209               157.5976               178.7188
 Red. masses --      4.1312                 5.2779                 4.1650
 Frc consts  --      0.0497                 0.0772                 0.0784
 IR Inten    --     15.9631                 5.9031                11.6401

                     10                     11                     12
                      A                      A                      A
 Frequencies --    210.9164               262.5460               306.7682
 Red. masses --      2.3822                 4.8025                 5.6683
 Frc consts  --      0.0624                 0.1950                 0.3143
 IR Inten    --     27.7386                37.2146                 1.3701

                     13                     14                     15
                      A                      A                      A
 Frequencies --    313.4894               332.9753               360.5467
 Red. masses --      2.6258                 3.8290                 4.4565
 Frc consts  --      0.1520                 0.2501                 0.3413
 IR Inten    --      4.6738                 4.9163                46.2546

                     16                     17                     18
                      A                      A                      A
 Frequencies --    411.6123               439.9572               466.9133
 Red. masses --      3.3211                 2.2015                 1.2957
 Frc consts  --      0.3315                 0.2511                 0.1664
 IR Inten    --      9.6118                14.9488                 0.3441

                     19                     20                     21
                      A                      A                      A
 Frequencies --    523.3037               549.2750               592.7131
 Red. masses --      1.8798                 3.6371                 1.7967
 Frc consts  --      0.3033                 0.6465                 0.3719
 IR Inten    --     92.7659                21.7348               102.3435

                     22                     23                     24
                      A                      A                      A
 Frequencies --    623.4317               630.5778               636.3346
 Red. masses --      1.7463                 1.5562                 3.0678
 Frc consts  --      0.3999                 0.3646                 0.7319
 IR Inten    --      1.6419                55.8741                82.6634

                     25                     26                     27
                      A                      A                      A
 Frequencies --    681.7433               690.2190               690.6808
 Red. masses --      2.6573                 3.0011                 2.4449
 Frc consts  --      0.7277                 0.8424                 0.6872
 IR Inten    --     68.8963                 3.4564                 1.1195

                     28                     29                     30
                      A                      A                      A
 Frequencies --    719.9128               770.4006               810.7636
 Red. masses --      2.9408                 4.0176                 1.3809
 Frc consts  --      0.8980                 1.4049                 0.5348
 IR Inten    --     12.9655                28.4339                11.8999

                     31                     32                     33
                      A                      A                      A
 Frequencies --    842.9335               855.7601               866.0647
 Red. masses --      2.1363                 1.9661                 1.8359
 Frc consts  --      0.8943                 0.8483                 0.8113
 IR Inten    --     14.2400                17.5529                16.8171

                     34                     35                     36
                      A                      A                      A
 Frequencies --    882.2201               932.2660               940.9773
 Red. masses --      2.2567                 2.6372                 5.6283
 Frc consts  --      1.0349                 1.3504                 2.9362
 IR Inten    --      4.1545                14.9130                 9.9089

                     37                     38                     39
                      A                      A                      A
 Frequencies --    963.7399               987.4734              1002.1289
 Red. masses --      3.4262                 1.5263                 3.0664
 Frc consts  --      1.8749                 0.8769                 1.8144
 IR Inten    --      0.9606                 2.8223                16.1513

                     40                     41                     42
                      A                      A                      A
 Frequencies --   1032.2276              1046.9818              1109.3701
 Red. masses --      3.5100                 3.0654                 2.4783
 Frc consts  --      2.2035                 1.9797                 1.7970
 IR Inten    --      3.5141                11.7918                16.6375

                     43                     44                     45
                      A                      A                      A
 Frequencies --   1135.0467              1140.8914              1147.2411
 Red. masses --      1.4293                 2.0591                 1.6031
 Frc consts  --      1.0849                 1.5792                 1.2431
 IR Inten    --     98.1516                17.2651                11.3748

                     46                     47                     48
                      A                      A                      A
 Frequencies --   1154.1884              1179.1187              1216.5843
 Red. masses --      1.4270                 1.8122                 1.8591
 Frc consts  --      1.1200                 1.4844                 1.6212
 IR Inten    --     41.1815               142.7633                53.4684

                     49                     50                     51
                      A                      A                      A
 Frequencies --   1257.3990              1265.5838              1290.2919
 Red. masses --      1.5975                 1.9142                 1.4027
 Frc consts  --      1.4881                 1.8064                 1.3759
 IR Inten    --      7.7454                10.7092                 6.8902

                     52                     53                     54
                      A                      A                      A
 Frequencies --   1293.2516              1307.5009              1352.1696
 Red. masses --      1.3318                 1.5691                 1.4044
 Frc consts  --      1.3124                 1.5805                 1.5129
 IR Inten    --     17.3232                11.8543                 5.7365

                     55                     56                     57
                      A                      A                      A
 Frequencies --   1353.4893              1364.7679              1401.4443
 Red. masses --      1.5499                 1.2212                 1.5473
 Frc consts  --      1.6729                 1.3402                 1.7905
 IR Inten    --      5.9530                21.2126                40.3684

                     58                     59                     60
                      A                      A                      A
 Frequencies --   1406.7098              1434.5171              1436.3281
 Red. masses --      2.3011                 1.6654                 1.8754
 Frc consts  --      2.6829                 2.0192                 2.2796
 IR Inten    --      4.7629                75.1860               100.6542

                     61                     62                     63
                      A                      A                      A
 Frequencies --   1453.5791              1491.6588              1507.4305
 Red. masses --      2.7572                 1.0941                 1.5189
 Frc consts  --      3.4323                 1.4343                 2.0335
 IR Inten    --     21.4864                19.3936                19.2668

                     64                     65                     66
                      A                      A                      A
 Frequencies --   1516.1074              1524.9286              1534.4199
 Red. masses --      1.7835                 1.1152                 1.2306
 Frc consts  --      2.4154                 1.5280                 1.7071
 IR Inten    --      3.0396                33.2157               237.4004

                     67                     68                     69
                      A                      A                      A
 Frequencies --   1569.9585              1627.8279              1670.7556
 Red. masses --      2.1713                 4.1190                 1.1386
 Frc consts  --      3.1531                 6.4307                 1.8726
 IR Inten    --    190.3004                16.4967                66.8039

                     70                     71                     72
                      A                      A                      A
 Frequencies --   1731.0427              1746.3615              1845.4949
 Red. masses --      1.7029                 1.6911                10.1613
 Frc consts  --      3.0064                 3.0388                20.3903
 IR Inten    --    270.4514                27.5991               240.0450

                     73                     74                     75
                      A                      A                      A
 Frequencies --   2970.5775              3068.2392              3071.0373
 Red. masses --      1.0798                 1.0661                 1.0613
 Frc consts  --      5.6139                 5.9132                 5.8973
 IR Inten    --    790.9118                11.1813                 4.5198

                     76                     77                     78
                      A                      A                      A
 Frequencies --   3110.1847              3121.7138              3125.0822
 Red. masses --      1.0985                 1.0647                 1.0986
 Frc consts  --      6.2606                 6.1132                 6.3216
 IR Inten    --      2.6556                 4.9998                 1.6419

                     79                     80                     81
                      A                      A                      A
 Frequencies --   3151.0419              3175.8061              3205.7213
 Red. masses --      1.0869                 1.1098                 1.0706
 Frc consts  --      6.3585                 6.5949                 6.4820
 IR Inten    --      3.0791                10.8645               219.1237

                     82                     83                     84
                      A                      A                      A
 Frequencies --   3278.7989              3282.6540              3500.1870
 Red. masses --      1.0959                 1.0997                 1.0795
 Frc consts  --      6.9416                 6.9818                 7.7921
 IR Inten    --      0.2684                 2.5275               113.4746

                     85                     86                     87
                      A                      A                      A
 Frequencies --   3582.2814              3625.8401              3669.0458
 Red. masses --      1.0777                 1.0817                 1.0643
 Frc consts  --      8.1486                 8.3787                 8.4416
 IR Inten    --     70.0668                75.2306               109.2037

 - Thermochemistry -
 -------------------
 Temperature   298.150 Kelvin.  Pressure   1.00000 Atm.
 Atom     1 has atomic number  8 and mass  15.99491

 Molecular mass:   227.11442 amu.
 Principal axes and moments of inertia in atomic units:
                           1         2         3
     Eigenvalues --  2230.146674561.330615712.96544
           X           -0.09841   0.30175   0.94830
           Y           -0.03495   0.95129  -0.30632
           Z            0.99453   0.06329   0.08307
 This molecule is an asymmetric top.
 Rotational symmetry number  1.
 Warning -- assumption of classical behavior for rotation
           may cause significant error
 Rotational temperatures (Kelvin)      0.03884     0.01899     0.01516
 Rotational constants (GHZ):           0.80925     0.39566     0.31590
 Zero-point vibrational energy     686566.5 (Joules/Mol)
                                  164.09334 (Kcal/Mol)
 Warning -- explicit consideration of  21 degrees of freedom as
           vibrations may cause significant error
 Vibrational temperatures:     63.21    78.18   122.30   155.64   159.30
          (Kelvin)            175.57   205.63   226.75   257.14   303.46
                              377.74   441.37   451.04   479.08   518.75
                              592.22   633.00   671.78   752.92   790.28
                              852.78   896.98   907.26   915.54   980.88
                              993.07   993.73  1035.79  1108.43  1166.51
                             1212.79  1231.25  1246.07  1269.32  1341.32
                             1353.85  1386.61  1420.75  1441.84  1485.14
                             1506.37  1596.13  1633.08  1641.49  1650.62
                             1660.62  1696.49  1750.39  1809.11  1820.89
                             1856.44  1860.70  1881.20  1945.47  1947.37
                             1963.59  2016.36  2023.94  2063.95  2066.55
                             2091.37  2146.16  2168.85  2181.34  2194.03
                             2207.69  2258.82  2342.08  2403.84  2490.58
                             2512.62  2655.25  4273.99  4414.51  4418.53
                             4474.86  4491.44  4496.29  4533.64  4569.27
                             4612.31  4717.45  4723.00  5035.98  5154.10
                             5216.77  5278.93

 Zero-point correction=                           0.261499 (Hartree/Particle)
 Thermal correction to Energy=                    0.276594
 Thermal correction to Enthalpy=                  0.277538
 Thermal correction to Gibbs Free Energy=         0.218983
 Sum of electronic and zero-point Energies=           -796.220964
 Sum of electronic and thermal Energies=              -796.205870
 Sum of electronic and thermal Enthalpies=            -796.204926
 Sum of electronic and thermal Free Energies=         -796.263481

                     E (Thermal)             CV                S
                      KCal/Mol        Cal/Mol-Kelvin    Cal/Mol-Kelvin
 Total                  173.565             57.398            123.239
 Electronic               0.000              0.000              0.000
 Translational            0.889              2.981             42.163
 Rotational               0.889              2.981             32.430
 Vibrational            171.788             51.436             48.646
 Vibration     1          0.595              1.980              5.073
 Vibration     2          0.596              1.976              4.653
 Vibration     3          0.601              1.960              3.772
 Vibration     4          0.606              1.943              3.301
 Vibration     5          0.607              1.941              3.256
 Vibration     6          0.610              1.931              3.068
 Vibration     7          0.616              1.910              2.764
 Vibration     8          0.621              1.894              2.578
 Vibration     9          0.629              1.868              2.342
 Vibration    10          0.643              1.824              2.036
 Vibration    11          0.670              1.741              1.645
 Vibration    12          0.697              1.661              1.380
 Vibration    13          0.701              1.648              1.344
 Vibration    14          0.715              1.610              1.246
 Vibration    15          0.735              1.554              1.120
 Vibration    16          0.776              1.445              0.921
 Vibration    17          0.800              1.383              0.827
 Vibration    18          0.824              1.323              0.746
 Vibration    19          0.878              1.198              0.602
 Vibration    20          0.905              1.141              0.546
 Vibration    21          0.950              1.047              0.462

 Normal termination of Gaussian 09 at Wed Jul 28 23:03:52 2021.
