 Gaussian 09, Revision D.01,
 Gaussian 09:  ES64L-G09RevD.01 24-Apr-2013

 ----------------------------------------------------------------------
 # B3LYP/6-31G(d) opt=calcfc freq=noraman nosymm integral(ultrafinegrid
 )
 ----------------------------------------------------------------------

 -----------------------------------------------------------
 Candidate Structure: Conf:55 OPT and FREQ calc in gas phase
 -----------------------------------------------------------
 Symbolic Z-matrix:
 Charge =  1 Multiplicity = 1

 SCF Done:  E(RB3LYP) =  -796.432983885     A.U. after   14 cycles
 SCF Done:  E(RB3LYP) =  -796.439862215     A.U. after   14 cycles
 SCF Done:  E(RB3LYP) =  -796.441449058     A.U. after   15 cycles
 SCF Done:  E(RB3LYP) =  -796.435219528     A.U. after   13 cycles
 SCF Done:  E(RB3LYP) =  -796.441449117     A.U. after    7 cycles
 SCF Done:  E(RB3LYP) =  -796.439249044     A.U. after   15 cycles
 SCF Done:  E(RB3LYP) =  -796.441539427     A.U. after   11 cycles
 SCF Done:  E(RB3LYP) =  -796.406621401     A.U. after   15 cycles
 SCF Done:  E(RB3LYP) =  -796.441732570     A.U. after   10 cycles
 SCF Done:  E(RB3LYP) =  -796.441999977     A.U. after   12 cycles
 SCF Done:  E(RB3LYP) =  -796.442495378     A.U. after   11 cycles
 SCF Done:  E(RB3LYP) =  -796.442504402     A.U. after   10 cycles
 SCF Done:  E(RB3LYP) =  -796.442522955     A.U. after   11 cycles
 SCF Done:  E(RB3LYP) =  -796.442535902     A.U. after   10 cycles
 SCF Done:  E(RB3LYP) =  -796.442546427     A.U. after   11 cycles
 SCF Done:  E(RB3LYP) =  -796.442549601     A.U. after   10 cycles
 SCF Done:  E(RB3LYP) =  -796.442550337     A.U. after   10 cycles
 SCF Done:  E(RB3LYP) =  -796.442551370     A.U. after    9 cycles
 SCF Done:  E(RB3LYP) =  -796.442551404     A.U. after    7 cycles
 Optimization completed.
    -- Stationary point found.
 Normal termination of Gaussian 09 at Wed Jul 28 22:39:57 2021.

 --------------------------------------------------------------------
 #N Geom=AllCheck Guess=TCheck SCRF=Check GenChk RB3LYP/6-31G(d) Freq
 --------------------------------------------------------------------

 Structure from the checkpoint file:  "conf-55.chk"
 -----------------------------------------------------------
 Candidate Structure: Conf:55 OPT and FREQ calc in gas phase
 -----------------------------------------------------------
 Charge =  1 Multiplicity = 1

                          Input orientation:
 ---------------------------------------------------------------------
 Center     Atomic      Atomic             Coordinates (Angstroms)
 Number     Number       Type             X           Y           Z
 ---------------------------------------------------------------------
      1          8           0        1.425492    0.703790    1.070053
      2          6           0        1.533116    0.107404    0.002119
      3          7           0        0.529354   -0.524136   -0.632673
      4          6           0       -0.802032   -0.669106   -0.059559
      5          6           0       -1.441962   -1.862825   -0.798634
      6          8           0       -2.637390   -2.265077   -0.370749
      7          8           0       -0.878486   -2.401933   -1.727137
      8          6           0       -1.636054    0.637839   -0.180004
      9          6           0       -2.956977    0.555962    0.529073
     10          6           0       -3.308188    0.156198    1.805932
     11          7           0       -4.665128    0.270031    2.006219
     12          6           0       -5.142975    0.735918    0.874891
     13          7           0       -4.156842    0.921531   -0.054186
     14          6           0        2.899556    0.071366   -0.723263
     15          6           0        3.978267    0.220260    0.341083
     16          7           0        5.341407    0.513445   -0.284387
     17          1           0        0.682428   -1.112404   -1.449490
     18          1           0       -0.700587   -0.914864    1.004621
     19          1           0       -2.967049   -1.684389    0.349679
     20          1           0       -1.783296    0.865745   -1.242593
     21          1           0       -1.022541    1.442396    0.240957
     22          1           0       -2.654506   -0.176218    2.603010
     23          1           0       -6.182391    0.949876    0.665452
     24          1           0       -4.281572    1.262608   -0.997823
     25          1           0        3.022768   -0.849127   -1.304942
     26          1           0        2.928136    0.917322   -1.424559
     27          1           0        3.740355    1.050130    1.007777
     28          1           0        4.107137   -0.685514    0.937044
     29          1           0        5.643751   -0.241771   -0.912193
     30          1           0        5.318902    1.379239   -0.837755
     31          1           0        6.067143    0.626304    0.434807
 ---------------------------------------------------------------------

 SCF Done:  E(RB3LYP) =  -796.442551404     A.U. after    1 cycles

 Alpha  occ. eigenvalues --  -19.29003 -19.24982 -19.24033 -14.66578 -14.48821
 Alpha  occ. eigenvalues --  -14.48310 -14.39763 -10.43187 -10.42976 -10.42488
 Alpha  occ. eigenvalues --  -10.37172 -10.35923 -10.32562 -10.31962 -10.31560
 Alpha  occ. eigenvalues --  -10.29018  -1.20433  -1.20274  -1.16980  -1.12261
 Alpha  occ. eigenvalues --   -1.10342  -1.05446  -0.96336  -0.95948  -0.90807
 Alpha  occ. eigenvalues --   -0.85413  -0.82604  -0.78967  -0.78533  -0.77146
 Alpha  occ. eigenvalues --   -0.72409  -0.70723  -0.70351  -0.69031  -0.67599
 Alpha  occ. eigenvalues --   -0.66695  -0.64591  -0.62920  -0.59950  -0.59738
 Alpha  occ. eigenvalues --   -0.57758  -0.56747  -0.55818  -0.54704  -0.53712
 Alpha  occ. eigenvalues --   -0.53198  -0.52356  -0.51563  -0.50389  -0.50131
 Alpha  occ. eigenvalues --   -0.49400  -0.47948  -0.47221  -0.41498  -0.39297
 Alpha  occ. eigenvalues --   -0.38632  -0.37912  -0.36940  -0.35016  -0.31771
 Alpha virt. eigenvalues --   -0.16817  -0.11845  -0.09958  -0.09837  -0.09283
 Alpha virt. eigenvalues --   -0.06984  -0.06313  -0.03664  -0.03265  -0.02348
 Alpha virt. eigenvalues --   -0.01447  -0.01279   0.00623   0.01621   0.02463

 Mulliken charges:
               1
     1  O   -0.511535
     2  C    0.644023
     3  N   -0.619965
     4  C   -0.087813
     5  C    0.618898
     6  O   -0.555650
     7  O   -0.457991
     8  C   -0.336275
     9  C    0.263887
    10  C   -0.102068
    11  N   -0.396896
    12  C    0.218321
    13  N   -0.593332
    14  C   -0.404774
    15  C   -0.206613
    16  N   -0.733966
    17  H    0.365719
    18  H    0.205306
    19  H    0.438147
    20  H    0.163849
    21  H    0.208487
    22  H    0.156193
    23  H    0.186090
    24  H    0.346701
    25  H    0.192835
    26  H    0.200070
    27  H    0.263923
    28  H    0.238776
    29  H    0.429919
    30  H    0.428812
    31  H    0.436924
 Sum of Mulliken charges =   1.00000

 Dipole moment (field-independent basis, Debye):
    X=             19.8775    Y=              4.1180    Z=             -3.9028  Tot=             20.6714
 Quadrupole moment (field-independent basis, Debye-Ang):
   XX=             43.6694   YY=            -94.4770   ZZ=            -95.5029
   XY=             -0.6367   XZ=              1.9582   YZ=            -11.0535

  Exact polarizability: 169.318  -0.737  91.614 -12.096   4.904 110.194
 Approx polarizability: 204.833  -1.109 140.922 -15.413   7.353 194.362

                      1                      2                      3
                      A                      A                      A
 Frequencies --     25.8034                34.2940                44.4126
 Red. masses --      4.3505                 3.9392                 1.8506
 Frc consts  --      0.0017                 0.0027                 0.0022
 IR Inten    --      7.5212                 6.6328                 7.8272

                      4                      5                      6
                      A                      A                      A
 Frequencies --     48.7187                67.2987                86.9633
 Red. masses --      4.7253                 7.4032                 5.8028
 Frc consts  --      0.0066                 0.0198                 0.0259
 IR Inten    --      1.4424                12.0602                 7.7259

                      7                      8                      9
                      A                      A                      A
 Frequencies --     92.4569               116.1056               121.5885
 Red. masses --      5.0386                 5.0149                 4.8191
 Frc consts  --      0.0254                 0.0398                 0.0420
 IR Inten    --      5.6521                 7.2637                 6.2506

                     10                     11                     12
                      A                      A                      A
 Frequencies --    195.5472               224.2861               242.6469
 Red. masses --      5.0804                 1.6459                 1.8876
 Frc consts  --      0.1145                 0.0488                 0.0655
 IR Inten    --      4.5379                18.5330                16.7059

                     13                     14                     15
                      A                      A                      A
 Frequencies --    269.9154               316.2255               329.4232
 Red. masses --      5.4345                 2.3677                 7.4426
 Frc consts  --      0.2333                 0.1395                 0.4759
 IR Inten    --      8.0699                 5.1228                 0.5939

                     16                     17                     18
                      A                      A                      A
 Frequencies --    348.4937               378.4292               400.6199
 Red. masses --      5.3206                 3.7173                 4.3890
 Frc consts  --      0.3807                 0.3137                 0.4150
 IR Inten    --     15.0354                14.0076                16.2058

                     19                     20                     21
                      A                      A                      A
 Frequencies --    538.5093               546.2064               580.3526
 Red. masses --      1.4643                 3.5652                 2.5158
 Frc consts  --      0.2502                 0.6267                 0.4992
 IR Inten    --     84.7203                13.7524                45.6399

                     22                     23                     24
                      A                      A                      A
 Frequencies --    618.2581               654.9141               662.4137
 Red. masses --      3.3353                 1.6093                 3.0443
 Frc consts  --      0.7511                 0.4067                 0.7870
 IR Inten    --     25.9207                12.4599                20.7093

                     25                     26                     27
                      A                      A                      A
 Frequencies --    677.1682               685.1387               716.2578
 Red. masses --      1.8395                 1.6289                 3.8951
 Frc consts  --      0.4970                 0.4505                 1.1773
 IR Inten    --     18.6873                58.2368                 7.7796

                     28                     29                     30
                      A                      A                      A
 Frequencies --    736.9594               760.3934               798.6230
 Red. masses --      3.2183                 3.5027                 1.3359
 Frc consts  --      1.0298                 1.1932                 0.5020
 IR Inten    --      0.9979                 0.4624                11.3850

                     31                     32                     33
                      A                      A                      A
 Frequencies --    820.9138               829.6470               853.2695
 Red. masses --      2.6384                 1.4047                 1.3841
 Frc consts  --      1.0476                 0.5697                 0.5937
 IR Inten    --      1.6798                21.2193                29.3797

                     34                     35                     36
                      A                      A                      A
 Frequencies --    888.0308               925.0157               931.5279
 Red. masses --      2.8599                 1.2709                 5.9761
 Frc consts  --      1.3288                 0.6407                 3.0553
 IR Inten    --     36.6457                 5.4347                11.5323

                     37                     38                     39
                      A                      A                      A
 Frequencies --    940.5138               988.1252              1019.4929
 Red. masses --      3.5266                 2.0972                 3.1888
 Frc consts  --      1.8380                 1.2064                 1.9528
 IR Inten    --     42.6853                30.4763                 8.5718

                     40                     41                     42
                      A                      A                      A
 Frequencies --   1027.0763              1039.2986              1096.8546
 Red. masses --      3.0580                 4.0320                 1.7233
 Frc consts  --      1.9006                 2.5659                 1.2216
 IR Inten    --      9.7230                 3.2927                18.9965

                     43                     44                     45
                      A                      A                      A
 Frequencies --   1120.8817              1124.9959              1158.0790
 Red. masses --      1.6838                 2.1975                 2.2677
 Frc consts  --      1.2464                 1.6386                 1.7919
 IR Inten    --     21.4785                36.3313                13.9355

                     46                     47                     48
                      A                      A                      A
 Frequencies --   1159.9526              1184.0379              1242.0049
 Red. masses --      2.2970                 1.3723                 1.7458
 Frc consts  --      1.8209                 1.1335                 1.5867
 IR Inten    --      4.6540                 0.6762                11.5116

                     49                     50                     51
                      A                      A                      A
 Frequencies --   1249.7176              1266.7496              1291.4565
 Red. masses --      1.7452                 1.8858                 1.4599
 Frc consts  --      1.6059                 1.7829                 1.4346
 IR Inten    --      4.3835                12.6703                 0.5755

                     52                     53                     54
                      A                      A                      A
 Frequencies --   1300.5578              1319.6684              1333.9296
 Red. masses --      1.3048                 1.3232                 1.3015
 Frc consts  --      1.3003                 1.3577                 1.3645
 IR Inten    --      3.0258                 9.7882                14.0020

                     55                     56                     57
                      A                      A                      A
 Frequencies --   1344.2629              1365.2930              1378.9878
 Red. masses --      1.3940                 1.4096                 1.5059
 Frc consts  --      1.4841                 1.5481                 1.6872
 IR Inten    --     37.2716                29.1220               115.9958

                     58                     59                     60
                      A                      A                      A
 Frequencies --   1411.8866              1413.7069              1430.1178
 Red. masses --      2.6012                 1.3586                 2.1978
 Frc consts  --      3.0550                 1.5998                 2.6484
 IR Inten    --     88.1505                20.6635               213.7487

                     61                     62                     63
                      A                      A                      A
 Frequencies --   1447.5050              1502.1294              1504.7868
 Red. masses --      3.1706                 2.7215                 1.1118
 Frc consts  --      3.9141                 3.6180                 1.4834
 IR Inten    --     22.1788                18.8308                 0.7476

                     64                     65                     66
                      A                      A                      A
 Frequencies --   1517.9333              1523.2979              1543.6312
 Red. masses --      1.2976                 1.0762                 1.2504
 Frc consts  --      1.7616                 1.4714                 1.7555
 IR Inten    --     15.2490                12.9768               336.6289

                     67                     68                     69
                      A                      A                      A
 Frequencies --   1552.8153              1607.6338              1697.6167
 Red. masses --      2.0952                 3.8640                 1.0432
 Frc consts  --      2.9765                 5.8838                 1.7714
 IR Inten    --    195.0117                12.1200                57.0292

                     70                     71                     72
                      A                      A                      A
 Frequencies --   1701.3450              1776.9975              1848.9619
 Red. masses --      1.0446                10.0182                 9.0009
 Frc consts  --      1.7816                18.6387                18.1298
 IR Inten    --     46.9652               271.3920               268.7776

                     73                     74                     75
                      A                      A                      A
 Frequencies --   3045.0163              3056.5479              3070.6418
 Red. masses --      1.0636                 1.0623                 1.0814
 Frc consts  --      5.8107                 5.8476                 6.0072
 IR Inten    --      3.9356                 7.0789                12.4895

                     76                     77                     78
                      A                      A                      A
 Frequencies --   3101.7934              3103.2048              3127.8747
 Red. masses --      1.1049                 1.1009                 1.0605
 Frc consts  --      6.2634                 6.2463                 6.1129
 IR Inten    --      5.0312                 6.4272                 2.4314

                     79                     80                     81
                      A                      A                      A
 Frequencies --   3192.8495              3250.5583              3278.3278
 Red. masses --      1.1114                 1.0958                 1.0979
 Frc consts  --      6.6755                 6.8218                 6.9523
 IR Inten    --      2.4350                 4.4769                 0.5041

                     82                     83                     84
                      A                      A                      A
 Frequencies --   3390.1209              3479.7581              3481.2180
 Red. masses --      1.0307                 1.0938                 1.0940
 Frc consts  --      6.9796                 7.8036                 7.8114
 IR Inten    --     54.1088                93.6549                88.2455

                     85                     86                     87
                      A                      A                      A
 Frequencies --   3517.2043              3531.4137              3634.6441
 Red. masses --      1.0770                 1.0680                 1.0814
 Frc consts  --      7.8495                 7.8474                 8.4169
 IR Inten    --    104.2380               426.1630                56.0392

 - Thermochemistry -
 -------------------
 Temperature   298.150 Kelvin.  Pressure   1.00000 Atm.
 Atom     1 has atomic number  8 and mass  15.99491

 Molecular mass:   227.11442 amu.
 Principal axes and moments of inertia in atomic units:
                           1         2         3
     Eigenvalues --  1656.810338174.589409213.19499
           X            0.99343   0.05290   0.10151
           Y            0.01885   0.79910  -0.60090
           Z           -0.11290   0.59886   0.79285
 This molecule is an asymmetric top.
 Rotational symmetry number  1.
 Warning -- assumption of classical behavior for rotation
           may cause significant error
 Rotational temperatures (Kelvin)      0.05228     0.01060     0.00940
 Rotational constants (GHZ):           1.08929     0.22077     0.19589
 Zero-point vibrational energy     683428.4 (Joules/Mol)
                                  163.34330 (Kcal/Mol)
 Warning -- explicit consideration of  22 degrees of freedom as
           vibrations may cause significant error
 Vibrational temperatures:     37.13    49.34    63.90    70.10    96.83
          (Kelvin)            125.12   133.02   167.05   174.94   281.35
                              322.70   349.11   388.35   454.98   473.97
                              501.40   544.47   576.40   774.79   785.87
                              835.00   889.53   942.27   953.06   974.29
                              985.76  1030.53  1060.32  1094.04  1149.04
                             1181.11  1193.68  1227.66  1277.68  1330.89
                             1340.26  1353.19  1421.69  1466.82  1477.73
                             1495.32  1578.13  1612.70  1618.62  1666.22
                             1668.91  1703.56  1786.97  1798.06  1822.57
                             1858.12  1871.21  1898.71  1919.22  1934.09
                             1964.35  1984.05  2031.39  2034.01  2057.62
                             2082.63  2161.23  2165.05  2183.96  2191.68
                             2220.94  2234.15  2313.02  2442.49  2447.85
                             2556.70  2660.24  4381.09  4397.69  4417.96
                             4462.78  4464.81  4500.31  4593.79  4676.82
                             4716.78  4877.62  5006.59  5008.69  5060.47
                             5080.91  5229.44

 Zero-point correction=                           0.260304 (Hartree/Particle)
 Thermal correction to Energy=                    0.276550
 Thermal correction to Enthalpy=                  0.277494
 Thermal correction to Gibbs Free Energy=         0.213556
 Sum of electronic and zero-point Energies=           -796.182247
 Sum of electronic and thermal Energies=              -796.166002
 Sum of electronic and thermal Enthalpies=            -796.165057
 Sum of electronic and thermal Free Energies=         -796.228996

                     E (Thermal)             CV                S
                      KCal/Mol        Cal/Mol-Kelvin    Cal/Mol-Kelvin
 Total                  173.538             58.495            134.570
 Electronic               0.000              0.000              0.000
 Translational            0.889              2.981             42.163
 Rotational               0.889              2.981             33.189
 Vibrational            171.760             52.533             59.217
 Vibration     1          0.593              1.985              6.128
 Vibration     2          0.594              1.983              5.564
 Vibration     3          0.595              1.980              5.052
 Vibration     4          0.595              1.978              4.869
 Vibration     5          0.598              1.970              4.231
 Vibration     6          0.601              1.958              3.727
 Vibration     7          0.602              1.955              3.607
 Vibration     8          0.608              1.936              3.164
 Vibration     9          0.609              1.931              3.075
 Vibration    10          0.636              1.846              2.175
 Vibration    11          0.649              1.804              1.924
 Vibration    12          0.659              1.775              1.783
 Vibration    13          0.674              1.729              1.597
 Vibration    14          0.703              1.643              1.330
 Vibration    15          0.712              1.617              1.263
 Vibration    16          0.726              1.578              1.173
 Vibration    17          0.749              1.516              1.045
 Vibration    18          0.766              1.469              0.960
 Vibration    19          0.894              1.165              0.569
 Vibration    20          0.901              1.148              0.552
 Vibration    21          0.937              1.074              0.485
 Vibration    22          0.978              0.993              0.419

 Optimization completed.
    -- Stationary point found.
 Normal termination of Gaussian 09 at Wed Jul 28 22:55:13 2021.
