 Gaussian 09, Revision D.01,
 Gaussian 09:  ES64L-G09RevD.01 24-Apr-2013

 ----------------------------------------------------------------------
 # B3LYP/6-31G(d) opt=calcfc freq=noraman nosymm integral(ultrafinegrid
 )
 ----------------------------------------------------------------------

 ------------------------------------------------------------
 Candidate Structure: Conf:342 OPT and FREQ calc in gas phase
 ------------------------------------------------------------
 Symbolic Z-matrix:
 Charge =  1 Multiplicity = 1

 SCF Done:  E(RB3LYP) =  -796.433422962     A.U. after   17 cycles
 SCF Done:  E(RB3LYP) =  -796.439905597     A.U. after   12 cycles
 SCF Done:  E(RB3LYP) =  -796.440816817     A.U. after   13 cycles
 SCF Done:  E(RB3LYP) =  -796.441402121     A.U. after   12 cycles
 SCF Done:  E(RB3LYP) =  -796.442108584     A.U. after   13 cycles
 SCF Done:  E(RB3LYP) =  -796.442784261     A.U. after   12 cycles
 SCF Done:  E(RB3LYP) =  -796.443250624     A.U. after   12 cycles
 SCF Done:  E(RB3LYP) =  -796.443333477     A.U. after   11 cycles
 SCF Done:  E(RB3LYP) =  -796.443342834     A.U. after   10 cycles
 SCF Done:  E(RB3LYP) =  -796.443345101     A.U. after    9 cycles
 SCF Done:  E(RB3LYP) =  -796.443345430     A.U. after    8 cycles
 SCF Done:  E(RB3LYP) =  -796.443345494     A.U. after    7 cycles
 SCF Done:  E(RB3LYP) =  -796.443345506     A.U. after    6 cycles
 Optimization completed.
    -- Stationary point found.
 Normal termination of Gaussian 09 at Wed Jul 28 22:30:25 2021.

 --------------------------------------------------------------------
 #N Geom=AllCheck Guess=TCheck SCRF=Check GenChk RB3LYP/6-31G(d) Freq
 --------------------------------------------------------------------

 Structure from the checkpoint file:  "conf-342.chk"
 ------------------------------------------------------------
 Candidate Structure: Conf:342 OPT and FREQ calc in gas phase
 ------------------------------------------------------------
 Charge =  1 Multiplicity = 1

                          Input orientation:
 ---------------------------------------------------------------------
 Center     Atomic      Atomic             Coordinates (Angstroms)
 Number     Number       Type             X           Y           Z
 ---------------------------------------------------------------------
      1          8           0        1.060613   -1.221998    0.129250
      2          6           0        1.414477   -0.093729   -0.209323
      3          7           0        0.579255    0.914353   -0.513839
      4          6           0       -0.859543    0.725339   -0.641454
      5          6           0       -1.364789    1.931792   -1.458502
      6          8           0       -2.675424    2.004282   -1.680370
      7          8           0       -0.596521    2.770850   -1.877483
      8          6           0       -1.567428    0.583906    0.741551
      9          6           0       -2.935321   -0.015796    0.648021
     10          6           0       -4.207652    0.521164    0.705789
     11          7           0       -5.165878   -0.455504    0.561890
     12          6           0       -4.497438   -1.576797    0.419083
     13          7           0       -3.145248   -1.372546    0.454461
     14          6           0        2.919058    0.244250   -0.317391
     15          6           0        3.677634   -0.723310    0.580392
     16          7           0        5.179916   -0.670983    0.304756
     17          1           0        0.907443    1.791600   -0.915319
     18          1           0       -1.045626   -0.190108   -1.218286
     19          1           0       -3.168860    1.303786   -1.199552
     20          1           0       -1.625968    1.564067    1.226081
     21          1           0       -0.926075   -0.046817    1.365802
     22          1           0       -4.480798    1.555487    0.876129
     23          1           0       -4.930493   -2.559029    0.283961
     24          1           0       -2.426939   -2.082726    0.402098
     25          1           0        3.110358    1.288699   -0.046738
     26          1           0        3.215931    0.111437   -1.367691
     27          1           0        3.349829   -1.747913    0.400964
     28          1           0        3.555674   -0.495079    1.641092
     29          1           0        5.388217   -0.912239   -0.672470
     30          1           0        5.566695    0.265628    0.475725
     31          1           0        5.694631   -1.331124    0.901366
 ---------------------------------------------------------------------

 SCF Done:  E(RB3LYP) =  -796.443345506     A.U. after    2 cycles

 Alpha  occ. eigenvalues --  -19.28981 -19.25498 -19.24008 -14.66876 -14.49077
 Alpha  occ. eigenvalues --  -14.48334 -14.39790 -10.43567 -10.43375 -10.42514
 Alpha  occ. eigenvalues --  -10.37489 -10.35981 -10.32819 -10.31910 -10.31486
 Alpha  occ. eigenvalues --  -10.29093  -1.20732  -1.20255  -1.17367  -1.12246
 Alpha  occ. eigenvalues --   -1.10389  -1.05710  -0.96681  -0.96063  -0.90777
 Alpha  occ. eigenvalues --   -0.85727  -0.82906  -0.79255  -0.78780  -0.77247
 Alpha  occ. eigenvalues --   -0.72619  -0.70738  -0.70210  -0.69330  -0.68147
 Alpha  occ. eigenvalues --   -0.66822  -0.64727  -0.63196  -0.60342  -0.59810
 Alpha  occ. eigenvalues --   -0.57925  -0.56987  -0.56273  -0.54596  -0.54207
 Alpha  occ. eigenvalues --   -0.53417  -0.52509  -0.51335  -0.50288  -0.50081
 Alpha  occ. eigenvalues --   -0.49510  -0.48309  -0.46967  -0.41458  -0.39749
 Alpha  occ. eigenvalues --   -0.39049  -0.38029  -0.36906  -0.35039  -0.32036
 Alpha virt. eigenvalues --   -0.17092  -0.12144  -0.10258  -0.10061  -0.09320
 Alpha virt. eigenvalues --   -0.07269  -0.06856  -0.03934  -0.03349  -0.02571
 Alpha virt. eigenvalues --   -0.01811  -0.01273   0.00968   0.01419   0.02022

 Mulliken charges:
               1
     1  O   -0.525035
     2  C    0.646793
     3  N   -0.617148
     4  C   -0.072749
     5  C    0.614796
     6  O   -0.556173
     7  O   -0.455932
     8  C   -0.360433
     9  C    0.263333
    10  C   -0.094888
    11  N   -0.396054
    12  C    0.220451
    13  N   -0.595224
    14  C   -0.407657
    15  C   -0.205027
    16  N   -0.734053
    17  H    0.368343
    18  H    0.196548
    19  H    0.431786
    20  H    0.190868
    21  H    0.190597
    22  H    0.169927
    23  H    0.183460
    24  H    0.347491
    25  H    0.196492
    26  H    0.202360
    27  H    0.261453
    28  H    0.238390
    29  H    0.429765
    30  H    0.430471
    31  H    0.437051
 Sum of Mulliken charges =   1.00000

 Dipole moment (field-independent basis, Debye):
    X=             21.7663    Y=             -4.5308    Z=              2.2364  Tot=             22.3450
 Quadrupole moment (field-independent basis, Debye-Ang):
   XX=             15.9935   YY=            -88.7242   ZZ=            -92.2225
   XY=             -4.4824   XZ=              5.6156   YZ=              6.6205

  Exact polarizability: 167.856   3.596 121.256  -2.482 -10.833  83.008
 Approx polarizability: 216.144   6.371 202.063  -3.896 -14.177 124.813

                      1                      2                      3
                      A                      A                      A
 Frequencies --     29.2699                30.5087                44.2720
 Red. masses --      3.2427                 3.3874                 2.4419
 Frc consts  --      0.0016                 0.0019                 0.0028
 IR Inten    --      1.3263                 2.2887                 8.9841

                      4                      5                      6
                      A                      A                      A
 Frequencies --     59.6456                74.6605                86.3317
 Red. masses --      5.2608                 4.3589                 6.0163
 Frc consts  --      0.0110                 0.0143                 0.0264
 IR Inten    --      2.8481                 4.6736                12.9836

                      7                      8                      9
                      A                      A                      A
 Frequencies --    102.7127               111.0980               147.6882
 Red. masses --      7.5294                 6.1514                 4.1257
 Frc consts  --      0.0468                 0.0447                 0.0530
 IR Inten    --      2.5801                11.0592                 8.3183

                     10                     11                     12
                      A                      A                      A
 Frequencies --    190.6707               215.3887               236.3148
 Red. masses --      5.0478                 2.9281                 1.2778
 Frc consts  --      0.1081                 0.0800                 0.0420
 IR Inten    --      1.0909                26.3846                 3.6741

                     13                     14                     15
                      A                      A                      A
 Frequencies --    272.7349               331.5784               335.5689
 Red. masses --      5.6572                 2.1714                 6.6298
 Frc consts  --      0.2479                 0.1407                 0.4399
 IR Inten    --     14.0581                 2.4779                 3.9327

                     16                     17                     18
                      A                      A                      A
 Frequencies --    347.8587               379.2645               384.2147
 Red. masses --      5.3868                 3.7077                 4.4953
 Frc consts  --      0.3841                 0.3142                 0.3910
 IR Inten    --      6.2634                20.8016                13.0775

                     19                     20                     21
                      A                      A                      A
 Frequencies --    538.2791               548.4769               587.7561
 Red. masses --      1.7582                 2.7675                 2.5331
 Frc consts  --      0.3001                 0.4905                 0.5156
 IR Inten    --     67.3401                14.9643                 7.5094

                     22                     23                     24
                      A                      A                      A
 Frequencies --    616.7318               658.4524               663.0955
 Red. masses --      3.4845                 1.6313                 2.4146
 Frc consts  --      0.7809                 0.4167                 0.6255
 IR Inten    --     54.7232                29.0788                76.4643

                     25                     26                     27
                      A                      A                      A
 Frequencies --    672.5709               685.8381               720.7303
 Red. masses --      1.8730                 2.7545                 2.0988
 Frc consts  --      0.4992                 0.7634                 0.6423
 IR Inten    --     14.5413                 5.6792                54.0582

                     28                     29                     30
                      A                      A                      A
 Frequencies --    741.7958               769.4904               799.7866
 Red. masses --      2.7542                 4.1793                 1.3426
 Frc consts  --      0.8929                 1.4580                 0.5060
 IR Inten    --      2.7464                 0.7397                 8.7968

                     31                     32                     33
                      A                      A                      A
 Frequencies --    823.9108               833.4320               863.3337
 Red. masses --      2.8054                 1.4525                 1.2829
 Frc consts  --      1.1220                 0.5944                 0.5634
 IR Inten    --      7.2715                10.1826                 9.7682

                     34                     35                     36
                      A                      A                      A
 Frequencies --    887.8266               925.3206               929.2740
 Red. masses --      2.8511                 1.2780                 5.8608
 Frc consts  --      1.3241                 0.6447                 2.9819
 IR Inten    --     40.2228                 5.3524                 6.8772

                     37                     38                     39
                      A                      A                      A
 Frequencies --    937.3192               987.6378              1005.2447
 Red. masses --      3.4540                 2.0786                 3.5386
 Frc consts  --      1.7879                 1.1946                 2.1068
 IR Inten    --     32.4264                13.6113                36.0813

                     40                     41                     42
                      A                      A                      A
 Frequencies --   1028.1014              1032.4087              1101.8006
 Red. masses --      3.6916                 3.3946                 1.7386
 Frc consts  --      2.2990                 2.1318                 1.2435
 IR Inten    --      9.2989                 1.8799                20.0566

                     43                     44                     45
                      A                      A                      A
 Frequencies --   1115.1366              1124.7305              1158.8170
 Red. masses --      1.6739                 2.1880                 2.0397
 Frc consts  --      1.2264                 1.6308                 1.6138
 IR Inten    --     19.7977                29.8182                16.1803

                     46                     47                     48
                      A                      A                      A
 Frequencies --   1159.5711              1181.5657              1244.6278
 Red. masses --      2.3930                 1.3747                 1.8277
 Frc consts  --      1.8958                 1.1307                 1.6681
 IR Inten    --      5.4100                 2.5486                 7.5153

                     49                     50                     51
                      A                      A                      A
 Frequencies --   1250.8033              1269.8360              1292.8713
 Red. masses --      1.5577                 2.2863                 1.3706
 Frc consts  --      1.4359                 2.1721                 1.3498
 IR Inten    --     15.7755                18.2121                 0.6120

                     52                     53                     54
                      A                      A                      A
 Frequencies --   1301.4338              1318.5699              1333.7937
 Red. masses --      1.3063                 1.3018                 1.2389
 Frc consts  --      1.3035                 1.3335                 1.2986
 IR Inten    --      4.2300                21.5041                 7.1360

                     55                     56                     57
                      A                      A                      A
 Frequencies --   1340.2065              1360.6723              1373.9861
 Red. masses --      1.3732                 1.4743                 1.7184
 Frc consts  --      1.4532                 1.6082                 1.9113
 IR Inten    --     11.6966               114.8234                81.0695

                     58                     59                     60
                      A                      A                      A
 Frequencies --   1396.7394              1413.4270              1426.1018
 Red. masses --      2.3267                 1.3562                 2.3333
 Frc consts  --      2.6744                 1.5964                 2.7958
 IR Inten    --      4.3002                13.5300               228.3187

                     61                     62                     63
                      A                      A                      A
 Frequencies --   1443.1214              1505.1152              1509.7472
 Red. masses --      2.8653                 1.1132                 1.1186
 Frc consts  --      3.5159                 1.4858                 1.5022
 IR Inten    --     24.2746                 0.4704                15.4130

                     64                     65                     66
                      A                      A                      A
 Frequencies --   1516.1667              1522.8357              1543.9447
 Red. masses --      3.7515                 1.0766                 1.3510
 Frc consts  --      5.0810                 1.4710                 1.8974
 IR Inten    --     28.2664                12.3837               407.0486

                     67                     68                     69
                      A                      A                      A
 Frequencies --   1551.2956              1612.2722              1697.5187
 Red. masses --      1.9194                 4.1425                 1.0431
 Frc consts  --      2.7215                 6.3445                 1.7710
 IR Inten    --    114.8058                 8.3661                57.8593

                     70                     71                     72
                      A                      A                      A
 Frequencies --   1701.3641              1770.1694              1848.3063
 Red. masses --      1.0448                 9.8868                 9.1858
 Frc consts  --      1.7820                18.2530                18.4891
 IR Inten    --     46.7904               247.3149               282.7471

                     73                     74                     75
                      A                      A                      A
 Frequencies --   3042.7829              3053.9977              3074.9301
 Red. masses --      1.0646                 1.0829                 1.0610
 Frc consts  --      5.8071                 5.9508                 5.9105
 IR Inten    --      3.5604                 6.9596                12.1564

                     76                     77                     78
                      A                      A                      A
 Frequencies --   3103.8405              3120.9248              3129.0438
 Red. masses --      1.0999                 1.1053                 1.0606
 Frc consts  --      6.2431                 6.3431                 6.1180
 IR Inten    --      5.0501                 3.7062                 1.9737

                     79                     80                     81
                      A                      A                      A
 Frequencies --   3193.9295              3253.7874              3275.2208
 Red. masses --      1.1113                 1.0963                 1.0978
 Frc consts  --      6.6792                 6.8385                 6.9386
 IR Inten    --      1.9850                 2.0233                 0.6444

                     82                     83                     84
                      A                      A                      A
 Frequencies --   3389.7226              3479.0909              3480.4671
 Red. masses --      1.0308                 1.0938                 1.0940
 Frc consts  --      6.9784                 7.8004                 7.8082
 IR Inten    --     55.4317                92.8722                90.3725

                     85                     86                     87
                      A                      A                      A
 Frequencies --   3505.6851              3523.2102              3629.1537
 Red. masses --      1.0772                 1.0682                 1.0813
 Frc consts  --      7.8001                 7.8126                 8.3911
 IR Inten    --    102.6264               499.8325                50.2083

 - Thermochemistry -
 -------------------
 Temperature   298.150 Kelvin.  Pressure   1.00000 Atm.
 Atom     1 has atomic number  8 and mass  15.99491

 Molecular mass:   227.11442 amu.
 Principal axes and moments of inertia in atomic units:
                           1         2         3
     Eigenvalues --  1949.498707499.282559085.62009
           X            0.99911   0.02952   0.03007
           Y           -0.04104   0.84333   0.53583
           Z           -0.00954  -0.53658   0.84379
 This molecule is an asymmetric top.
 Rotational symmetry number  1.
 Warning -- assumption of classical behavior for rotation
           may cause significant error
 Rotational temperatures (Kelvin)      0.04443     0.01155     0.00953
 Rotational constants (GHZ):           0.92575     0.24066     0.19864
 Zero-point vibrational energy     683539.8 (Joules/Mol)
                                  163.36993 (Kcal/Mol)
 Warning -- explicit consideration of  22 degrees of freedom as
           vibrations may cause significant error
 Vibrational temperatures:     42.11    43.90    63.70    85.82   107.42
          (Kelvin)            124.21   147.78   159.85   212.49   274.33
                              309.90   340.00   392.40   477.07   482.81
                              500.49   545.68   552.80   774.46   789.13
                              845.65   887.34   947.36   954.05   967.68
                              986.77  1036.97  1067.28  1107.12  1150.71
                             1185.42  1199.12  1242.14  1277.38  1331.33
                             1337.02  1348.59  1420.99  1446.32  1479.21
                             1485.40  1585.24  1604.43  1618.23  1667.28
                             1668.36  1700.01  1790.74  1799.62  1827.01
                             1860.15  1872.47  1897.13  1919.03  1928.26
                             1957.70  1976.86  2009.59  2033.60  2051.84
                             2076.33  2165.52  2172.19  2181.42  2191.02
                             2221.39  2231.97  2319.70  2442.35  2447.88
                             2546.88  2659.30  4377.88  4394.02  4424.13
                             4465.73  4490.31  4501.99  4595.35  4681.47
                             4712.31  4877.05  5005.63  5007.61  5043.89
                             5069.11  5221.54

 Zero-point correction=                           0.260347 (Hartree/Particle)
 Thermal correction to Energy=                    0.276506
 Thermal correction to Enthalpy=                  0.277450
 Thermal correction to Gibbs Free Energy=         0.213969
 Sum of electronic and zero-point Energies=           -796.182999
 Sum of electronic and thermal Energies=              -796.166840
 Sum of electronic and thermal Enthalpies=            -796.165896
 Sum of electronic and thermal Free Energies=         -796.229376

                     E (Thermal)             CV                S
                      KCal/Mol        Cal/Mol-Kelvin    Cal/Mol-Kelvin
 Total                  173.510             58.436            133.606
 Electronic               0.000              0.000              0.000
 Translational            0.889              2.981             42.163
 Rotational               0.889              2.981             33.251
 Vibrational            171.732             52.474             58.192
 Vibration     1          0.593              1.984              5.878
 Vibration     2          0.594              1.984              5.796
 Vibration     3          0.595              1.980              5.058
 Vibration     4          0.597              1.974              4.469
 Vibration     5          0.599              1.966              4.027
 Vibration     6          0.601              1.959              3.742
 Vibration     7          0.605              1.947              3.402
 Vibration     8          0.607              1.940              3.250
 Vibration     9          0.617              1.905              2.702
 Vibration    10          0.634              1.853              2.221
 Vibration    11          0.645              1.818              1.998
 Vibration    12          0.655              1.785              1.830
 Vibration    13          0.676              1.724              1.579
 Vibration    14          0.714              1.612              1.252
 Vibration    15          0.717              1.604              1.233
 Vibration    16          0.725              1.580              1.176
 Vibration    17          0.749              1.514              1.042
 Vibration    18          0.753              1.504              1.023
 Vibration    19          0.893              1.165              0.569
 Vibration    20          0.904              1.143              0.547
 Vibration    21          0.945              1.058              0.471
 Vibration    22          0.976              0.997              0.422

 Optimization completed.
    -- Stationary point found.
 Normal termination of Gaussian 09 at Wed Jul 28 22:45:59 2021.
