 Gaussian 09, Revision D.01,
 Gaussian 09:  ES64L-G09RevD.01 24-Apr-2013

 ----------------------------------------------------------------------
 # B3LYP/6-31G(d) opt=calcfc freq=noraman nosymm integral(ultrafinegrid
 )
 ----------------------------------------------------------------------

 ------------------------------------------------------------
 Candidate Structure: Conf:580 OPT and FREQ calc in gas phase
 ------------------------------------------------------------
 Symbolic Z-matrix:
 Charge =  1 Multiplicity = 1

 SCF Done:  E(RB3LYP) =  -796.437815240     A.U. after   17 cycles
 SCF Done:  E(RB3LYP) =  -796.444200642     A.U. after   14 cycles
 SCF Done:  E(RB3LYP) =  -796.445237828     A.U. after   15 cycles
 SCF Done:  E(RB3LYP) =  -796.444311831     A.U. after   14 cycles
 SCF Done:  E(RB3LYP) =  -796.445287764     A.U. after    9 cycles
 SCF Done:  E(RB3LYP) =  -796.445592262     A.U. after   12 cycles
 SCF Done:  E(RB3LYP) =  -796.445637365     A.U. after   12 cycles
 SCF Done:  E(RB3LYP) =  -796.445650360     A.U. after   11 cycles
 SCF Done:  E(RB3LYP) =  -796.445654962     A.U. after   10 cycles
 SCF Done:  E(RB3LYP) =  -796.445655738     A.U. after   10 cycles
 SCF Done:  E(RB3LYP) =  -796.445138913     A.U. after   14 cycles
 SCF Done:  E(RB3LYP) =  -796.443688635     A.U. after   15 cycles
 SCF Done:  E(RB3LYP) =  -796.445738163     A.U. after    8 cycles
 SCF Done:  E(RB3LYP) =  -796.445752059     A.U. after   11 cycles
 SCF Done:  E(RB3LYP) =  -796.445760188     A.U. after   10 cycles
 SCF Done:  E(RB3LYP) =  -796.445761129     A.U. after    9 cycles
 SCF Done:  E(RB3LYP) =  -796.445761332     A.U. after    9 cycles
 SCF Done:  E(RB3LYP) =  -796.445761446     A.U. after    8 cycles
 SCF Done:  E(RB3LYP) =  -796.445761481     A.U. after    7 cycles
 Optimization completed.
    -- Stationary point found.
 Normal termination of Gaussian 09 at Wed Jul 28 23:03:39 2021.

 --------------------------------------------------------------------
 #N Geom=AllCheck Guess=TCheck SCRF=Check GenChk RB3LYP/6-31G(d) Freq
 --------------------------------------------------------------------

 Structure from the checkpoint file:  "conf-580.chk"
 ------------------------------------------------------------
 Candidate Structure: Conf:580 OPT and FREQ calc in gas phase
 ------------------------------------------------------------
 Charge =  1 Multiplicity = 1

                          Input orientation:
 ---------------------------------------------------------------------
 Center     Atomic      Atomic             Coordinates (Angstroms)
 Number     Number       Type             X           Y           Z
 ---------------------------------------------------------------------
      1          8           0        1.295958    0.317978   -1.244282
      2          6           0        1.465485    0.319814   -0.027468
      3          7           0        0.480845    0.354166    0.886596
      4          6           0       -0.935338    0.375528    0.529689
      5          6           0       -1.661394    0.912465    1.757963
      6          8           0       -2.860608    1.414245    1.459024
      7          8           0       -1.189051    0.862656    2.876624
      8          6           0       -1.434430   -1.054188    0.135674
      9          6           0       -2.852493   -1.138639   -0.317551
     10          6           0       -3.983237   -1.629982    0.293394
     11          7           0       -5.088208   -1.486226   -0.510867
     12          6           0       -4.643436   -0.912612   -1.606506
     13          7           0       -3.297859   -0.675554   -1.546326
     14          6           0        2.901010    0.262410    0.548302
     15          6           0        3.833898    0.852791   -0.500210
     16          7           0        5.295258    0.530476   -0.190805
     17          1           0        0.665152    0.375771    1.885477
     18          1           0       -1.080002    1.056883   -0.312978
     19          1           0       -3.297462    1.673252    2.294248
     20          1           0       -1.299868   -1.710162    1.002581
     21          1           0       -0.748986   -1.406569   -0.644998
     22          1           0       -4.056752   -2.086904    1.272286
     23          1           0       -5.238192   -0.649226   -2.471034
     24          1           0       -2.729659   -0.278047   -2.281382
     25          1           0        3.143614   -0.794313    0.730380
     26          1           0        2.973425    0.791455    1.505159
     27          1           0        3.608878    0.435094   -1.482480
     28          1           0        3.768660    1.941294   -0.555608
     29          1           0        5.924008    0.917577   -0.905982
     30          1           0        5.587390    0.913299    0.716910
     31          1           0        5.453586   -0.484580   -0.158636
 ---------------------------------------------------------------------

 SCF Done:  E(RB3LYP) =  -796.445761481     A.U. after    1 cycles

 Alpha  occ. eigenvalues --  -19.30227 -19.24962 -19.24907 -14.66668 -14.49037
 Alpha  occ. eigenvalues --  -14.46146 -14.37545 -10.43267 -10.43025 -10.42997
 Alpha  occ. eigenvalues --  -10.37270 -10.35402 -10.30550 -10.30330 -10.29259
 Alpha  occ. eigenvalues --  -10.26495  -1.21439  -1.20520  -1.16974  -1.12616
 Alpha  occ. eigenvalues --   -1.08051  -1.05521  -0.96389  -0.93829  -0.90037
 Alpha  occ. eigenvalues --   -0.84886  -0.82276  -0.79053  -0.78388  -0.76717
 Alpha  occ. eigenvalues --   -0.73283  -0.70567  -0.69062  -0.68216  -0.65902
 Alpha  occ. eigenvalues --   -0.64803  -0.63529  -0.61428  -0.59992  -0.59060
 Alpha  occ. eigenvalues --   -0.57901  -0.57361  -0.56358  -0.55094  -0.53218
 Alpha  occ. eigenvalues --   -0.52898  -0.51828  -0.50293  -0.49854  -0.48862
 Alpha  occ. eigenvalues --   -0.47624  -0.47277  -0.46555  -0.42380  -0.39564
 Alpha  occ. eigenvalues --   -0.38724  -0.38335  -0.34647  -0.32941  -0.29303
 Alpha virt. eigenvalues --   -0.16904  -0.11873  -0.10050  -0.10020  -0.09555
 Alpha virt. eigenvalues --   -0.07034  -0.04719  -0.03701  -0.02731  -0.01600
 Alpha virt. eigenvalues --   -0.01266  -0.00626   0.00298   0.01570   0.02632

 Mulliken charges:
               1
     1  O   -0.517601
     2  C    0.649614
     3  N   -0.617336
     4  C   -0.028309
     5  C    0.592835
     6  O   -0.536721
     7  O   -0.469946
     8  C   -0.372240
     9  C    0.335853
    10  C   -0.072968
    11  N   -0.411908
    12  C    0.215616
    13  N   -0.612036
    14  C   -0.407288
    15  C   -0.206292
    16  N   -0.733848
    17  H    0.361265
    18  H    0.198349
    19  H    0.434229
    20  H    0.177914
    21  H    0.182343
    22  H    0.140886
    23  H    0.171307
    24  H    0.336055
    25  H    0.200113
    26  H    0.192495
    27  H    0.263907
    28  H    0.238001
    29  H    0.436795
    30  H    0.429728
    31  H    0.429187
 Sum of Mulliken charges =   1.00000

 Dipole moment (field-independent basis, Debye):
    X=             22.0209    Y=              3.8168    Z=             -0.0384  Tot=             22.3493
 Quadrupole moment (field-independent basis, Debye-Ang):
   XX=             20.5311   YY=            -87.2654   ZZ=            -83.5968
   XY=              1.4752   XZ=              0.4966   YZ=              0.2741

  Exact polarizability: 168.792   9.184  83.691   3.856  -3.354 119.681
 Approx polarizability: 211.268   7.299 125.014   5.195 -15.126 202.853

                      1                      2                      3
                      A                      A                      A
 Frequencies --     18.2173                31.1050                43.4209
 Red. masses --      5.3714                 3.7530                 1.9157
 Frc consts  --      0.0011                 0.0021                 0.0021
 IR Inten    --      0.7579                 3.4668                10.1404

                      4                      5                      6
                      A                      A                      A
 Frequencies --     51.0133                67.0321                73.4427
 Red. masses --      5.1999                 5.3938                 6.8104
 Frc consts  --      0.0080                 0.0143                 0.0216
 IR Inten    --      7.5638                 5.5541                 5.1821

                      7                      8                      9
                      A                      A                      A
 Frequencies --     77.1807               107.9304               116.0153
 Red. masses --      5.7637                 4.0098                 4.4411
 Frc consts  --      0.0202                 0.0275                 0.0352
 IR Inten    --      7.2643                 3.2944                 9.9912

                     10                     11                     12
                      A                      A                      A
 Frequencies --    179.9163               218.3349               238.4718
 Red. masses --      5.1364                 2.2786                 1.4388
 Frc consts  --      0.0980                 0.0640                 0.0482
 IR Inten    --      4.4002                11.8262                 2.0243

                     13                     14                     15
                      A                      A                      A
 Frequencies --    261.7572               321.4335               330.5040
 Red. masses --      5.2870                 6.4424                 2.1503
 Frc consts  --      0.2134                 0.3922                 0.1384
 IR Inten    --     12.7934                 7.2008                 4.2838

                     16                     17                     18
                      A                      A                      A
 Frequencies --    341.4473               366.4218               386.9263
 Red. masses --      6.6446                 3.7920                 3.8989
 Frc consts  --      0.4564                 0.3000                 0.3439
 IR Inten    --     14.0087                 6.6962                 7.7918

                     19                     20                     21
                      A                      A                      A
 Frequencies --    504.3232               530.9917               558.5270
 Red. masses --      1.4213                 3.4654                 2.1075
 Frc consts  --      0.2130                 0.5757                 0.3874
 IR Inten    --     77.6237                60.1135                23.0829

                     22                     23                     24
                      A                      A                      A
 Frequencies --    624.3281               630.6354               657.8337
 Red. masses --      1.3135                 4.5116                 1.6283
 Frc consts  --      0.3017                 1.0571                 0.4152
 IR Inten    --     98.1831                11.9381                47.7355

                     25                     26                     27
                      A                      A                      A
 Frequencies --    663.7128               678.9826               715.3066
 Red. masses --      2.3179                 3.1014                 3.8013
 Frc consts  --      0.6016                 0.8424                 1.1460
 IR Inten    --     27.7951                 4.4423                 1.2050

                     28                     29                     30
                      A                      A                      A
 Frequencies --    754.5720               767.3499               798.3185
 Red. masses --      3.3488                 3.5961                 1.3694
 Frc consts  --      1.1234                 1.2476                 0.5142
 IR Inten    --     27.0937                12.4287                17.0513

                     31                     32                     33
                      A                      A                      A
 Frequencies --    812.0836               817.8905               855.5027
 Red. masses --      1.4384                 2.1693                 1.4104
 Frc consts  --      0.5589                 0.8550                 0.6082
 IR Inten    --     14.1023                 5.4906                16.0549

                     34                     35                     36
                      A                      A                      A
 Frequencies --    887.8404               925.1181               929.0154
 Red. masses --      2.8125                 1.2781                 5.8672
 Frc consts  --      1.3062                 0.6445                 2.9835
 IR Inten    --     38.1696                 4.6379                 7.7386

                     37                     38                     39
                      A                      A                      A
 Frequencies --    937.2258               988.4231              1000.7136
 Red. masses --      3.7448                 2.0766                 3.6265
 Frc consts  --      1.9381                 1.1954                 2.1398
 IR Inten    --     27.0234                13.6681                25.0458

                     40                     41                     42
                      A                      A                      A
 Frequencies --   1023.6728              1035.7892              1088.5631
 Red. masses --      3.2055                 3.1500                 2.2892
 Frc consts  --      1.9791                 1.9912                 1.5983
 IR Inten    --     26.6624                 2.8097                34.6696

                     43                     44                     45
                      A                      A                      A
 Frequencies --   1117.0943              1118.9250              1152.9985
 Red. masses --      1.9077                 1.6525                 2.3087
 Frc consts  --      1.4026                 1.2190                 1.8083
 IR Inten    --     22.6781                23.7927                10.3041

                     46                     47                     48
                      A                      A                      A
 Frequencies --   1160.5283              1179.1558              1211.1891
 Red. masses --      1.9735                 1.4382                 1.9934
 Frc consts  --      1.5660                 1.1782                 1.7229
 IR Inten    --     18.1810                28.0409               134.3651

                     49                     50                     51
                      A                      A                      A
 Frequencies --   1247.1565              1276.2164              1288.9859
 Red. masses --      1.4887                 2.3262                 1.3879
 Frc consts  --      1.3643                 2.2323                 1.3587
 IR Inten    --     11.2349                 8.0481                 4.7552

                     52                     53                     54
                      A                      A                      A
 Frequencies --   1300.3575              1309.3239              1330.7729
 Red. masses --      1.3059                 1.3489                 1.2441
 Frc consts  --      1.3010                 1.3625                 1.2981
 IR Inten    --      2.2680                 4.9279                18.8506

                     55                     56                     57
                      A                      A                      A
 Frequencies --   1342.6081              1363.4937              1375.4492
 Red. masses --      1.3805                 1.3616                 1.4231
 Frc consts  --      1.4661                 1.4914                 1.5863
 IR Inten    --      1.6667                 5.1068                22.8890

                     58                     59                     60
                      A                      A                      A
 Frequencies --   1399.7039              1412.6455              1447.8338
 Red. masses --      3.2418                 1.3533                 2.9024
 Frc consts  --      3.7421                 1.5911                 3.5847
 IR Inten    --     10.9426                18.8795                38.9063

                     61                     62                     63
                      A                      A                      A
 Frequencies --   1453.3333              1504.9239              1507.6115
 Red. masses --      2.9267                 1.1114                 1.1570
 Frc consts  --      3.6422                 1.4830                 1.5494
 IR Inten    --    162.8667                 0.8563                 9.3832

                     64                     65                     66
                      A                      A                      A
 Frequencies --   1516.1508              1523.7926              1544.5450
 Red. masses --      3.3198                 1.0759                 1.1887
 Frc consts  --      4.4962                 1.4719                 1.6707
 IR Inten    --     28.9775                13.4125               239.2920

                     67                     68                     69
                      A                      A                      A
 Frequencies --   1560.3032              1624.9375              1697.6438
 Red. masses --      2.2820                 4.4048                 1.0433
 Frc consts  --      3.2733                 6.8526                 1.7716
 IR Inten    --    259.1687                 7.5128                57.1906

                     70                     71                     72
                      A                      A                      A
 Frequencies --   1701.4354              1774.7253              1828.6674
 Red. masses --      1.0446                10.1440                 9.5893
 Frc consts  --      1.7817                18.8244                18.8932
 IR Inten    --     47.4488               291.7838               245.7787

                     73                     74                     75
                      A                      A                      A
 Frequencies --   3043.3742              3055.3200              3102.4539
 Red. masses --      1.0641                 1.0619                 1.0971
 Frc consts  --      5.8068                 5.8406                 6.2217
 IR Inten    --      3.9758                15.2766                 5.3185

                     76                     77                     78
                      A                      A                      A
 Frequencies --   3103.2478              3118.2701              3127.4491
 Red. masses --      1.1003                 1.0907                 1.0603
 Frc consts  --      6.2430                 6.2486                 6.1104
 IR Inten    --      5.5965                 6.1634                 2.8139

                     79                     80                     81
                      A                      A                      A
 Frequencies --   3192.1360              3253.6504              3272.0622
 Red. masses --      1.1115                 1.0964                 1.0974
 Frc consts  --      6.6731                 6.8383                 6.9224
 IR Inten    --      2.6836                 6.0973                 1.0957

                     82                     83                     84
                      A                      A                      A
 Frequencies --   3390.0637              3479.4119              3481.3228
 Red. masses --      1.0308                 1.0938                 1.0940
 Frc consts  --      6.9795                 7.8018                 7.8120
 IR Inten    --     53.5967                93.3774                90.1640

                     85                     86                     87
                      A                      A                      A
 Frequencies --   3553.6404              3637.1751              3670.2642
 Red. masses --      1.0782                 1.0810                 1.0643
 Frc consts  --      8.0224                 8.4258                 8.4469
 IR Inten    --    104.5881                39.4016                89.5668

 - Thermochemistry -
 -------------------
 Temperature   298.150 Kelvin.  Pressure   1.00000 Atm.
 Atom     1 has atomic number  8 and mass  15.99491

 Molecular mass:   227.11442 amu.
 Principal axes and moments of inertia in atomic units:
                           1         2         3
     Eigenvalues --  1726.319808064.012539197.46187
           X            0.98419  -0.09731  -0.14801
           Y            0.17539   0.41818   0.89127
           Z            0.02484   0.90314  -0.42863
 This molecule is an asymmetric top.
 Rotational symmetry number  1.
 Warning -- assumption of classical behavior for rotation
           may cause significant error
 Rotational temperatures (Kelvin)      0.05017     0.01074     0.00942
 Rotational constants (GHZ):           1.04543     0.22380     0.19622
 Zero-point vibrational energy     682886.1 (Joules/Mol)
                                  163.21369 (Kcal/Mol)
 Warning -- explicit consideration of  21 degrees of freedom as
           vibrations may cause significant error
 Vibrational temperatures:     26.21    44.75    62.47    73.40    96.44
          (Kelvin)            105.67   111.05   155.29   166.92   258.86
                              314.13   343.11   376.61   462.47   475.52
                              491.27   527.20   556.70   725.61   763.98
                              803.59   898.27   907.34   946.47   954.93
                              976.90  1029.17  1085.66  1104.04  1148.60
                             1168.41  1176.76  1230.88  1277.40  1331.04
                             1336.64  1348.46  1422.12  1439.80  1472.83
                             1490.27  1566.20  1607.25  1609.88  1658.91
                             1669.74  1696.54  1742.63  1794.38  1836.19
                             1854.56  1870.92  1883.82  1914.68  1931.71
                             1961.76  1978.96  2013.86  2032.48  2083.11
                             2091.02  2165.25  2169.11  2181.40  2192.39
                             2222.25  2244.93  2337.92  2442.53  2447.98
                             2553.43  2631.04  4378.73  4395.92  4463.73
                             4464.88  4486.49  4499.70  4592.77  4681.27
                             4707.76  4877.54  5006.09  5008.84  5112.89
                             5233.08  5280.69

 Zero-point correction=                           0.260098 (Hartree/Particle)
 Thermal correction to Energy=                    0.276597
 Thermal correction to Enthalpy=                  0.277541
 Thermal correction to Gibbs Free Energy=         0.212460
 Sum of electronic and zero-point Energies=           -796.185664
 Sum of electronic and thermal Energies=              -796.169165
 Sum of electronic and thermal Enthalpies=            -796.168220
 Sum of electronic and thermal Free Energies=         -796.233301

                     E (Thermal)             CV                S
                      KCal/Mol        Cal/Mol-Kelvin    Cal/Mol-Kelvin
 Total                  173.567             58.938            136.974
 Electronic               0.000              0.000              0.000
 Translational            0.889              2.981             42.163
 Rotational               0.889              2.981             33.215
 Vibrational            171.790             52.976             61.596
 Vibration     1          0.593              1.986              6.820
 Vibration     2          0.594              1.983              5.758
 Vibration     3          0.595              1.980              5.097
 Vibration     4          0.595              1.977              4.778
 Vibration     5          0.598              1.970              4.239
 Vibration     6          0.599              1.967              4.059
 Vibration     7          0.599              1.964              3.961
 Vibration     8          0.606              1.943              3.306
 Vibration     9          0.608              1.936              3.166
 Vibration    10          0.629              1.867              2.329
 Vibration    11          0.646              1.813              1.973
 Vibration    12          0.656              1.782              1.814
 Vibration    13          0.669              1.743              1.650
 Vibration    14          0.707              1.632              1.303
 Vibration    15          0.713              1.615              1.258
 Vibration    16          0.721              1.593              1.205
 Vibration    17          0.739              1.541              1.095
 Vibration    18          0.755              1.498              1.012
 Vibration    19          0.860              1.240              0.647
 Vibration    20          0.886              1.181              0.585
 Vibration    21          0.914              1.121              0.527

 Optimization completed.
    -- Stationary point found.
 Normal termination of Gaussian 09 at Wed Jul 28 23:18:29 2021.
