 Gaussian 09, Revision D.01,
 Gaussian 09:  ES64L-G09RevD.01 24-Apr-2013

 ----------------------------------------------------------------------
 # B3LYP/6-31G(d) opt=calcfc freq=noraman nosymm integral(ultrafinegrid
 )
 ----------------------------------------------------------------------

 ------------------------------------------------------------
 Candidate Structure: Conf:885 OPT and FREQ calc in gas phase
 ------------------------------------------------------------
 Symbolic Z-matrix:
 Charge =  1 Multiplicity = 1

 SCF Done:  E(RB3LYP) =  -796.452150743     A.U. after   14 cycles
 SCF Done:  E(RB3LYP) =  -796.459237465     A.U. after   13 cycles
 SCF Done:  E(RB3LYP) =  -796.460596849     A.U. after   13 cycles
 SCF Done:  E(RB3LYP) =  -796.461497358     A.U. after   13 cycles
 SCF Done:  E(RB3LYP) =  -796.460840664     A.U. after   12 cycles
 SCF Done:  E(RB3LYP) =  -796.461587300     A.U. after    9 cycles
 SCF Done:  E(RB3LYP) =  -796.461770714     A.U. after   13 cycles
 SCF Done:  E(RB3LYP) =  -796.461856498     A.U. after   12 cycles
 SCF Done:  E(RB3LYP) =  -796.461874109     A.U. after   13 cycles
 SCF Done:  E(RB3LYP) =  -796.461979283     A.U. after   14 cycles
 SCF Done:  E(RB3LYP) =  -796.462077539     A.U. after   12 cycles
 SCF Done:  E(RB3LYP) =  -796.462114896     A.U. after   12 cycles
 SCF Done:  E(RB3LYP) =  -796.462136918     A.U. after   11 cycles
 SCF Done:  E(RB3LYP) =  -796.462148603     A.U. after   12 cycles
 SCF Done:  E(RB3LYP) =  -796.462150775     A.U. after    9 cycles
 SCF Done:  E(RB3LYP) =  -796.462150948     A.U. after    8 cycles
 SCF Done:  E(RB3LYP) =  -796.462150976     A.U. after    8 cycles
 Optimization completed.
    -- Stationary point found.
 Normal termination of Gaussian 09 at Wed Jul 28 22:37:29 2021.

 --------------------------------------------------------------------
 #N Geom=AllCheck Guess=TCheck SCRF=Check GenChk RB3LYP/6-31G(d) Freq
 --------------------------------------------------------------------

 Structure from the checkpoint file:  "conf-885.chk"
 ------------------------------------------------------------
 Candidate Structure: Conf:885 OPT and FREQ calc in gas phase
 ------------------------------------------------------------
 Charge =  1 Multiplicity = 1

                          Input orientation:
 ---------------------------------------------------------------------
 Center     Atomic      Atomic             Coordinates (Angstroms)
 Number     Number       Type             X           Y           Z
 ---------------------------------------------------------------------
      1          8           0       -1.529686    0.242523   -0.868441
      2          6           0       -1.502361   -0.836938   -0.247681
      3          7           0       -0.383785   -1.354062    0.289282
      4          6           0        0.802941   -0.541768    0.589363
      5          6           0        0.402467    0.496586    1.655186
      6          8           0        1.477446    1.097367    2.170065
      7          8           0       -0.740109    0.723018    1.998537
      8          6           0        1.462897    0.063435   -0.694006
      9          6           0        2.839735    0.605807   -0.507794
     10          6           0        3.312008    1.897037   -0.466002
     11          7           0        4.672273    1.927561   -0.278609
     12          6           0        5.037900    0.667418   -0.208316
     13          7           0        3.970800   -0.179859   -0.333479
     14          6           0       -2.811456   -1.604358   -0.056417
     15          6           0       -3.862894   -0.645966    0.527413
     16          7           0       -4.059911    0.520363   -0.421311
     17          1           0       -0.492345   -2.197456    0.837723
     18          1           0        1.526853   -1.217941    1.054167
     19          1           0        1.175029    1.754408    2.827382
     20          1           0        1.454032   -0.741407   -1.441139
     21          1           0        0.818529    0.852747   -1.084086
     22          1           0        2.737848    2.809875   -0.561314
     23          1           0        6.048600    0.306361   -0.071658
     24          1           0        4.021091   -1.188063   -0.378857
     25          1           0       -3.143169   -2.000185   -1.024488
     26          1           0       -2.712035   -2.454032    0.625098
     27          1           0       -4.825093   -1.134430    0.689304
     28          1           0       -3.506245   -0.217873    1.466970
     29          1           0       -4.656080    0.277037   -1.218697
     30          1           0       -4.465263    1.338309    0.043450
     31          1           0       -3.069930    0.734563   -0.779643
 ---------------------------------------------------------------------

 SCF Done:  E(RB3LYP) =  -796.462150976     A.U. after    1 cycles

 Alpha  occ. eigenvalues --  -19.31652 -19.28543 -19.26479 -14.61091 -14.52027
 Alpha  occ. eigenvalues --  -14.47214 -14.38496 -10.45670 -10.44648 -10.42200
 Alpha  occ. eigenvalues --  -10.37852 -10.37415 -10.31545 -10.31539 -10.30272
 Alpha  occ. eigenvalues --  -10.27493  -1.22954  -1.20392  -1.15567  -1.13947
 Alpha  occ. eigenvalues --   -1.09069  -1.08289  -0.95832  -0.94819  -0.91245
 Alpha  occ. eigenvalues --   -0.84879  -0.82463  -0.77938  -0.76777  -0.75084
 Alpha  occ. eigenvalues --   -0.73905  -0.71638  -0.69330  -0.67852  -0.66729
 Alpha  occ. eigenvalues --   -0.65832  -0.63404  -0.62102  -0.61627  -0.60245
 Alpha  occ. eigenvalues --   -0.59371  -0.57765  -0.57147  -0.56360  -0.55532
 Alpha  occ. eigenvalues --   -0.53880  -0.53122  -0.51753  -0.51350  -0.50207
 Alpha  occ. eigenvalues --   -0.48908  -0.48328  -0.47901  -0.44070  -0.42521
 Alpha  occ. eigenvalues --   -0.41949  -0.39870  -0.35655  -0.33880  -0.30328
 Alpha virt. eigenvalues --   -0.14685  -0.12442  -0.11463  -0.07478  -0.07029
 Alpha virt. eigenvalues --   -0.05851  -0.05078  -0.02806  -0.02014  -0.01669
 Alpha virt. eigenvalues --   -0.00911  -0.00433  -0.00224   0.00694   0.01324

 Mulliken charges:
               1
     1  O   -0.557375
     2  C    0.675764
     3  N   -0.578104
     4  C   -0.075345
     5  C    0.607944
     6  O   -0.528270
     7  O   -0.480874
     8  C   -0.369642
     9  C    0.336975
    10  C   -0.063257
    11  N   -0.410251
    12  C    0.216720
    13  N   -0.616511
    14  C   -0.399014
    15  C   -0.202500
    16  N   -0.750990
    17  H    0.358007
    18  H    0.195066
    19  H    0.433858
    20  H    0.174050
    21  H    0.208357
    22  H    0.138728
    23  H    0.175331
    24  H    0.332114
    25  H    0.214931
    26  H    0.205273
    27  H    0.228292
    28  H    0.248953
    29  H    0.410253
    30  H    0.419235
    31  H    0.452282
 Sum of Mulliken charges =   1.00000

 Dipole moment (field-independent basis, Debye):
    X=            -13.4975    Y=             -4.9405    Z=              1.1836  Tot=             14.4219
 Quadrupole moment (field-independent basis, Debye-Ang):
   XX=            -22.7969   YY=            -78.9657   ZZ=            -85.1111
   XY=            -15.8963   XZ=              7.2493   YZ=              1.2686

  Exact polarizability: 168.746   8.251 113.756   4.201   0.292  86.293
 Approx polarizability: 218.905   2.082 190.103   9.689  -5.552 129.307

                      1                      2                      3
                      A                      A                      A
 Frequencies --     15.7725                26.0228                43.5006
 Red. masses --      5.0027                 4.5556                 4.8245
 Frc consts  --      0.0007                 0.0018                 0.0054
 IR Inten    --      3.6070                13.2305                 1.4790

                      4                      5                      6
                      A                      A                      A
 Frequencies --     64.4462                72.9683                79.5015
 Red. masses --      6.1123                 4.3241                 4.4561
 Frc consts  --      0.0150                 0.0136                 0.0166
 IR Inten    --      4.8942                 2.4295                 6.5666

                      7                      8                      9
                      A                      A                      A
 Frequencies --    116.8614               153.1357               185.4726
 Red. masses --      5.4083                 6.2286                 3.2393
 Frc consts  --      0.0435                 0.0861                 0.0657
 IR Inten    --      2.4545                 3.5469                 2.7475

                     10                     11                     12
                      A                      A                      A
 Frequencies --    209.4868               280.5519               310.7023
 Red. masses --      3.7811                 4.6829                 3.7917
 Frc consts  --      0.0978                 0.2172                 0.2157
 IR Inten    --      5.8166                19.2442                50.4435

                     13                     14                     15
                      A                      A                      A
 Frequencies --    318.8898               346.6795               368.6897
 Red. masses --      2.1059                 2.2049                 1.8686
 Frc consts  --      0.1262                 0.1561                 0.1497
 IR Inten    --      1.2497                36.0712                 2.4376

                     16                     17                     18
                      A                      A                      A
 Frequencies --    375.1211               385.8569               450.5496
 Red. masses --      4.3273                 2.6731                 3.4316
 Frc consts  --      0.3588                 0.2345                 0.4104
 IR Inten    --     47.4710                18.6307                12.4366

                     19                     20                     21
                      A                      A                      A
 Frequencies --    491.0703               517.6725               563.3668
 Red. masses --      1.4149                 2.8021                 1.9302
 Frc consts  --      0.2010                 0.4424                 0.3609
 IR Inten    --     89.8566                57.6628                18.1556

                     22                     23                     24
                      A                      A                      A
 Frequencies --    600.9421               624.4179               659.9041
 Red. masses --      1.9144                 1.4249                 2.6111
 Frc consts  --      0.4073                 0.3273                 0.6700
 IR Inten    --     62.7282                81.0816                44.5618

                     25                     26                     27
                      A                      A                      A
 Frequencies --    677.2774               697.1732               735.5538
 Red. masses --      3.1685                 4.2381                 3.6534
 Frc consts  --      0.8563                 1.2137                 1.1646
 IR Inten    --      5.6918                 5.1700                24.8797

                     28                     29                     30
                      A                      A                      A
 Frequencies --    744.2627               776.6402               793.1735
 Red. masses --      3.1246                 3.4391                 2.7917
 Frc consts  --      1.0197                 1.2222                 1.0348
 IR Inten    --     41.2668                10.5149                20.9800

                     31                     32                     33
                      A                      A                      A
 Frequencies --    815.1278               848.5524               857.4030
 Red. masses --      1.3931                 2.7042                 1.4158
 Frc consts  --      0.5454                 1.1472                 0.6132
 IR Inten    --     15.4881                20.3204                12.2244

                     34                     35                     36
                      A                      A                      A
 Frequencies --    892.1134               928.0168               935.7629
 Red. masses --      2.5201                 5.8142                 1.9380
 Frc consts  --      1.1817                 2.9502                 0.9999
 IR Inten    --     42.6581                 9.6897                21.1411

                     37                     38                     39
                      A                      A                      A
 Frequencies --    962.2491               983.3607              1000.9254
 Red. masses --      1.4129                 2.5810                 2.9703
 Frc consts  --      0.7708                 1.4705                 1.7533
 IR Inten    --      5.0924                 2.7668                 7.4661

                     40                     41                     42
                      A                      A                      A
 Frequencies --   1023.0503              1042.1972              1089.0776
 Red. masses --      3.7912                 4.1074                 3.0911
 Frc consts  --      2.3379                 2.6285                 2.1601
 IR Inten    --     10.6058                 1.5775                14.2080

                     43                     44                     45
                      A                      A                      A
 Frequencies --   1118.0200              1135.9066              1143.7789
 Red. masses --      1.6527                 1.3877                 1.4637
 Frc consts  --      1.2172                 1.0550                 1.1282
 IR Inten    --     27.5452               100.1893                18.8389

                     46                     47                     48
                      A                      A                      A
 Frequencies --   1161.9339              1187.4258              1197.5300
 Red. masses --      1.9493                 1.5749                 1.8473
 Frc consts  --      1.5506                 1.3084                 1.5608
 IR Inten    --     19.0920                69.0184               123.6600

                     49                     50                     51
                      A                      A                      A
 Frequencies --   1266.9208              1276.3997              1290.7863
 Red. masses --      1.4733                 2.2217                 1.3676
 Frc consts  --      1.3933                 2.1326                 1.3425
 IR Inten    --      9.4276                12.3082                 1.5662

                     52                     53                     54
                      A                      A                      A
 Frequencies --   1317.0196              1328.1668              1337.9591
 Red. masses --      1.5539                 1.3967                 1.3498
 Frc consts  --      1.5880                 1.4516                 1.4237
 IR Inten    --     30.2720                 6.8682                28.8328

                     55                     56                     57
                      A                      A                      A
 Frequencies --   1346.0710              1371.2833              1397.3305
 Red. masses --      1.2785                 1.5290                 2.2702
 Frc consts  --      1.3648                 1.6940                 2.6117
 IR Inten    --     58.8117                19.1130                 2.7663

                     58                     59                     60
                      A                      A                      A
 Frequencies --   1399.3524              1422.3432              1436.2919
 Red. masses --      1.8775                 1.2413                 2.3063
 Frc consts  --      2.1661                 1.4795                 2.8032
 IR Inten    --     53.8343                31.5937                30.1848

                     61                     62                     63
                      A                      A                      A
 Frequencies --   1446.3680              1498.8528              1510.6015
 Red. masses --      2.8613                 1.0943                 1.2920
 Frc consts  --      3.5267                 1.4485                 1.7370
 IR Inten    --     27.5780                17.2263               418.9928

                     64                     65                     66
                      A                      A                      A
 Frequencies --   1512.2770              1517.7159              1529.6024
 Red. masses --      1.7823                 1.5393                 1.0951
 Frc consts  --      2.4016                 2.0891                 1.5095
 IR Inten    --     14.6480                12.4364               182.8128

                     67                     68                     69
                      A                      A                      A
 Frequencies --   1587.3460              1624.8121              1662.5559
 Red. masses --      2.0745                 4.4274                 1.1548
 Frc consts  --      3.0797                 6.8865                 1.8807
 IR Inten    --    127.0118                 6.0612                 4.8568

                     70                     71                     72
                      A                      A                      A
 Frequencies --   1703.0773              1737.1568              1824.3687
 Red. masses --      1.0450                 3.4169                10.2755
 Frc consts  --      1.7859                 6.0753                20.1501
 IR Inten    --     30.7635               105.0464               355.3004

                     73                     74                     75
                      A                      A                      A
 Frequencies --   2692.3536              3047.4628              3071.9816
 Red. masses --      1.0867                 1.0722                 1.0657
 Frc consts  --      4.6410                 5.8666                 5.9255
 IR Inten    --   1009.8873                19.6346                 1.6636

                     76                     77                     78
                      A                      A                      A
 Frequencies --   3099.9133              3117.3945              3132.8284
 Red. masses --      1.0854                 1.0630                 1.0972
 Frc consts  --      6.1455                 6.0864                 6.3448
 IR Inten    --      5.1909                 1.4137                 2.4948

                     79                     80                     81
                      A                      A                      A
 Frequencies --   3153.6975              3179.8728              3255.3959
 Red. masses --      1.0917                 1.1127                 1.0964
 Frc consts  --      6.3975                 6.6291                 6.8459
 IR Inten    --      0.8806                 0.2563                 6.3959

                     82                     83                     84
                      A                      A                      A
 Frequencies --   3272.7726              3450.9675              3520.8841
 Red. masses --      1.0976                 1.0533                 1.0952
 Frc consts  --      6.9264                 7.3909                 7.9989
 IR Inten    --      0.7820                90.1760                76.6712

                     85                     86                     87
                      A                      A                      A
 Frequencies --   3606.9771              3636.2888              3670.7592
 Red. masses --      1.0782                 1.0808                 1.0644
 Frc consts  --      8.2650                 8.4202                 8.4501
 IR Inten    --     40.6570                38.4878                84.9850

 - Thermochemistry -
 -------------------
 Temperature   298.150 Kelvin.  Pressure   1.00000 Atm.
 Atom     1 has atomic number  8 and mass  15.99491

 Molecular mass:   227.11442 amu.
 Principal axes and moments of inertia in atomic units:
                           1         2         3
     Eigenvalues --  1394.569517350.513797628.43623
           X            0.98002  -0.06427  -0.18821
           Y            0.19668   0.45356   0.86925
           Z           -0.02950   0.88890  -0.45714
 This molecule is an asymmetric top.
 Rotational symmetry number  1.
 Warning -- assumption of classical behavior for rotation
           may cause significant error
 Rotational temperatures (Kelvin)      0.06211     0.01178     0.01135
 Rotational constants (GHZ):           1.29412     0.24553     0.23658
 Zero-point vibrational energy     683440.3 (Joules/Mol)
                                  163.34616 (Kcal/Mol)
 Warning -- explicit consideration of  22 degrees of freedom as
           vibrations may cause significant error
 Vibrational temperatures:     22.69    37.44    62.59    92.72   104.98
          (Kelvin)            114.38   168.14   220.33   266.85   301.40
                              403.65   447.03   458.81   498.79   530.46
                              539.71   555.16   648.24   706.54   744.81
                              810.56   864.62   898.40   949.45   974.45
                             1003.08  1058.30  1070.83  1117.41  1141.20
                             1172.79  1220.88  1233.61  1283.55  1335.21
                             1346.35  1384.46  1414.83  1440.11  1471.94
                             1499.49  1566.94  1608.58  1634.31  1645.64
                             1671.76  1708.44  1722.98  1822.81  1836.45
                             1857.15  1894.90  1910.93  1925.02  1936.69
                             1972.97  2010.44  2013.35  2046.43  2066.50
                             2081.00  2156.51  2173.42  2175.83  2183.65
                             2200.75  2283.83  2337.74  2392.04  2450.35
                             2499.38  2624.86  3873.69  4384.61  4419.89
                             4460.08  4485.23  4507.44  4537.46  4575.12
                             4683.78  4708.78  4965.17  5065.76  5189.63
                             5231.80  5281.40

 Zero-point correction=                           0.260309 (Hartree/Particle)
 Thermal correction to Energy=                    0.275995
 Thermal correction to Enthalpy=                  0.276939
 Thermal correction to Gibbs Free Energy=         0.214365
 Sum of electronic and zero-point Energies=           -796.201842
 Sum of electronic and thermal Energies=              -796.186156
 Sum of electronic and thermal Enthalpies=            -796.185212
 Sum of electronic and thermal Free Energies=         -796.247786

                     E (Thermal)             CV                S
                      KCal/Mol        Cal/Mol-Kelvin    Cal/Mol-Kelvin
 Total                  173.190             57.898            131.699
 Electronic               0.000              0.000              0.000
 Translational            0.889              2.981             42.163
 Rotational               0.889              2.981             32.725
 Vibrational            171.412             51.937             56.811
 Vibration     1          0.593              1.986              7.106
 Vibration     2          0.593              1.985              6.112
 Vibration     3          0.595              1.980              5.093
 Vibration     4          0.597              1.971              4.316
 Vibration     5          0.599              1.967              4.072
 Vibration     6          0.600              1.963              3.903
 Vibration     7          0.608              1.935              3.152
 Vibration     8          0.619              1.899              2.633
 Vibration     9          0.632              1.860              2.273
 Vibration    10          0.642              1.826              2.048
 Vibration    11          0.680              1.710              1.530
 Vibration    12          0.700              1.653              1.359
 Vibration    13          0.705              1.637              1.316
 Vibration    14          0.725              1.582              1.181
 Vibration    15          0.741              1.537              1.085
 Vibration    16          0.746              1.523              1.059
 Vibration    17          0.755              1.500              1.016
 Vibration    18          0.809              1.360              0.794
 Vibration    19          0.847              1.270              0.681
 Vibration    20          0.873              1.211              0.615
 Vibration    21          0.919              1.111              0.517
 Vibration    22          0.959              1.030              0.448

 Optimization completed.
    -- Stationary point found.
 Normal termination of Gaussian 09 at Wed Jul 28 22:54:08 2021.
