 Gaussian 09, Revision D.01,
 Gaussian 09:  ES64L-G09RevD.01 24-Apr-2013

 ----------------------------------------------------------------------
 # B3LYP/6-31G(d) opt=calcfc freq=noraman nosymm integral(ultrafinegrid
 )
 ----------------------------------------------------------------------

 ------------------------------------------------------------
 Candidate Structure: Conf:318 OPT and FREQ calc in gas phase
 ------------------------------------------------------------
 Symbolic Z-matrix:
 Charge =  1 Multiplicity = 1

 SCF Done:  E(RB3LYP) =  -796.429395255     A.U. after   15 cycles
 SCF Done:  E(RB3LYP) =  -796.435603236     A.U. after   14 cycles
 SCF Done:  E(RB3LYP) =  -796.436073777     A.U. after   15 cycles
 SCF Done:  E(RB3LYP) =  -796.431647903     A.U. after   13 cycles
 SCF Done:  E(RB3LYP) =  -796.434200007     A.U. after   12 cycles
 SCF Done:  E(RB3LYP) =  -796.434477785     A.U. after   12 cycles
 SCF Done:  E(RB3LYP) =  -796.434871459     A.U. after   11 cycles
 SCF Done:  E(RB3LYP) =  -796.436074990     A.U. after    7 cycles
 SCF Done:  E(RB3LYP) =  -796.436260560     A.U. after   12 cycles
 SCF Done:  E(RB3LYP) =  -796.436068716     A.U. after   14 cycles
 SCF Done:  E(RB3LYP) =  -796.436398357     A.U. after   11 cycles
 SCF Done:  E(RB3LYP) =  -796.436398849     A.U. after   11 cycles
 SCF Done:  E(RB3LYP) =  -796.436388022     A.U. after   12 cycles
 SCF Done:  E(RB3LYP) =  -796.436397764     A.U. after   10 cycles
 SCF Done:  E(RB3LYP) =  -796.436410356     A.U. after   11 cycles
 SCF Done:  E(RB3LYP) =  -796.436409031     A.U. after   11 cycles
 SCF Done:  E(RB3LYP) =  -796.436413046     A.U. after   11 cycles
 SCF Done:  E(RB3LYP) =  -796.436413143     A.U. after    8 cycles
 SCF Done:  E(RB3LYP) =  -796.436413166     A.U. after    8 cycles
 Optimization completed.
    -- Stationary point found.
 Normal termination of Gaussian 09 at Wed Jul 28 22:46:05 2021.

 --------------------------------------------------------------------
 #N Geom=AllCheck Guess=TCheck SCRF=Check GenChk RB3LYP/6-31G(d) Freq
 --------------------------------------------------------------------

 Structure from the checkpoint file:  "conf-318.chk"
 ------------------------------------------------------------
 Candidate Structure: Conf:318 OPT and FREQ calc in gas phase
 ------------------------------------------------------------
 Charge =  1 Multiplicity = 1

                          Input orientation:
 ---------------------------------------------------------------------
 Center     Atomic      Atomic             Coordinates (Angstroms)
 Number     Number       Type             X           Y           Z
 ---------------------------------------------------------------------
      1          8           0        1.031777    0.581992    1.591992
      2          6           0        1.028648   -0.268270    0.706634
      3          7           0        0.093174   -1.220385    0.540354
      4          6           0       -1.169816   -1.269544    1.260862
      5          6           0       -1.932643   -2.470008    0.663445
      6          8           0       -3.072479   -2.823171    1.272254
      7          8           0       -1.527139   -3.073596   -0.302740
      8          6           0       -1.980774    0.054377    1.208586
      9          6           0       -2.125917    0.653200   -0.158567
     10          6           0       -2.002989    0.170709   -1.444127
     11          7           0       -2.219692    1.164936   -2.372205
     12          6           0       -2.483061    2.242670   -1.668277
     13          7           0       -2.432408    1.993878   -0.325032
     14          6           0        2.147887   -0.286480   -0.358170
     15          6           0        3.305669    0.554097    0.159230
     16          7           0        4.314320    0.833545   -0.954687
     17          1           0        0.132114   -1.869702   -0.241941
     18          1           0       -0.975921   -1.487765    2.320217
     19          1           0       -3.255862   -2.269216    2.050291
     20          1           0       -2.964343   -0.133367    1.666267
     21          1           0       -1.469499    0.764130    1.867119
     22          1           0       -1.788565   -0.842164   -1.756392
     23          1           0       -2.717407    3.220862   -2.066739
     24          1           0       -2.618056    2.658879    0.413408
     25          1           0        1.728874    0.145707   -1.278294
     26          1           0        2.459520   -1.312882   -0.584755
     27          1           0        3.861406    0.059839    0.958222
     28          1           0        2.951694    1.518307    0.525036
     29          1           0        4.713392   -0.034459   -1.333105
     30          1           0        5.094760    1.412646   -0.620261
     31          1           0        3.873289    1.331474   -1.738422
 ---------------------------------------------------------------------

 SCF Done:  E(RB3LYP) =  -796.436413166     A.U. after    1 cycles

 Alpha  occ. eigenvalues --  -19.30858 -19.25091 -19.24886 -14.66314 -14.48655
 Alpha  occ. eigenvalues --  -14.47871 -14.39465 -10.43563 -10.42958 -10.42826
 Alpha  occ. eigenvalues --  -10.36758 -10.36751 -10.32324 -10.31884 -10.31298
 Alpha  occ. eigenvalues --  -10.28311  -1.21647  -1.20174  -1.16839  -1.13542
 Alpha  occ. eigenvalues --   -1.09881  -1.05575  -0.96082  -0.95565  -0.90911
 Alpha  occ. eigenvalues --   -0.85196  -0.82677  -0.78691  -0.78541  -0.77393
 Alpha  occ. eigenvalues --   -0.73700  -0.70520  -0.69995  -0.68693  -0.67603
 Alpha  occ. eigenvalues --   -0.66862  -0.64284  -0.63216  -0.59976  -0.59650
 Alpha  occ. eigenvalues --   -0.58023  -0.56794  -0.55982  -0.54874  -0.54279
 Alpha  occ. eigenvalues --   -0.53726  -0.52629  -0.51152  -0.50458  -0.49631
 Alpha  occ. eigenvalues --   -0.49126  -0.48464  -0.48414  -0.42639  -0.39203
 Alpha  occ. eigenvalues --   -0.38756  -0.38501  -0.36451  -0.34887  -0.31173
 Alpha virt. eigenvalues --   -0.16562  -0.11588  -0.10314  -0.09786  -0.09286
 Alpha virt. eigenvalues --   -0.06922  -0.06736  -0.04591  -0.03362  -0.02836
 Alpha virt. eigenvalues --   -0.01445  -0.00962  -0.00718   0.01179   0.01598

 Mulliken charges:
               1
     1  O   -0.518614
     2  C    0.663962
     3  N   -0.622438
     4  C   -0.066560
     5  C    0.635894
     6  O   -0.542177
     7  O   -0.447228
     8  C   -0.383041
     9  C    0.330708
    10  C   -0.106436
    11  N   -0.420582
    12  C    0.208642
    13  N   -0.605230
    14  C   -0.416141
    15  C   -0.202384
    16  N   -0.734486
    17  H    0.368739
    18  H    0.197597
    19  H    0.428761
    20  H    0.161049
    21  H    0.202153
    22  H    0.151174
    23  H    0.174014
    24  H    0.341915
    25  H    0.210296
    26  H    0.196225
    27  H    0.239563
    28  H    0.258719
    29  H    0.429791
    30  H    0.435834
    31  H    0.430278
 Sum of Mulliken charges =   1.00000

 Dipole moment (field-independent basis, Debye):
    X=             15.2321    Y=              4.6133    Z=              0.7394  Tot=             15.9325
 Quadrupole moment (field-independent basis, Debye-Ang):
   XX=             -2.0134   YY=            -83.1349   ZZ=            -88.0693
   XY=              4.3681   XZ=            -35.0419   YZ=             -8.8466

  Exact polarizability: 116.803   3.742 120.988  -8.565  -4.133 117.831
 Approx polarizability: 145.967  -0.384 187.970 -14.970  17.432 201.249

                      1                      2                      3
                      A                      A                      A
 Frequencies --     10.2526                31.1699                40.1594
 Red. masses --      5.3108                 1.7160                 4.0774
 Frc consts  --      0.0003                 0.0010                 0.0039
 IR Inten    --     10.2846                 3.0176                10.4931

                      4                      5                      6
                      A                      A                      A
 Frequencies --     52.4168                63.7810                88.7566
 Red. masses --      6.0713                 5.4346                 4.6100
 Frc consts  --      0.0098                 0.0130                 0.0214
 IR Inten    --     14.0469                 1.1210                 8.1032

                      7                      8                      9
                      A                      A                      A
 Frequencies --     99.4127               100.7121               153.5878
 Red. masses --      4.8168                 5.8129                 5.7149
 Frc consts  --      0.0280                 0.0347                 0.0794
 IR Inten    --      9.4718                14.2084                 1.4660

                     10                     11                     12
                      A                      A                      A
 Frequencies --    201.7504               221.3610               237.8998
 Red. masses --      4.9313                 2.8377                 1.3079
 Frc consts  --      0.1183                 0.0819                 0.0436
 IR Inten    --     18.7853                10.8122                 3.5262

                     13                     14                     15
                      A                      A                      A
 Frequencies --    271.9586               275.5386               325.1703
 Red. masses --      3.4691                 5.1769                 3.4068
 Frc consts  --      0.1512                 0.2316                 0.2122
 IR Inten    --      0.4758                16.0473                 4.1585

                     16                     17                     18
                      A                      A                      A
 Frequencies --    339.2561               376.5794               454.4108
 Red. masses --      4.9346                 3.4564                 2.0333
 Frc consts  --      0.3346                 0.2888                 0.2474
 IR Inten    --      2.8292                26.6520                68.2097

                     19                     20                     21
                      A                      A                      A
 Frequencies --    511.2685               522.2437               560.8829
 Red. masses --      1.6387                 1.4904                 3.0128
 Frc consts  --      0.2524                 0.2395                 0.5584
 IR Inten    --     57.0249                85.7051                17.6946

                     22                     23                     24
                      A                      A                      A
 Frequencies --    576.1819               617.1874               651.7395
 Red. masses --      3.4442                 6.4152                 2.4893
 Frc consts  --      0.6737                 1.4398                 0.6230
 IR Inten    --     30.7678                 6.7565                22.8209

                     25                     26                     27
                      A                      A                      A
 Frequencies --    661.8263               681.0209               684.2576
 Red. masses --      1.4309                 2.8555                 3.8151
 Frc consts  --      0.3693                 0.7803                 1.0524
 IR Inten    --     55.2401                11.4528                 1.6863

                     28                     29                     30
                      A                      A                      A
 Frequencies --    722.7545               783.1757               806.7298
 Red. masses --      3.9575                 2.5904                 1.5813
 Frc consts  --      1.2180                 0.9361                 0.6063
 IR Inten    --      3.2038                 9.4512                 5.1087

                     31                     32                     33
                      A                      A                      A
 Frequencies --    812.7690               851.5602               871.8638
 Red. masses --      1.3663                 2.4577                 1.5449
 Frc consts  --      0.5318                 1.0500                 0.6919
 IR Inten    --     13.9508                 9.4909                20.3700

                     34                     35                     36
                      A                      A                      A
 Frequencies --    886.0210               921.9091               926.2883
 Red. masses --      2.9704                 3.8178                 1.3859
 Frc consts  --      1.3739                 1.9118                 0.7006
 IR Inten    --     32.5958                 6.0363                 4.5264

                     37                     38                     39
                      A                      A                      A
 Frequencies --    946.1796               951.5813               992.6092
 Red. masses --      3.2113                 4.2493                 1.9549
 Frc consts  --      1.6938                 2.2670                 1.1348
 IR Inten    --     25.8833                13.2533                20.6682

                     40                     41                     42
                      A                      A                      A
 Frequencies --   1024.9049              1047.1180              1104.9656
 Red. masses --      3.7542                 2.4072                 1.6543
 Frc consts  --      2.3234                 1.5551                 1.1900
 IR Inten    --      7.5311                10.1179                 8.3148

                     43                     44                     45
                      A                      A                      A
 Frequencies --   1124.7080              1126.0475              1160.9504
 Red. masses --      2.1181                 1.6689                 2.2334
 Frc consts  --      1.5786                 1.2468                 1.7736
 IR Inten    --     30.7305                16.9223                12.2335

                     46                     47                     48
                      A                      A                      A
 Frequencies --   1163.6012              1203.6028              1225.8346
 Red. masses --      2.4629                 1.6934                 1.8721
 Frc consts  --      1.9647                 1.4454                 1.6574
 IR Inten    --     13.2284                17.4650                10.1144

                     49                     50                     51
                      A                      A                      A
 Frequencies --   1249.3226              1269.9081              1286.3708
 Red. masses --      1.3227                 1.3768                 1.8228
 Frc consts  --      1.2164                 1.3081                 1.7771
 IR Inten    --     12.0283                28.4319                16.0892

                     52                     53                     54
                      A                      A                      A
 Frequencies --   1300.4591              1302.6678              1321.1512
 Red. masses --      1.3901                 1.3740                 1.5583
 Frc consts  --      1.3851                 1.3738                 1.6025
 IR Inten    --     20.2513                10.1058               228.3282

                     55                     56                     57
                      A                      A                      A
 Frequencies --   1330.8260              1355.7396              1377.3279
 Red. masses --      1.2842                 1.4024                 2.5461
 Frc consts  --      1.3401                 1.5187                 2.8458
 IR Inten    --     49.1428                79.2458                49.8980

                     58                     59                     60
                      A                      A                      A
 Frequencies --   1409.1251              1412.6097              1433.8513
 Red. masses --      1.7942                 1.4799                 1.8948
 Frc consts  --      2.0990                 1.7399                 2.2953
 IR Inten    --    114.0214                80.0708                24.4156

                     61                     62                     63
                      A                      A                      A
 Frequencies --   1446.0576              1506.9265              1507.5949
 Red. masses --      2.7792                 1.6425                 1.1196
 Frc consts  --      3.4240                 2.1976                 1.4993
 IR Inten    --     23.6036                28.9863                 0.1963

                     64                     65                     66
                      A                      A                      A
 Frequencies --   1520.5587              1523.7718              1544.7580
 Red. masses --      1.0777                 1.8590                 1.1849
 Frc consts  --      1.4681                 2.5432                 1.6659
 IR Inten    --     11.5282                 2.5185               220.6092

                     67                     68                     69
                      A                      A                      A
 Frequencies --   1562.7191              1620.2500              1697.4601
 Red. masses --      2.1863                 4.0258                 1.0430
 Frc consts  --      3.1457                 6.2268                 1.7707
 IR Inten    --    261.2984                12.5264                56.0409

                     70                     71                     72
                      A                      A                      A
 Frequencies --   1701.7312              1782.2184              1858.1427
 Red. masses --      1.0449                 9.8813                 9.3806
 Frc consts  --      1.7828                18.4920                19.0826
 IR Inten    --     46.3284               252.5445               137.9676

                     73                     74                     75
                      A                      A                      A
 Frequencies --   3013.5432              3042.4097              3044.3497
 Red. masses --      1.0722                 1.0639                 1.0835
 Frc consts  --      5.7370                 5.8024                 5.9164
 IR Inten    --     39.2852                 1.6135                21.9631

                     76                     77                     78
                      A                      A                      A
 Frequencies --   3098.1990              3098.9309              3132.5051
 Red. masses --      1.0897                 1.1006                 1.0606
 Frc consts  --      6.1626                 6.2275                 6.1320
 IR Inten    --      2.1098                 5.2182                 1.4017

                     79                     80                     81
                      A                      A                      A
 Frequencies --   3196.7178              3269.9928              3272.9987
 Red. masses --      1.1112                 1.0947                 1.0990
 Frc consts  --      6.6906                 6.8965                 6.9362
 IR Inten    --      1.2280                 3.2545                 0.4221

                     82                     83                     84
                      A                      A                      A
 Frequencies --   3390.3158              3479.2359              3481.9551
 Red. masses --      1.0308                 1.0938                 1.0940
 Frc consts  --      6.9807                 7.8010                 7.8147
 IR Inten    --     47.8882                90.4226                90.4375

                     85                     86                     87
                      A                      A                      A
 Frequencies --   3525.9951              3634.3464              3721.8766
 Red. masses --      1.0778                 1.0811                 1.0662
 Frc consts  --      7.8950                 8.4137                 8.7019
 IR Inten    --    124.7772                49.9989                43.8443

 - Thermochemistry -
 -------------------
 Temperature   298.150 Kelvin.  Pressure   1.00000 Atm.
 Atom     1 has atomic number  8 and mass  15.99491

 Molecular mass:   227.11442 amu.
 Principal axes and moments of inertia in atomic units:
                           1         2         3
     Eigenvalues --  3033.103225055.113076672.57452
           X            0.97042  -0.22791  -0.07963
           Y            0.23782   0.84562   0.47787
           Z           -0.04157  -0.48267   0.87481
 This molecule is an asymmetric top.
 Rotational symmetry number  1.
 Warning -- assumption of classical behavior for rotation
           may cause significant error
 Rotational temperatures (Kelvin)      0.02856     0.01713     0.01298
 Rotational constants (GHZ):           0.59501     0.35701     0.27047
 Zero-point vibrational energy     683013.1 (Joules/Mol)
                                  163.24405 (Kcal/Mol)
 Warning -- explicit consideration of  23 degrees of freedom as
           vibrations may cause significant error
 Vibrational temperatures:     14.75    44.85    57.78    75.42    91.77
          (Kelvin)            127.70   143.03   144.90   220.98   290.27
                              318.49   342.28   391.29   396.44   467.85
                              488.11   541.81   653.79   735.60   751.39
                              806.98   829.00   887.99   937.71   952.22
                              979.84   984.49  1039.88  1126.81  1160.70
                             1169.39  1225.20  1254.42  1274.79  1326.42
                             1332.72  1361.34  1369.11  1428.14  1474.61
                             1506.57  1589.80  1618.20  1620.13  1670.35
                             1674.16  1731.71  1763.70  1797.49  1827.11
                             1850.80  1871.07  1874.25  1900.84  1914.76
                             1950.60  1981.67  2027.41  2032.43  2062.99
                             2080.55  2168.13  2169.09  2187.74  2192.37
                             2222.56  2248.40  2331.18  2442.26  2448.41
                             2564.21  2673.45  4335.81  4377.34  4380.13
                             4457.61  4458.66  4506.97  4599.36  4704.78
                             4709.11  4877.90  5005.84  5009.75  5073.11
                             5229.01  5354.94

 Zero-point correction=                           0.260146 (Hartree/Particle)
 Thermal correction to Energy=                    0.276527
 Thermal correction to Enthalpy=                  0.277471
 Thermal correction to Gibbs Free Energy=         0.212536
 Sum of electronic and zero-point Energies=           -796.176267
 Sum of electronic and thermal Energies=              -796.159886
 Sum of electronic and thermal Enthalpies=            -796.158942
 Sum of electronic and thermal Free Energies=         -796.223877

                     E (Thermal)             CV                S
                      KCal/Mol        Cal/Mol-Kelvin    Cal/Mol-Kelvin
 Total                  173.523             58.903            136.668
 Electronic               0.000              0.000              0.000
 Translational            0.889              2.981             42.163
 Rotational               0.889              2.981             32.992
 Vibrational            171.746             52.941             61.513
 Vibration     1          0.593              1.987              7.961
 Vibration     2          0.594              1.983              5.754
 Vibration     3          0.594              1.981              5.251
 Vibration     4          0.596              1.977              4.724
 Vibration     5          0.597              1.972              4.337
 Vibration     6          0.602              1.957              3.687
 Vibration     7          0.604              1.950              3.466
 Vibration     8          0.604              1.949              3.440
 Vibration     9          0.619              1.899              2.627
 Vibration    10          0.639              1.837              2.117
 Vibration    11          0.648              1.809              1.948
 Vibration    12          0.656              1.783              1.819
 Vibration    13          0.675              1.725              1.584
 Vibration    14          0.677              1.719              1.561
 Vibration    15          0.709              1.625              1.284
 Vibration    16          0.719              1.597              1.216
 Vibration    17          0.747              1.520              1.053
 Vibration    18          0.813              1.351              0.783
 Vibration    19          0.866              1.225              0.631
 Vibration    20          0.877              1.201              0.605
 Vibration    21          0.917              1.116              0.522
 Vibration    22          0.933              1.083              0.492
 Vibration    23          0.977              0.996              0.421

 Optimization completed.
    -- Stationary point found.
 Normal termination of Gaussian 09 at Wed Jul 28 23:03:11 2021.
