 Gaussian 09, Revision D.01,
 Gaussian 09:  ES64L-G09RevD.01 24-Apr-2013

 ----------------------------------------------------------------------
 # B3LYP/6-31G(d) opt=calcfc freq=noraman nosymm integral(ultrafinegrid
 )
 ----------------------------------------------------------------------

 ------------------------------------------------------------
 Candidate Structure: Conf:719 OPT and FREQ calc in gas phase
 ------------------------------------------------------------
 Symbolic Z-matrix:
 Charge =  1 Multiplicity = 1

 SCF Done:  E(RB3LYP) =  -796.433665145     A.U. after   17 cycles
 SCF Done:  E(RB3LYP) =  -796.442906443     A.U. after   14 cycles
 SCF Done:  E(RB3LYP) =  -796.444208609     A.U. after   14 cycles
 SCF Done:  E(RB3LYP) =  -796.445604413     A.U. after   12 cycles
 SCF Done:  E(RB3LYP) =  -796.445794891     A.U. after   12 cycles
 SCF Done:  E(RB3LYP) =  -796.445819277     A.U. after   11 cycles
 SCF Done:  E(RB3LYP) =  -796.445821701     A.U. after    9 cycles
 SCF Done:  E(RB3LYP) =  -796.445822594     A.U. after    9 cycles
 SCF Done:  E(RB3LYP) =  -796.445822857     A.U. after    8 cycles
 SCF Done:  E(RB3LYP) =  -796.445822892     A.U. after    7 cycles
 SCF Done:  E(RB3LYP) =  -796.445822909     A.U. after    6 cycles
 SCF Done:  E(RB3LYP) =  -796.445822917     A.U. after    7 cycles
 Optimization completed.
    -- Stationary point found.
 Normal termination of Gaussian 09 at Wed Jul 28 22:28:09 2021.

 --------------------------------------------------------------------
 #N Geom=AllCheck Guess=TCheck SCRF=Check GenChk RB3LYP/6-31G(d) Freq
 --------------------------------------------------------------------

 Structure from the checkpoint file:  "conf-719.chk"
 ------------------------------------------------------------
 Candidate Structure: Conf:719 OPT and FREQ calc in gas phase
 ------------------------------------------------------------
 Charge =  1 Multiplicity = 1

                          Input orientation:
 ---------------------------------------------------------------------
 Center     Atomic      Atomic             Coordinates (Angstroms)
 Number     Number       Type             X           Y           Z
 ---------------------------------------------------------------------
      1          8           0       -0.962445    0.107837    1.324671
      2          6           0       -1.367681    0.217368    0.171969
      3          7           0       -0.578708    0.314149   -0.914492
      4          6           0        0.879176    0.360233   -0.820134
      5          6           0        1.348567    0.897152   -2.167986
      6          8           0        2.684740    1.033696   -2.241659
      7          8           0        0.603801    1.159223   -3.088775
      8          6           0        1.504526   -1.032371   -0.462439
      9          6           0        2.757225   -0.980398    0.350198
     10          6           0        2.977530   -1.311487    1.668731
     11          7           0        4.294838   -1.133604    2.014773
     12          6           0        4.879000   -0.694855    0.920649
     13          7           0        4.000104   -0.589148   -0.119371
     14          6           0       -2.890152    0.215821   -0.110452
     15          6           0       -3.581970    0.696706    1.158234
     16          7           0       -5.077888    0.386668    1.132327
     17          1           0       -0.956740    0.502406   -1.838047
     18          1           0        1.163376    1.068276   -0.033181
     19          1           0        2.887964    1.378691   -3.133614
     20          1           0        0.759366   -1.553597    0.143195
     21          1           0        1.631382   -1.618946   -1.382083
     22          1           0        2.250932   -1.675915    2.383702
     23          1           0        5.926047   -0.441353    0.820196
     24          1           0        4.189197   -0.219924   -1.039867
     25          1           0       -3.183642   -0.817510   -0.344364
     26          1           0       -3.142703    0.838043   -0.976409
     27          1           0       -3.498226    1.776120    1.299532
     28          1           0       -3.159914    0.193481    2.029321
     29          1           0       -5.246802   -0.623123    1.041914
     30          1           0       -5.539287    0.699484    1.996016
     31          1           0       -5.551397    0.846931    0.345158
 ---------------------------------------------------------------------

 SCF Done:  E(RB3LYP) =  -796.445822917     A.U. after    1 cycles

 Alpha  occ. eigenvalues --  -19.31981 -19.26362 -19.24860 -14.66505 -14.48945
 Alpha  occ. eigenvalues --  -14.45432 -14.37135 -10.44374 -10.43060 -10.42867
 Alpha  occ. eigenvalues --  -10.37151 -10.35765 -10.30191 -10.30094 -10.28810
 Alpha  occ. eigenvalues --  -10.26096  -1.22962  -1.20357  -1.16948  -1.14029
 Alpha  occ. eigenvalues --   -1.07581  -1.05482  -0.96230  -0.93334  -0.90069
 Alpha  occ. eigenvalues --   -0.84691  -0.82391  -0.78895  -0.78291  -0.76508
 Alpha  occ. eigenvalues --   -0.73843  -0.70568  -0.68908  -0.67888  -0.65423
 Alpha  occ. eigenvalues --   -0.64730  -0.63739  -0.61975  -0.60340  -0.59048
 Alpha  occ. eigenvalues --   -0.58842  -0.57284  -0.56650  -0.55160  -0.53758
 Alpha  occ. eigenvalues --   -0.52882  -0.52399  -0.50668  -0.49361  -0.48327
 Alpha  occ. eigenvalues --   -0.47521  -0.47271  -0.46662  -0.44020  -0.40176
 Alpha  occ. eigenvalues --   -0.38863  -0.38540  -0.34194  -0.32562  -0.29008
 Alpha virt. eigenvalues --   -0.16750  -0.11831  -0.10908  -0.09868  -0.09638
 Alpha virt. eigenvalues --   -0.06924  -0.04316  -0.03678  -0.03663  -0.02522
 Alpha virt. eigenvalues --   -0.01016   0.00320   0.01398   0.02516   0.02876

 Mulliken charges:
               1
     1  O   -0.504643
     2  C    0.646948
     3  N   -0.626158
     4  C   -0.021596
     5  C    0.591469
     6  O   -0.568657
     7  O   -0.459003
     8  C   -0.373999
     9  C    0.315671
    10  C   -0.066165
    11  N   -0.413574
    12  C    0.211404
    13  N   -0.605561
    14  C   -0.407679
    15  C   -0.206999
    16  N   -0.733885
    17  H    0.361293
    18  H    0.220395
    19  H    0.437264
    20  H    0.192844
    21  H    0.170332
    22  H    0.138412
    23  H    0.168367
    24  H    0.342793
    25  H    0.199766
    26  H    0.191356
    27  H    0.238070
    28  H    0.266214
    29  H    0.429090
    30  H    0.437038
    31  H    0.429195
 Sum of Mulliken charges =   1.00000

 Dipole moment (field-independent basis, Debye):
    X=            -19.6719    Y=              3.1249    Z=             -1.6717  Tot=             19.9886
 Quadrupole moment (field-independent basis, Debye-Ang):
   XX=             30.8808   YY=            -87.7300   ZZ=            -87.7925
   XY=             -0.4816   XZ=            -44.1605   YZ=              2.9954

  Exact polarizability: 163.823  -1.154  79.769   0.821 -15.187 126.028
 Approx polarizability: 205.812   5.400 119.850  11.466 -23.364 210.473

                      1                      2                      3
                      A                      A                      A
 Frequencies --     28.3481                31.3185                39.6641
 Red. masses --      4.9215                 2.7981                 3.9638
 Frc consts  --      0.0023                 0.0016                 0.0037
 IR Inten    --      6.0669                 5.1903                 2.5200

                      4                      5                      6
                      A                      A                      A
 Frequencies --     40.3274                64.0379                77.3756
 Red. masses --      2.6617                 6.6194                 8.0336
 Frc consts  --      0.0026                 0.0160                 0.0283
 IR Inten    --     17.8041                 2.5980                 8.7061

                      7                      8                      9
                      A                      A                      A
 Frequencies --     94.4629               113.8719               127.3107
 Red. masses --      3.6974                 4.8174                 4.8846
 Frc consts  --      0.0194                 0.0368                 0.0466
 IR Inten    --      2.2995                 8.3941                 4.3621

                     10                     11                     12
                      A                      A                      A
 Frequencies --    187.6984               218.6074               239.1675
 Red. masses --      4.9271                 2.1883                 1.4940
 Frc consts  --      0.1023                 0.0616                 0.0504
 IR Inten    --      2.3584                12.3913                 2.3473

                     13                     14                     15
                      A                      A                      A
 Frequencies --    270.0186               306.2547               330.2597
 Red. masses --      5.0978                 2.8154                 3.6602
 Frc consts  --      0.2190                 0.1556                 0.2352
 IR Inten    --     19.9775                 2.6913                 2.3247

                     16                     17                     18
                      A                      A                      A
 Frequencies --    346.7522               376.0601               385.1295
 Red. masses --      6.3810                 3.8337                 3.9473
 Frc consts  --      0.4520                 0.3194                 0.3450
 IR Inten    --     11.8318                 2.2186                18.1562

                     19                     20                     21
                      A                      A                      A
 Frequencies --    528.7837               533.1325               556.0331
 Red. masses --      2.0043                 1.6649                 2.4332
 Frc consts  --      0.3302                 0.2788                 0.4432
 IR Inten    --     30.5959               114.5390                15.1836

                     22                     23                     24
                      A                      A                      A
 Frequencies --    601.6686               640.1430               649.3597
 Red. masses --      2.0424                 2.6175                 1.8044
 Frc consts  --      0.4356                 0.6320                 0.4483
 IR Inten    --     30.2918                43.1249                19.9228

                     25                     26                     27
                      A                      A                      A
 Frequencies --    668.7883               681.7469               711.8696
 Red. masses --      2.0025                 2.7004                 3.9412
 Frc consts  --      0.5277                 0.7395                 1.1767
 IR Inten    --     90.5365                 0.7420                 3.5491

                     28                     29                     30
                      A                      A                      A
 Frequencies --    737.9503               769.7428               800.7578
 Red. masses --      2.9303                 3.3722                 1.3747
 Frc consts  --      0.9402                 1.1772                 0.5194
 IR Inten    --     41.7891                 8.3530                12.6070

                     31                     32                     33
                      A                      A                      A
 Frequencies --    813.6677               821.7597               853.4917
 Red. masses --      1.3746                 2.6178                 1.3908
 Frc consts  --      0.5362                 1.0416                 0.5969
 IR Inten    --     15.3867                14.1186                16.0146

                     34                     35                     36
                      A                      A                      A
 Frequencies --    888.4808               925.1320               929.2971
 Red. masses --      2.7948                 1.2810                 3.9788
 Frc consts  --      1.2999                 0.6459                 2.0245
 IR Inten    --     34.2391                 4.6781                23.6061

                     37                     38                     39
                      A                      A                      A
 Frequencies --    932.1684               985.8221              1010.9822
 Red. masses --      4.9903                 2.1357                 4.6211
 Frc consts  --      2.5549                 1.2229                 2.7828
 IR Inten    --     14.1248                17.3546                 1.7002

                     40                     41                     42
                      A                      A                      A
 Frequencies --   1013.7549              1031.0969              1089.6245
 Red. masses --      3.0429                 3.6020                 2.1606
 Frc consts  --      1.8425                 2.2563                 1.5114
 IR Inten    --     37.4209                13.1642                42.6309

                     43                     44                     45
                      A                      A                      A
 Frequencies --   1116.3889              1124.6937              1151.8089
 Red. masses --      1.9600                 1.6114                 2.1980
 Frc consts  --      1.4392                 1.2010                 1.7181
 IR Inten    --     33.6673                35.8770                 4.9727

                     46                     47                     48
                      A                      A                      A
 Frequencies --   1161.3844              1197.5168              1208.7605
 Red. masses --      1.9562                 1.3137                 2.4383
 Frc consts  --      1.5546                 1.1099                 2.0991
 IR Inten    --     17.1776                 0.5434               186.6300

                     49                     50                     51
                      A                      A                      A
 Frequencies --   1251.6484              1279.9306              1288.4647
 Red. masses --      1.5846                 2.1641                 1.5052
 Frc consts  --      1.4626                 2.0888                 1.4723
 IR Inten    --     15.3532                 9.0452                 5.5390

                     52                     53                     54
                      A                      A                      A
 Frequencies --   1299.1263              1316.9263              1327.2935
 Red. masses --      1.3077                 1.3262                 1.2353
 Frc consts  --      1.3003                 1.3552                 1.2822
 IR Inten    --      2.9249                 7.3851                 9.2173

                     55                     56                     57
                      A                      A                      A
 Frequencies --   1336.2008              1365.2201              1376.6971
 Red. masses --      1.2273                 1.4255                 1.5264
 Frc consts  --      1.2911                 1.5654                 1.7044
 IR Inten    --      9.4116                10.1600                34.3655

                     58                     59                     60
                      A                      A                      A
 Frequencies --   1401.8907              1413.0370              1434.5236
 Red. masses --      3.2379                 1.3492                 2.5530
 Frc consts  --      3.7493                 1.5872                 3.0953
 IR Inten    --     49.1321                17.5048                96.1607

                     61                     62                     63
                      A                      A                      A
 Frequencies --   1448.8342              1500.2571              1504.8296
 Red. masses --      2.9112                 1.1714                 1.1110
 Frc consts  --      3.6004                 1.5534                 1.4823
 IR Inten    --     30.6305                23.0661                 0.8412

                     64                     65                     66
                      A                      A                      A
 Frequencies --   1517.0893              1523.7458              1544.1315
 Red. masses --      3.1246                 1.0757                 1.1978
 Frc consts  --      4.2371                 1.4715                 1.6827
 IR Inten    --     22.6340                14.2699               260.0925

                     67                     68                     69
                      A                      A                      A
 Frequencies --   1557.2767              1619.8310              1697.8358
 Red. masses --      2.1756                 4.2862                 1.0434
 Frc consts  --      3.1085                 6.6262                 1.7721
 IR Inten    --    241.8156                 4.4729                56.4189

                     70                     71                     72
                      A                      A                      A
 Frequencies --   1701.2714              1779.9061              1833.7202
 Red. masses --      1.0445                 9.9840                 9.4697
 Frc consts  --      1.7811                18.6358                18.7608
 IR Inten    --     46.5203               241.6573               258.6022

                     73                     74                     75
                      A                      A                      A
 Frequencies --   3043.2820              3046.0895              3082.0383
 Red. masses --      1.0641                 1.0704                 1.0837
 Frc consts  --      5.8065                 5.8515                 6.0653
 IR Inten    --      4.0187                22.5020                 6.0094

                     76                     77                     78
                      A                      A                      A
 Frequencies --   3102.5941              3127.2732              3130.0139
 Red. masses --      1.1004                 1.0602                 1.0940
 Frc consts  --      6.2408                 6.1092                 6.3147
 IR Inten    --      6.3861                 3.0861                 4.2260

                     79                     80                     81
                      A                      A                      A
 Frequencies --   3191.5489              3256.3559              3270.6532
 Red. masses --      1.1116                 1.0962                 1.0974
 Frc consts  --      6.6713                 6.8484                 6.9165
 IR Inten    --      3.1527                 6.7850                 1.2765

                     82                     83                     84
                      A                      A                      A
 Frequencies --   3390.2723              3479.3553              3481.9451
 Red. masses --      1.0308                 1.0938                 1.0940
 Frc consts  --      6.9803                 7.8015                 7.8148
 IR Inten    --     53.0853                93.7089                89.0543

                     85                     86                     87
                      A                      A                      A
 Frequencies --   3556.1724              3656.2020              3667.3115
 Red. masses --      1.0781                 1.0807                 1.0643
 Frc consts  --      8.0329                 8.5117                 8.4332
 IR Inten    --    107.2491                81.9311                92.9856

 - Thermochemistry -
 -------------------
 Temperature   298.150 Kelvin.  Pressure   1.00000 Atm.
 Atom     1 has atomic number  8 and mass  15.99491

 Molecular mass:   227.11442 amu.
 Principal axes and moments of inertia in atomic units:
                           1         2         3
     Eigenvalues --  2213.221527143.458249069.11986
           X            0.98937  -0.00676   0.14525
           Y           -0.13723  -0.37352   0.91741
           Z           -0.04805   0.92760   0.37048
 This molecule is an asymmetric top.
 Rotational symmetry number  1.
 Warning -- assumption of classical behavior for rotation
           may cause significant error
 Rotational temperatures (Kelvin)      0.03913     0.01212     0.00955
 Rotational constants (GHZ):           0.81544     0.25264     0.19900
 Zero-point vibrational energy     683147.0 (Joules/Mol)
                                  163.27606 (Kcal/Mol)
 Warning -- explicit consideration of  22 degrees of freedom as
           vibrations may cause significant error
 Vibrational temperatures:     40.79    45.06    57.07    58.02    92.14
          (Kelvin)            111.33   135.91   163.84   183.17   270.06
                              314.53   344.11   388.50   440.63   475.17
                              498.90   541.07   554.11   760.80   767.06
                              800.01   865.67   921.02   934.28   962.24
                              980.88  1024.22  1061.74  1107.49  1152.11
                             1170.68  1182.33  1227.98  1278.32  1331.06
                             1337.05  1341.18  1418.38  1454.58  1458.57
                             1483.52  1567.72  1606.23  1618.18  1657.19
                             1670.97  1722.96  1739.13  1800.84  1841.53
                             1853.81  1869.15  1894.76  1909.68  1922.49
                             1964.24  1980.76  2017.01  2033.04  2063.96
                             2084.55  2158.53  2165.11  2182.75  2192.33
                             2221.66  2240.57  2330.57  2442.80  2447.75
                             2560.88  2638.31  4378.60  4382.64  4434.36
                             4463.94  4499.44  4503.39  4591.92  4685.16
                             4705.73  4877.84  5006.01  5009.74  5116.53
                             5260.45  5276.44

 Zero-point correction=                           0.260197 (Hartree/Particle)
 Thermal correction to Energy=                    0.276611
 Thermal correction to Enthalpy=                  0.277555
 Thermal correction to Gibbs Free Energy=         0.212931
 Sum of electronic and zero-point Energies=           -796.185626
 Sum of electronic and thermal Energies=              -796.169212
 Sum of electronic and thermal Enthalpies=            -796.168268
 Sum of electronic and thermal Free Energies=         -796.232892

                     E (Thermal)             CV                S
                      KCal/Mol        Cal/Mol-Kelvin    Cal/Mol-Kelvin
 Total                  173.576             58.888            136.012
 Electronic               0.000              0.000              0.000
 Translational            0.889              2.981             42.163
 Rotational               0.889              2.981             33.327
 Vibrational            171.799             52.927             60.522
 Vibration     1          0.593              1.984              5.942
 Vibration     2          0.594              1.983              5.744
 Vibration     3          0.594              1.981              5.276
 Vibration     4          0.594              1.981              5.243
 Vibration     5          0.597              1.971              4.329
 Vibration     6          0.599              1.964              3.956
 Vibration     7          0.603              1.953              3.565
 Vibration     8          0.607              1.938              3.202
 Vibration     9          0.611              1.926              2.986
 Vibration    10          0.632              1.857              2.250
 Vibration    11          0.646              1.813              1.971
 Vibration    12          0.657              1.781              1.809
 Vibration    13          0.674              1.728              1.596
 Vibration    14          0.697              1.662              1.382
 Vibration    15          0.713              1.615              1.259
 Vibration    16          0.725              1.582              1.181
 Vibration    17          0.747              1.521              1.055
 Vibration    18          0.754              1.502              1.019
 Vibration    19          0.884              1.186              0.590
 Vibration    20          0.888              1.177              0.580
 Vibration    21          0.912              1.127              0.532
 Vibration    22          0.960              1.028              0.447

 Optimization completed.
    -- Stationary point found.
 Normal termination of Gaussian 09 at Wed Jul 28 22:43:24 2021.
