 Gaussian 09, Revision D.01,
 Gaussian 09:  ES64L-G09RevD.01 24-Apr-2013

 ----------------------------------------------------------------------
 # B3LYP/6-31G(d) opt=calcfc freq=noraman nosymm integral(ultrafinegrid
 )
 ----------------------------------------------------------------------

 ------------------------------------------------------------
 Candidate Structure: Conf:661 OPT and FREQ calc in gas phase
 ------------------------------------------------------------
 Symbolic Z-matrix:
 Charge =  1 Multiplicity = 1

 SCF Done:  E(RB3LYP) =  -796.440883643     A.U. after   15 cycles
 SCF Done:  E(RB3LYP) =  -796.440409218     A.U. after   15 cycles
 SCF Done:  E(RB3LYP) =  -796.449414654     A.U. after   12 cycles
 SCF Done:  E(RB3LYP) =  -796.453739069     A.U. after   13 cycles
 SCF Done:  E(RB3LYP) =  -796.455406922     A.U. after   15 cycles
 SCF Done:  E(RB3LYP) =  -796.438408828     A.U. after   13 cycles
 SCF Done:  E(RB3LYP) =  -796.455813141     A.U. after   10 cycles
 SCF Done:  E(RB3LYP) =  -796.458556789     A.U. after   12 cycles
 SCF Done:  E(RB3LYP) =  -796.459663288     A.U. after   13 cycles
 SCF Done:  E(RB3LYP) =  -796.460005891     A.U. after   13 cycles
 SCF Done:  E(RB3LYP) =  -796.460122011     A.U. after   12 cycles
 SCF Done:  E(RB3LYP) =  -796.460227770     A.U. after   11 cycles
 SCF Done:  E(RB3LYP) =  -796.460317588     A.U. after   12 cycles
 SCF Done:  E(RB3LYP) =  -796.460358141     A.U. after   11 cycles
 SCF Done:  E(RB3LYP) =  -796.460394823     A.U. after   11 cycles
 SCF Done:  E(RB3LYP) =  -796.460410264     A.U. after   11 cycles
 SCF Done:  E(RB3LYP) =  -796.460415003     A.U. after    9 cycles
 SCF Done:  E(RB3LYP) =  -796.460417517     A.U. after   10 cycles
 SCF Done:  E(RB3LYP) =  -796.460418000     A.U. after    8 cycles
 Optimization completed.
    -- Stationary point found.
 Normal termination of Gaussian 09 at Wed Jul 28 22:43:21 2021.

 --------------------------------------------------------------------
 #N Geom=AllCheck Guess=TCheck SCRF=Check GenChk RB3LYP/6-31G(d) Freq
 --------------------------------------------------------------------

 Structure from the checkpoint file:  "conf-661.chk"
 ------------------------------------------------------------
 Candidate Structure: Conf:661 OPT and FREQ calc in gas phase
 ------------------------------------------------------------
 Charge =  1 Multiplicity = 1

                          Input orientation:
 ---------------------------------------------------------------------
 Center     Atomic      Atomic             Coordinates (Angstroms)
 Number     Number       Type             X           Y           Z
 ---------------------------------------------------------------------
      1          8           0        2.123697    1.133586    0.892604
      2          6           0        1.416543    0.944074   -0.089014
      3          7           0        0.185765    0.364539    0.002807
      4          6           0       -0.262995   -0.141655    1.279294
      5          6           0        0.744146   -1.202145    1.766155
      6          8           0        0.727094   -1.499285    3.062511
      7          8           0        1.479685   -1.829084    1.021837
      8          6           0       -1.669964   -0.809722    1.130058
      9          6           0       -2.645682    0.022017    0.365067
     10          6           0       -3.044012   -0.047888   -0.954509
     11          7           0       -3.917333    0.965527   -1.265938
     12          6           0       -4.057708    1.651499   -0.154210
     13          7           0       -3.303416    1.134447    0.864008
     14          6           0        1.979997    1.106063   -1.500303
     15          6           0        3.191986    0.175130   -1.598666
     16          7           0        2.792239   -1.271780   -1.343629
     17          1           0       -0.493801    0.412534   -0.750805
     18          1           0       -0.304244    0.670125    2.018007
     19          1           0        0.151744   -0.898446    3.567532
     20          1           0       -2.041802   -1.060151    2.130943
     21          1           0       -1.545564   -1.759515    0.598430
     22          1           0       -2.777009   -0.803447   -1.683961
     23          1           0       -4.686647    2.521710   -0.021537
     24          1           0       -3.290903    1.468574    1.818199
     25          1           0        2.340820    2.129866   -1.639694
     26          1           0        1.244221    0.896826   -2.285338
     27          1           0        3.914307    0.429989   -0.821818
     28          1           0        3.670393    0.210125   -2.579199
     29          1           0        3.620591   -1.874803   -1.290148
     30          1           0        2.254246   -1.402790   -0.438527
     31          1           0        2.203204   -1.635815   -2.100148
 ---------------------------------------------------------------------

 SCF Done:  E(RB3LYP) =  -796.460418000     A.U. after    1 cycles

 Alpha  occ. eigenvalues --  -19.34371 -19.29164 -19.26179 -14.61406 -14.50862
 Alpha  occ. eigenvalues --  -14.50390 -14.41761 -10.47431 -10.43586 -10.41426
 Alpha  occ. eigenvalues --  -10.39159 -10.36005 -10.34914 -10.34732 -10.33978
 Alpha  occ. eigenvalues --  -10.31172  -1.25420  -1.18721  -1.16854  -1.15658
 Alpha  occ. eigenvalues --   -1.12397  -1.07499  -0.98099  -0.95243  -0.92784
 Alpha  occ. eigenvalues --   -0.86792  -0.82573  -0.79555  -0.77218  -0.75088
 Alpha  occ. eigenvalues --   -0.74057  -0.73496  -0.72450  -0.70430  -0.67948
 Alpha  occ. eigenvalues --   -0.66023  -0.65418  -0.64601  -0.64322  -0.60283
 Alpha  occ. eigenvalues --   -0.59238  -0.58468  -0.57549  -0.56747  -0.55870
 Alpha  occ. eigenvalues --   -0.55086  -0.53754  -0.53332  -0.52464  -0.51868
 Alpha  occ. eigenvalues --   -0.51635  -0.51307  -0.49836  -0.46411  -0.43402
 Alpha  occ. eigenvalues --   -0.40726  -0.40065  -0.39004  -0.37060  -0.34012
 Alpha virt. eigenvalues --   -0.14646  -0.13333  -0.12086  -0.09213  -0.07350
 Alpha virt. eigenvalues --   -0.07007  -0.05649  -0.04569  -0.03766  -0.02543
 Alpha virt. eigenvalues --   -0.01244  -0.00552   0.00261   0.00787   0.01501

 Mulliken charges:
               1
     1  O   -0.486350
     2  C    0.574359
     3  N   -0.611544
     4  C   -0.053327
     5  C    0.674098
     6  O   -0.525730
     7  O   -0.498935
     8  C   -0.400584
     9  C    0.317020
    10  C   -0.088810
    11  N   -0.398082
    12  C    0.221379
    13  N   -0.605581
    14  C   -0.368546
    15  C   -0.197927
    16  N   -0.777220
    17  H    0.353008
    18  H    0.185758
    19  H    0.438884
    20  H    0.181249
    21  H    0.198226
    22  H    0.147500
    23  H    0.190508
    24  H    0.345347
    25  H    0.234711
    26  H    0.177706
    27  H    0.251718
    28  H    0.221252
    29  H    0.421311
    30  H    0.472310
    31  H    0.406293
 Sum of Mulliken charges =   1.00000

 Dipole moment (field-independent basis, Debye):
    X=              5.3028    Y=             -1.6659    Z=             -1.5271  Tot=              5.7643
 Quadrupole moment (field-independent basis, Debye-Ang):
   XX=            -60.5322   YY=            -82.4625   ZZ=            -66.9065
   XY=            -13.4251   XZ=            -38.0943   YZ=              9.8076

  Exact polarizability: 137.766 -17.250 103.402  -1.548  -2.748 126.006
 Approx polarizability: 181.062 -21.839 158.097  10.752   7.504 205.876

                      1                      2                      3
                      A                      A                      A
 Frequencies --     32.3630                40.2915                61.2245
 Red. masses --      3.7587                 4.3611                 7.2707
 Frc consts  --      0.0023                 0.0042                 0.0161
 IR Inten    --     11.8568                 2.2118                11.4019

                      4                      5                      6
                      A                      A                      A
 Frequencies --     68.2813                81.0470               114.2534
 Red. masses --      4.2221                 5.6625                 4.6770
 Frc consts  --      0.0116                 0.0219                 0.0360
 IR Inten    --      5.2825                 5.4577                 3.2903

                      7                      8                      9
                      A                      A                      A
 Frequencies --    148.7530               159.1460               176.3436
 Red. masses --      5.4047                 6.1402                 6.6153
 Frc consts  --      0.0705                 0.0916                 0.1212
 IR Inten    --     21.8404                 4.9288                11.7476

                     10                     11                     12
                      A                      A                      A
 Frequencies --    224.9955               251.4555               277.6091
 Red. masses --      3.9881                 2.6993                 5.7165
 Frc consts  --      0.1189                 0.1006                 0.2596
 IR Inten    --     68.5087                11.0650                 9.7352

                     13                     14                     15
                      A                      A                      A
 Frequencies --    317.9891               327.9324               344.0440
 Red. masses --      2.9675                 1.1817                 3.2059
 Frc consts  --      0.1768                 0.0749                 0.2236
 IR Inten    --      8.9227                 1.0275                 5.7227

                     16                     17                     18
                      A                      A                      A
 Frequencies --    378.6044               421.0315               439.4609
 Red. masses --      3.4821                 3.8659                 2.5756
 Frc consts  --      0.2941                 0.4038                 0.2931
 IR Inten    --     12.9739                39.4436                 3.3988

                     19                     20                     21
                      A                      A                      A
 Frequencies --    509.3329               515.5783               527.4847
 Red. masses --      1.2429                 1.2516                 1.4552
 Frc consts  --      0.1900                 0.1960                 0.2386
 IR Inten    --     39.0232                14.7665               128.7099

                     22                     23                     24
                      A                      A                      A
 Frequencies --    543.8425               629.4194               650.9878
 Red. masses --      2.4105                 4.5226                 3.1965
 Frc consts  --      0.4200                 1.0556                 0.7981
 IR Inten    --     42.6629                 6.6643                 6.4572

                     25                     26                     27
                      A                      A                      A
 Frequencies --    677.8987               695.3332               709.8237
 Red. masses --      3.0743                 3.6781                 4.5525
 Frc consts  --      0.8324                 1.0478                 1.3515
 IR Inten    --      2.6983                 9.7142                15.4967

                     28                     29                     30
                      A                      A                      A
 Frequencies --    739.1895               776.7547               834.1222
 Red. masses --      2.5425                 5.6817                 1.3635
 Frc consts  --      0.8185                 2.0197                 0.5589
 IR Inten    --      2.0625                 2.2447                21.3813

                     31                     32                     33
                      A                      A                      A
 Frequencies --    840.2106               846.1769               866.1781
 Red. masses --      3.0506                 1.5373                 2.1636
 Frc consts  --      1.2689                 0.6485                 0.9564
 IR Inten    --      2.7556                12.8827                 6.4624

                     34                     35                     36
                      A                      A                      A
 Frequencies --    878.7159               927.5732               935.0155
 Red. masses --      2.1512                 6.0392                 2.5363
 Frc consts  --      0.9787                 3.0614                 1.3064
 IR Inten    --     16.4163                 9.3314                 7.7655

                     37                     38                     39
                      A                      A                      A
 Frequencies --    957.2141               960.8071              1007.2366
 Red. masses --      1.3470                 3.2190                 2.8336
 Frc consts  --      0.7272                 1.7508                 1.6937
 IR Inten    --     10.0519                 5.2879                11.8658

                     40                     41                     42
                      A                      A                      A
 Frequencies --   1015.6545              1046.3622              1100.9081
 Red. masses --      3.6438                 3.0151                 1.5761
 Frc consts  --      2.2146                 1.9450                 1.1255
 IR Inten    --     14.1085                 5.2323                 3.4086

                     43                     44                     45
                      A                      A                      A
 Frequencies --   1118.3569              1126.3633              1150.4085
 Red. masses --      1.7044                 1.3467                 1.9553
 Frc consts  --      1.2560                 1.0067                 1.5246
 IR Inten    --     22.8280                 6.3251                23.7437

                     46                     47                     48
                      A                      A                      A
 Frequencies --   1162.1913              1204.1576              1218.1529
 Red. masses --      1.9615                 1.5902                 1.6311
 Frc consts  --      1.5609                 1.3586                 1.4260
 IR Inten    --     15.2283                11.5549                27.9395

                     49                     50                     51
                      A                      A                      A
 Frequencies --   1250.3003              1273.9542              1287.1180
 Red. masses --      1.6661                 1.9388                 1.4873
 Frc consts  --      1.5345                 1.8539                 1.4518
 IR Inten    --     86.0445                 4.5289                 6.8429

                     52                     53                     54
                      A                      A                      A
 Frequencies --   1293.4422              1316.3731              1343.7502
 Red. masses --      1.5084                 1.4053                 1.4660
 Frc consts  --      1.4869                 1.4348                 1.5596
 IR Inten    --     53.3684                70.4206               151.6589

                     55                     56                     57
                      A                      A                      A
 Frequencies --   1354.9459              1369.4109              1395.7754
 Red. masses --      1.5924                 1.4851                 1.4344
 Frc consts  --      1.7224                 1.6409                 1.6464
 IR Inten    --    116.1834                12.2463                 2.6508

                     58                     59                     60
                      A                      A                      A
 Frequencies --   1403.9942              1415.4570              1420.9190
 Red. masses --      3.1289                 1.8841                 1.3021
 Frc consts  --      3.6339                 2.2241                 1.5489
 IR Inten    --      8.7180               135.7805                 2.6201

                     61                     62                     63
                      A                      A                      A
 Frequencies --   1444.8530              1499.4609              1502.3498
 Red. masses --      2.8618                 1.0967                 1.3028
 Frc consts  --      3.5199                 1.4528                 1.7325
 IR Inten    --     28.8010                14.9694                16.6051

                     64                     65                     66
                      A                      A                      A
 Frequencies --   1517.0990              1518.2923              1533.0055
 Red. masses --      2.6045                 1.0790                 2.1784
 Frc consts  --      3.5319                 1.4655                 3.0162
 IR Inten    --     53.3305                17.8905               314.4767

                     67                     68                     69
                      A                      A                      A
 Frequencies --   1605.5513              1614.7047              1701.3003
 Red. masses --      1.1550                 4.1325                 1.0553
 Frc consts  --      1.7542                 6.3481                 1.7996
 IR Inten    --    112.4432                 7.8409                58.5189

                     70                     71                     72
                      A                      A                      A
 Frequencies --   1713.1100              1776.4745              1809.1228
 Red. masses --      1.0513                 7.7563                 8.9974
 Frc consts  --      1.8178                14.4220                17.3502
 IR Inten    --     29.4470               203.1703               391.4308

                     73                     74                     75
                      A                      A                      A
 Frequencies --   2892.6517              3044.4022              3061.0877
 Red. masses --      1.0833                 1.0850                 1.0622
 Frc consts  --      5.3408                 5.9251                 5.8641
 IR Inten    --   1171.1690                10.6972                14.8278

                     76                     77                     78
                      A                      A                      A
 Frequencies --   3076.4450              3107.9916              3123.2744
 Red. masses --      1.0637                 1.1028                 1.0642
 Frc consts  --      5.9316                 6.2761                 6.1165
 IR Inten    --      7.2718                 7.0053                 1.9677

                     79                     80                     81
                      A                      A                      A
 Frequencies --   3134.1772              3188.0245              3244.6453
 Red. masses --      1.0979                 1.1119                 1.0961
 Frc consts  --      6.3542                 6.6583                 6.7986
 IR Inten    --      2.4634                 0.2479                 4.7389

                     82                     83                     84
                      A                      A                      A
 Frequencies --   3277.5355              3441.0005              3503.9075
 Red. masses --      1.0980                 1.0549                 1.0931
 Frc consts  --      6.9497                 7.3592                 7.9068
 IR Inten    --      0.5623                85.1615                70.1013

                     85                     86                     87
                      A                      A                      A
 Frequencies --   3540.9132              3633.7083              3718.9521
 Red. masses --      1.0792                 1.0813                 1.0664
 Frc consts  --      7.9722                 8.4117                 8.6896
 IR Inten    --    167.4683                52.1563                63.7009

 - Thermochemistry -
 -------------------
 Temperature   298.150 Kelvin.  Pressure   1.00000 Atm.
 Atom     1 has atomic number  8 and mass  15.99491

 Molecular mass:   227.11442 amu.
 Principal axes and moments of inertia in atomic units:
                           1         2         3
     Eigenvalues --  2332.070275444.094496628.94874
           X            0.98102  -0.08108   0.17613
           Y           -0.19349  -0.46790   0.86234
           Z           -0.01250   0.88006   0.47471
 This molecule is an asymmetric top.
 Rotational symmetry number  1.
 Warning -- assumption of classical behavior for rotation
           may cause significant error
 Rotational temperatures (Kelvin)      0.03714     0.01591     0.01307
 Rotational constants (GHZ):           0.77388     0.33150     0.27225
 Zero-point vibrational energy     684178.8 (Joules/Mol)
                                  163.52265 (Kcal/Mol)
 Warning -- explicit consideration of  22 degrees of freedom as
           vibrations may cause significant error
 Vibrational temperatures:     46.56    57.97    88.09    98.24   116.61
          (Kelvin)            164.38   214.02   228.98   253.72   323.72
                              361.79   399.42   457.51   471.82   495.00
                              544.73   605.77   632.29   732.82   741.80
                              758.93   782.47   905.59   936.63   975.34
                             1000.43  1021.28  1063.53  1117.58  1200.11
                             1208.87  1217.46  1246.24  1264.27  1334.57
                             1345.28  1377.22  1382.39  1449.19  1461.30
                             1505.48  1583.96  1609.06  1620.58  1655.18
                             1672.13  1732.51  1752.65  1798.90  1832.93
                             1851.87  1860.97  1893.96  1933.35  1949.46
                             1970.27  2008.21  2020.03  2036.52  2044.38
                             2078.82  2157.39  2161.54  2182.76  2184.48
                             2205.65  2310.03  2323.20  2447.79  2464.78
                             2555.95  2602.92  4161.88  4380.21  4404.22
                             4426.31  4471.70  4493.69  4509.38  4586.85
                             4668.32  4715.64  4950.83  5041.34  5094.58
                             5228.09  5350.74

 Zero-point correction=                           0.260590 (Hartree/Particle)
 Thermal correction to Energy=                    0.276153
 Thermal correction to Enthalpy=                  0.277097
 Thermal correction to Gibbs Free Energy=         0.216365
 Sum of electronic and zero-point Energies=           -796.199828
 Sum of electronic and thermal Energies=              -796.184265
 Sum of electronic and thermal Enthalpies=            -796.183321
 Sum of electronic and thermal Free Energies=         -796.244053

                     E (Thermal)             CV                S
                      KCal/Mol        Cal/Mol-Kelvin    Cal/Mol-Kelvin
 Total                  173.289             58.100            127.822
 Electronic               0.000              0.000              0.000
 Translational            0.889              2.981             42.163
 Rotational               0.889              2.981             32.798
 Vibrational            171.511             52.138             52.861
 Vibration     1          0.594              1.983              5.679
 Vibration     2          0.594              1.981              5.245
 Vibration     3          0.597              1.973              4.417
 Vibration     4          0.598              1.969              4.202
 Vibration     5          0.600              1.962              3.865
 Vibration     6          0.607              1.938              3.195
 Vibration     7          0.618              1.904              2.688
 Vibration     8          0.621              1.892              2.560
 Vibration     9          0.628              1.872              2.367
 Vibration    10          0.650              1.803              1.919
 Vibration    11          0.663              1.760              1.720
 Vibration    12          0.679              1.715              1.548
 Vibration    13          0.704              1.639              1.320
 Vibration    14          0.711              1.620              1.270
 Vibration    15          0.723              1.587              1.193
 Vibration    16          0.749              1.516              1.045
 Vibration    17          0.784              1.425              0.888
 Vibration    18          0.799              1.384              0.828
 Vibration    19          0.864              1.229              0.635
 Vibration    20          0.871              1.215              0.620
 Vibration    21          0.882              1.189              0.593
 Vibration    22          0.899              1.153              0.557

 Optimization completed.
    -- Stationary point found.
 Normal termination of Gaussian 09 at Wed Jul 28 23:01:02 2021.
