 Gaussian 09, Revision D.01,
 Gaussian 09:  ES64L-G09RevD.01 24-Apr-2013

 ----------------------------------------------------------------------
 # B3LYP/6-311++G(2df,2pd) EmpiricalDispersion=GD3BJ guess=read geom=ch
 eckpoint opt=readfc freq=noraman nosymm integral(ultrafinegrid)
 ----------------------------------------------------------------------

 ------------------------------------------------------------
 Candidate Structure: Conf:301 OPT and FREQ calc in gas phase
 ------------------------------------------------------------
 Structure from the checkpoint file:  "conf-301.chk"
 Charge =  1 Multiplicity = 1

 SCF Done:  E(RB3LYP) =  -796.838154220     A.U. after   14 cycles
 SCF Done:  E(RB3LYP) =  -796.838902703     A.U. after   12 cycles
 SCF Done:  E(RB3LYP) =  -796.838907848     A.U. after   11 cycles
 SCF Done:  E(RB3LYP) =  -796.838907927     A.U. after    8 cycles
 Optimization completed.
    -- Stationary point found.
 Normal termination of Gaussian 09 at Thu Jul 29 03:56:47 2021.

 ----------------------------------------------------------------------
 #N Geom=AllCheck Guess=TCheck SCRF=Check GenChk RB3LYP/6-311++G(2df,2p
 d) Freq
 ----------------------------------------------------------------------

 Structure from the checkpoint file:  "conf-301.chk"
 ------------------------------------------------------------
 Candidate Structure: Conf:301 OPT and FREQ calc in gas phase
 ------------------------------------------------------------
 Charge =  1 Multiplicity = 1

                          Input orientation:
 ---------------------------------------------------------------------
 Center     Atomic      Atomic             Coordinates (Angstroms)
 Number     Number       Type             X           Y           Z
 ---------------------------------------------------------------------
      1          8           0       -0.040285   -0.244289   -1.664795
      2          6           0        0.406229    0.695550   -1.001533
      3          7           0       -0.367845    1.482974   -0.240491
      4          6           0       -1.728284    1.138820    0.109637
      5          6           0       -2.476313    2.425827    0.406309
      6          8           0       -3.798265    2.230075    0.417929
      7          8           0       -1.930529    3.468910    0.648353
      8          6           0       -1.775690    0.221970    1.383506
      9          6           0       -0.857072   -0.936583    1.255271
     10          6           0        0.493968   -1.024415    1.468451
     11          7           0        0.990008   -2.205008    0.959186
     12          6           0       -0.055291   -2.848288    0.474036
     13          7           0       -1.187780   -2.120442    0.632579
     14          6           0        1.901591    0.994629   -0.951176
     15          6           0        2.749573   -0.017584   -1.715502
     16          7           0        2.280519   -1.424263   -1.465710
     17          1           0        0.015136    2.298824    0.215775
     18          1           0       -2.188949    0.622738   -0.728722
     19          1           0       -4.237041    3.061997    0.655023
     20          1           0       -1.476985    0.818144    2.245681
     21          1           0       -2.807590   -0.087003    1.545651
     22          1           0        1.130595   -0.306918    1.956603
     23          1           0       -0.046277   -3.826486    0.024266
     24          1           0       -2.110101   -2.396360    0.337323
     25          1           0        2.207904    1.033542    0.094153
     26          1           0        2.094686    1.984481   -1.367810
     27          1           0        2.670856    0.137301   -2.788687
     28          1           0        3.794293    0.058448   -1.427909
     29          1           0        2.835771   -2.106345   -1.976356
     30          1           0        1.290073   -1.423384   -1.781768
     31          1           0        2.223285   -1.707275   -0.463600
 ---------------------------------------------------------------------

 SCF Done:  E(RB3LYP) =  -796.838907927     A.U. after    1 cycles

 Alpha  occ. eigenvalues --  -19.29979 -19.24703 -19.24421 -14.56070 -14.50500
 Alpha  occ. eigenvalues --  -14.48544 -14.43881 -10.43498 -10.43030 -10.38781
 Alpha  occ. eigenvalues --  -10.36586 -10.36333 -10.34415 -10.34182 -10.32585
 Alpha  occ. eigenvalues --  -10.31827  -1.24314  -1.20080  -1.15813  -1.15658
 Alpha  occ. eigenvalues --   -1.13827  -1.08269  -1.01440  -0.95400  -0.93240
 Alpha  occ. eigenvalues --   -0.88765  -0.83028  -0.81060  -0.76195  -0.75503
 Alpha  occ. eigenvalues --   -0.73945  -0.73329  -0.72704  -0.71694  -0.68453
 Alpha  occ. eigenvalues --   -0.66559  -0.64493  -0.63622  -0.62267  -0.61702
 Alpha  occ. eigenvalues --   -0.60757  -0.59552  -0.59042  -0.57687  -0.56468
 Alpha  occ. eigenvalues --   -0.55731  -0.55373  -0.54847  -0.54576  -0.53886
 Alpha  occ. eigenvalues --   -0.53189  -0.51342  -0.50669  -0.45716  -0.43668
 Alpha  occ. eigenvalues --   -0.42571  -0.42205  -0.41511  -0.41148  -0.36895
 Alpha virt. eigenvalues --   -0.14742  -0.14328  -0.14046  -0.12105  -0.11744
 Alpha virt. eigenvalues --   -0.11311  -0.10205  -0.10010  -0.09638  -0.08899
 Alpha virt. eigenvalues --   -0.08191  -0.07684  -0.07420  -0.06716  -0.05914

 Mulliken charges:
               1
     1  O   -0.380041
     2  C   -0.157379
     3  N    0.180611
     4  C   -0.161067
     5  C    0.281663
     6  O   -0.164816
     7  O   -0.339720
     8  C   -0.435898
     9  C    0.515661
    10  C   -0.330196
    11  N   -0.245846
    12  C    0.043746
    13  N    0.052690
    14  C    0.178473
    15  C   -0.299970
    16  N    0.215764
    17  H    0.160295
    18  H    0.115763
    19  H    0.253732
    20  H    0.099096
    21  H    0.092066
    22  H    0.107351
    23  H    0.128456
    24  H    0.154595
    25  H    0.104373
    26  H    0.086138
    27  H    0.097137
    28  H    0.102027
    29  H    0.179587
    30  H    0.190545
    31  H    0.175163
 Sum of Mulliken charges =   1.00000

 Dipole moment (field-independent basis, Debye):
    X=              2.7797    Y=             -2.3890    Z=             -3.1906  Tot=              4.8594
 Quadrupole moment (field-independent basis, Debye-Ang):
   XX=            -50.1234   YY=            -75.0192   ZZ=            -84.4617
   XY=             -5.8637   XZ=            -19.8156   YZ=              7.9834

  Exact polarizability: 152.750 -14.796 150.322 -14.357   9.127 111.107
 Approx polarizability: 225.063  -3.195 225.164  -1.951  27.869 174.935

                      1                      2                      3
                      A                      A                      A
 Frequencies --     55.3161                65.1785                98.8507
 Red. masses --     10.7570                 4.6936                 4.9932
 Frc consts  --      0.0194                 0.0117                 0.0287
 IR Inten    --      1.7159                 0.3936                 5.5169

                      4                      5                      6
                      A                      A                      A
 Frequencies --    106.5410               112.6003               123.8675
 Red. masses --      3.6177                 5.1818                 3.5138
 Frc consts  --      0.0242                 0.0387                 0.0318
 IR Inten    --      5.5323                 1.6313                14.6052

                      7                      8                      9
                      A                      A                      A
 Frequencies --    148.6472               155.6455               172.8393
 Red. masses --      4.3234                 4.1770                 4.2780
 Frc consts  --      0.0563                 0.0596                 0.0753
 IR Inten    --      9.5645                11.8949                 5.1613

                     10                     11                     12
                      A                      A                      A
 Frequencies --    199.9188               260.6878               308.5710
 Red. masses --      2.5720                 4.5025                 5.6093
 Frc consts  --      0.0606                 0.1803                 0.3147
 IR Inten    --     34.4009                44.3229                 0.7868

                     13                     14                     15
                      A                      A                      A
 Frequencies --    316.2337               343.5417               353.1777
 Red. masses --      3.5052                 2.7539                 2.4472
 Frc consts  --      0.2065                 0.1915                 0.1798
 IR Inten    --      2.1210                14.2615                25.0219

                     16                     17                     18
                      A                      A                      A
 Frequencies --    392.6648               418.7785               444.7823
 Red. masses --      2.0176                 2.7173                 2.1774
 Frc consts  --      0.1833                 0.2808                 0.2538
 IR Inten    --     21.9231                 5.8378                 3.0617

                     19                     20                     21
                      A                      A                      A
 Frequencies --    545.0988               553.0899               597.5135
 Red. masses --      2.0615                 3.4484                 1.5295
 Frc consts  --      0.3609                 0.6215                 0.3217
 IR Inten    --     47.7891                19.2568               160.7539

                     22                     23                     24
                      A                      A                      A
 Frequencies --    609.6179               620.3044               637.3447
 Red. masses --      1.2916                 1.5112                 3.8069
 Frc consts  --      0.2828                 0.3426                 0.9111
 IR Inten    --      5.7441                14.0563                77.2967

                     25                     26                     27
                      A                      A                      A
 Frequencies --    679.3348               691.4032               694.4509
 Red. masses --      2.7337                 2.9205                 3.1319
 Frc consts  --      0.7433                 0.8226                 0.8899
 IR Inten    --     63.2449                13.2985                 1.1174

                     28                     29                     30
                      A                      A                      A
 Frequencies --    725.2745               775.2724               838.9915
 Red. masses --      3.4762                 4.3425                 1.4377
 Frc consts  --      1.0773                 1.5378                 0.5962
 IR Inten    --      1.6133                12.1722                11.0395

                     31                     32                     33
                      A                      A                      A
 Frequencies --    847.7709               851.0987               867.2773
 Red. masses --      1.7342                 2.0277                 2.2040
 Frc consts  --      0.7344                 0.8654                 0.9767
 IR Inten    --     34.0741                 9.2253                22.2937

                     34                     35                     36
                      A                      A                      A
 Frequencies --    882.7673               923.3634               951.5946
 Red. masses --      2.1129                 2.6378                 5.2395
 Frc consts  --      0.9701                 1.3251                 2.7954
 IR Inten    --      2.8758                13.3628                11.6007

                     37                     38                     39
                      A                      A                      A
 Frequencies --    966.2275               976.8556              1004.9981
 Red. masses --      1.6057                 2.9995                 3.1220
 Frc consts  --      0.8832                 1.6864                 1.8579
 IR Inten    --     10.6675                 4.6127                 9.0798

                     40                     41                     42
                      A                      A                      A
 Frequencies --   1033.6006              1046.5385              1096.9086
 Red. masses --      3.5894                 2.9582                 2.1325
 Frc consts  --      2.2593                 1.9089                 1.5117
 IR Inten    --      3.0150                20.7127                 7.3453

                     43                     44                     45
                      A                      A                      A
 Frequencies --   1125.2500              1131.5615              1134.8012
 Red. masses --      1.5246                 1.5710                 1.8867
 Frc consts  --      1.1373                 1.1851                 1.4315
 IR Inten    --     95.4080                12.4583                35.1485

                     46                     47                     48
                      A                      A                      A
 Frequencies --   1145.1910              1167.1411              1205.7858
 Red. masses --      1.7609                 2.0588                 1.7770
 Frc consts  --      1.3606                 1.6524                 1.5222
 IR Inten    --      7.6965               217.8276                 4.7062

                     49                     50                     51
                      A                      A                      A
 Frequencies --   1252.9672              1258.4086              1280.3214
 Red. masses --      1.6240                 1.6597                 1.6785
 Frc consts  --      1.5022                 1.5485                 1.6211
 IR Inten    --      1.6631                26.4568                 1.7267

                     52                     53                     54
                      A                      A                      A
 Frequencies --   1287.9093              1289.5161              1332.7848
 Red. masses --      1.3638                 1.4891                 1.3312
 Frc consts  --      1.3329                 1.4589                 1.3932
 IR Inten    --      8.9773                 1.8551                27.0576

                     55                     56                     57
                      A                      A                      A
 Frequencies --   1342.1421              1352.9561              1386.8716
 Red. masses --      1.4259                 1.2619                 1.6558
 Frc consts  --      1.5133                 1.3610                 1.8764
 IR Inten    --     19.1011                 5.8451                66.8794

                     58                     59                     60
                      A                      A                      A
 Frequencies --   1393.5273              1418.3706              1427.0183
 Red. masses --      3.2201                 2.2399                 1.3480
 Frc consts  --      3.6843                 2.6550                 1.6173
 IR Inten    --      7.0443               122.7687                11.5374

                     61                     62                     63
                      A                      A                      A
 Frequencies --   1432.2027              1468.9928              1482.4966
 Red. masses --      2.5609                 1.1008                 1.2849
 Frc consts  --      3.0950                 1.3996                 1.6638
 IR Inten    --     28.7703                32.5618               141.2570

                     64                     65                     66
                      A                      A                      A
 Frequencies --   1490.7459              1500.4664              1509.8399
 Red. masses --      1.1362                 2.5696                 1.0869
 Frc consts  --      1.4877                 3.4085                 1.4598
 IR Inten    --     34.3220                45.3806                10.1477

                     67                     68                     69
                      A                      A                      A
 Frequencies --   1560.5130              1609.6987              1635.7299
 Red. masses --      2.2654                 4.1230                 1.1422
 Frc consts  --      3.2503                 6.2943                 1.8006
 IR Inten    --    203.9589                 7.9013               128.6192

                     70                     71                     72
                      A                      A                      A
 Frequencies --   1685.7005              1704.7548              1817.0183
 Red. masses --      1.1398                 3.3641                10.1951
 Frc consts  --      1.9083                 5.7603                19.8317
 IR Inten    --    179.0148                92.4292               282.4657

                     73                     74                     75
                      A                      A                      A
 Frequencies --   3061.6288              3063.3890              3082.1239
 Red. masses --      1.0612                 1.0605                 1.0799
 Frc consts  --      5.8609                 5.8633                 6.0441
 IR Inten    --      0.7988                 5.8296               390.9328

                     76                     77                     78
                      A                      A                      A
 Frequencies --   3094.2871              3100.8085              3106.2788
 Red. masses --      1.0803                 1.0843                 1.0994
 Frc consts  --      6.0943                 6.1427                 6.2502
 IR Inten    --     79.3979                 5.9390                 1.1412

                     79                     80                     81
                      A                      A                      A
 Frequencies --   3122.2185              3143.3509              3153.6504
 Red. masses --      1.0903                 1.0842                 1.0867
 Frc consts  --      6.2623                 6.3114                 6.3678
 IR Inten    --      4.8524               174.1793               144.4273

                     82                     83                     84
                      A                      A                      A
 Frequencies --   3244.5213              3254.2872              3514.4198
 Red. masses --      1.0966                 1.1001                 1.0784
 Frc consts  --      6.8013                 6.8641                 7.8473
 IR Inten    --      1.5746                 4.0292               103.9502

                     85                     86                     87
                      A                      A                      A
 Frequencies --   3582.3827              3638.9307              3735.7919
 Red. masses --      1.0778                 1.0819                 1.0645
 Frc consts  --      8.1494                 8.4411                 8.7534
 IR Inten    --     92.4927                88.0808               142.6839

 - Thermochemistry -
 -------------------
 Temperature   298.150 Kelvin.  Pressure   1.00000 Atm.
 Atom     1 has atomic number  8 and mass  15.99491

 Molecular mass:   227.11442 amu.
 Principal axes and moments of inertia in atomic units:
                           1         2         3
     Eigenvalues --  2175.522374474.744295854.02004
           X            0.73337   0.47037   0.49083
           Y           -0.64946   0.69813   0.30135
           Z           -0.20092  -0.53978   0.81748
 This molecule is an asymmetric top.
 Rotational symmetry number  1.
 Warning -- assumption of classical behavior for rotation
           may cause significant error
 Rotational temperatures (Kelvin)      0.03981     0.01936     0.01480
 Rotational constants (GHZ):           0.82957     0.40332     0.30829
 Zero-point vibrational energy     683207.0 (Joules/Mol)
                                  163.29039 (Kcal/Mol)
 Warning -- explicit consideration of  23 degrees of freedom as
           vibrations may cause significant error
 Vibrational temperatures:     79.59    93.78   142.22   153.29   162.01
          (Kelvin)            178.22   213.87   223.94   248.68   287.64
                              375.07   443.96   454.99   494.28   508.14
                              564.96   602.53   639.94   784.27   795.77
                              859.69   877.10   892.48   917.00   977.41
                              994.77   999.16  1043.51  1115.44  1207.12
                             1219.75  1224.54  1247.82  1270.10  1328.51
                             1369.13  1390.18  1405.48  1445.97  1487.12
                             1505.73  1578.20  1618.98  1628.06  1632.72
                             1647.67  1679.25  1734.85  1802.74  1810.57
                             1842.09  1853.01  1855.32  1917.58  1931.04
                             1946.60  1995.40  2004.97  2040.72  2053.16
                             2060.62  2113.55  2132.98  2144.85  2158.83
                             2172.32  2245.23  2315.99  2353.45  2425.34
                             2452.76  2614.28  4405.00  4407.53  4434.48
                             4451.98  4461.37  4469.24  4492.17  4522.58
                             4537.39  4668.14  4682.19  5056.46  5154.24
                             5235.60  5374.96

 Zero-point correction=                           0.260220 (Hartree/Particle)
 Thermal correction to Energy=                    0.275303
 Thermal correction to Enthalpy=                  0.276247
 Thermal correction to Gibbs Free Energy=         0.218119
 Sum of electronic and zero-point Energies=           -796.578688
 Sum of electronic and thermal Energies=              -796.563605
 Sum of electronic and thermal Enthalpies=            -796.562661
 Sum of electronic and thermal Free Energies=         -796.620789

                     E (Thermal)             CV                S
                      KCal/Mol        Cal/Mol-Kelvin    Cal/Mol-Kelvin
 Total                  172.755             57.615            122.341
 Electronic               0.000              0.000              0.000
 Translational            0.889              2.981             42.163
 Rotational               0.889              2.981             32.411
 Vibrational            170.978             51.653             47.768
 Vibration     1          0.596              1.975              4.618
 Vibration     2          0.597              1.971              4.294
 Vibration     3          0.604              1.950              3.477
 Vibration     4          0.605              1.944              3.331
 Vibration     5          0.607              1.939              3.224
 Vibration     6          0.610              1.929              3.039
 Vibration     7          0.618              1.904              2.689
 Vibration     8          0.620              1.896              2.602
 Vibration     9          0.626              1.876              2.404
 Vibration    10          0.638              1.840              2.134
 Vibration    11          0.669              1.745              1.657
 Vibration    12          0.698              1.657              1.370
 Vibration    13          0.703              1.643              1.330
 Vibration    14          0.722              1.588              1.196
 Vibration    15          0.729              1.569              1.152
 Vibration    16          0.760              1.486              0.990
 Vibration    17          0.782              1.429              0.896
 Vibration    18          0.804              1.372              0.812
 Vibration    19          0.900              1.150              0.554
 Vibration    20          0.908              1.133              0.538
 Vibration    21          0.955              1.037              0.454
 Vibration    22          0.969              1.011              0.433
 Vibration    23          0.980              0.989              0.416

 Optimization completed.
    -- Stationary point found.
 Normal termination of Gaussian 09 at Thu Jul 29 12:03:58 2021.
