 Gaussian 09, Revision D.01,
 Gaussian 09:  ES64L-G09RevD.01 24-Apr-2013

 ----------------------------------------------------------------------
 # B3LYP/6-311++G(2df,2pd) EmpiricalDispersion=GD3BJ guess=read geom=ch
 eckpoint opt=readfc freq=noraman nosymm integral(ultrafinegrid)
 ----------------------------------------------------------------------

 ------------------------------------------------------------
 Candidate Structure: Conf:862 OPT and FREQ calc in gas phase
 ------------------------------------------------------------
 Structure from the checkpoint file:  "conf-862.chk"
 Charge =  1 Multiplicity = 1

 SCF Done:  E(RB3LYP) =  -796.834293383     A.U. after   13 cycles
 SCF Done:  E(RB3LYP) =  -796.835067232     A.U. after   12 cycles
 SCF Done:  E(RB3LYP) =  -796.835074643     A.U. after   10 cycles
 SCF Done:  E(RB3LYP) =  -796.835074785     A.U. after    9 cycles
 SCF Done:  E(RB3LYP) =  -796.835074794     A.U. after    8 cycles
 Optimization completed.
    -- Stationary point found.
 Normal termination of Gaussian 09 at Thu Jul 29 04:26:48 2021.

 ----------------------------------------------------------------------
 #N Geom=AllCheck Guess=TCheck SCRF=Check GenChk RB3LYP/6-311++G(2df,2p
 d) Freq
 ----------------------------------------------------------------------

 Structure from the checkpoint file:  "conf-862.chk"
 ------------------------------------------------------------
 Candidate Structure: Conf:862 OPT and FREQ calc in gas phase
 ------------------------------------------------------------
 Charge =  1 Multiplicity = 1

                          Input orientation:
 ---------------------------------------------------------------------
 Center     Atomic      Atomic             Coordinates (Angstroms)
 Number     Number       Type             X           Y           Z
 ---------------------------------------------------------------------
      1          8           0       -0.722007    1.802730   -0.145778
      2          6           0        0.330259    1.250768    0.175030
      3          7           0        0.488013    0.577265    1.327375
      4          6           0       -0.626223    0.177886    2.159815
      5          6           0       -0.166641    0.175027    3.604477
      6          8           0       -1.203000    0.192321    4.446692
      7          8           0        0.988623    0.101280    3.930967
      8          6           0       -1.154373   -1.269624    1.797653
      9          6           0       -0.886570   -1.599955    0.371821
     10          6           0       -1.380913   -1.071164   -0.786853
     11          7           0       -0.601146   -1.444015   -1.863699
     12          6           0        0.332886   -2.237219   -1.374173
     13          7           0        0.204071   -2.352026   -0.029457
     14          6           0        1.522858    1.213919   -0.775657
     15          6           0        1.193283    1.763623   -2.160019
     16          7           0       -0.118135    1.224533   -2.663854
     17          1           0        1.399311    0.240450    1.600670
     18          1           0       -1.429157    0.894514    2.017457
     19          1           0       -0.871528    0.136263    5.356603
     20          1           0       -2.217730   -1.309380    2.021890
     21          1           0       -0.668587   -2.003571    2.441510
     22          1           0       -2.220760   -0.408389   -0.896002
     23          1           0        1.094891   -2.745682   -1.939594
     24          1           0        0.768216   -2.934516    0.568379
     25          1           0        1.873052    0.184233   -0.849683
     26          1           0        2.347488    1.797561   -0.363249
     27          1           0        1.969549    1.500097   -2.872878
     28          1           0        1.089816    2.845267   -2.138029
     29          1           0       -0.184231    0.174389   -2.639500
     30          1           0       -0.331727    1.559603   -3.600149
     31          1           0       -0.819485    1.564022   -1.983569
 ---------------------------------------------------------------------

 SCF Done:  E(RB3LYP) =  -796.835074794     A.U. after    1 cycles

 Alpha  occ. eigenvalues --  -19.29862 -19.24422 -19.24300 -14.55934 -14.51234
 Alpha  occ. eigenvalues --  -14.48526 -14.44672 -10.43379 -10.42836 -10.38667
 Alpha  occ. eigenvalues --  -10.37021 -10.36453 -10.34597 -10.34329 -10.32764
 Alpha  occ. eigenvalues --  -10.32194  -1.24196  -1.19874  -1.16454  -1.15512
 Alpha  occ. eigenvalues --   -1.13676  -1.08163  -1.02051  -0.95353  -0.93183
 Alpha  occ. eigenvalues --   -0.88970  -0.82989  -0.81177  -0.76503  -0.75742
 Alpha  occ. eigenvalues --   -0.74260  -0.73406  -0.72478  -0.71676  -0.68637
 Alpha  occ. eigenvalues --   -0.66655  -0.64414  -0.63378  -0.62554  -0.61801
 Alpha  occ. eigenvalues --   -0.60505  -0.59447  -0.59268  -0.58214  -0.56538
 Alpha  occ. eigenvalues --   -0.55893  -0.55612  -0.54704  -0.54520  -0.54044
 Alpha  occ. eigenvalues --   -0.53056  -0.51108  -0.50719  -0.45634  -0.44180
 Alpha  occ. eigenvalues --   -0.43074  -0.42412  -0.41363  -0.41162  -0.37197
 Alpha virt. eigenvalues --   -0.14793  -0.14319  -0.14117  -0.12663  -0.12221
 Alpha virt. eigenvalues --   -0.10960  -0.10410  -0.10157  -0.09249  -0.09229
 Alpha virt. eigenvalues --   -0.08440  -0.07723  -0.06959  -0.06575  -0.06319

 Mulliken charges:
               1
     1  O   -0.415390
     2  C    0.021894
     3  N    0.198700
     4  C   -0.346562
     5  C    0.331744
     6  O   -0.152431
     7  O   -0.353591
     8  C   -0.136965
     9  C    0.262228
    10  C   -0.279115
    11  N   -0.273618
    12  C   -0.033684
    13  N    0.062624
    14  C    0.132959
    15  C   -0.267722
    16  N    0.183118
    17  H    0.148869
    18  H    0.124922
    19  H    0.249458
    20  H    0.119500
    21  H    0.057490
    22  H    0.118892
    23  H    0.133815
    24  H    0.168996
    25  H    0.081047
    26  H    0.092487
    27  H    0.093920
    28  H    0.104517
    29  H    0.220503
    30  H    0.183114
    31  H    0.168280
 Sum of Mulliken charges =   1.00000

 Dipole moment (field-independent basis, Debye):
    X=              2.2216    Y=              0.2063    Z=             -3.3146  Tot=              3.9956
 Quadrupole moment (field-independent basis, Debye-Ang):
   XX=            -85.1170   YY=            -75.7370   ZZ=            -52.5540
   XY=             -0.0776   XZ=            -11.4663   YZ=            -16.2232

  Exact polarizability: 123.769  -2.411 120.846  -7.440  -7.136 166.652
 Approx polarizability: 213.051 -22.683 180.464  -0.186 -13.826 229.553

                      1                      2                      3
                      A                      A                      A
 Frequencies --     27.9198                53.5611                90.4121
 Red. masses --      4.6861                 8.9474                 4.2732
 Frc consts  --      0.0022                 0.0151                 0.0206
 IR Inten    --      2.9028                 1.3185                 0.1578

                      4                      5                      6
                      A                      A                      A
 Frequencies --    106.8880               114.7537               127.0825
 Red. masses --      4.5198                 5.2194                 3.8617
 Frc consts  --      0.0304                 0.0405                 0.0367
 IR Inten    --     11.2688                 1.9908                 8.5756

                      7                      8                      9
                      A                      A                      A
 Frequencies --    142.3455               155.1417               184.0633
 Red. masses --      4.0842                 4.8118                 3.9063
 Frc consts  --      0.0488                 0.0682                 0.0780
 IR Inten    --     15.1706                10.8553                12.6538

                     10                     11                     12
                      A                      A                      A
 Frequencies --    198.4026               260.4389               306.8055
 Red. masses --      2.5046                 4.4002                 5.7067
 Frc consts  --      0.0581                 0.1758                 0.3165
 IR Inten    --     31.5441                37.3885                 1.8221

                     13                     14                     15
                      A                      A                      A
 Frequencies --    314.4133               336.5691               350.9607
 Red. masses --      2.3885                 4.2069                 4.0215
 Frc consts  --      0.1391                 0.2808                 0.2918
 IR Inten    --      5.0446                14.9550                30.5550

                     16                     17                     18
                      A                      A                      A
 Frequencies --    409.4043               437.7573               459.3206
 Red. masses --      3.1071                 1.9536                 1.5045
 Frc consts  --      0.3068                 0.2206                 0.1870
 IR Inten    --      8.4012                13.1449                 2.0555

                     19                     20                     21
                      A                      A                      A
 Frequencies --    537.6352               553.3605               601.1903
 Red. masses --      1.8987                 3.5812                 1.6761
 Frc consts  --      0.3234                 0.6461                 0.3569
 IR Inten    --     68.4656                23.6425               126.9808

                     22                     23                     24
                      A                      A                      A
 Frequencies --    620.0562               624.9075               637.6522
 Red. masses --      1.3582                 1.7898                 2.7236
 Frc consts  --      0.3077                 0.4118                 0.6525
 IR Inten    --     45.1201                 6.3089                73.9050

                     25                     26                     27
                      A                      A                      A
 Frequencies --    685.0571               689.2284               693.5176
 Red. masses --      2.8878                 3.1423                 2.5134
 Frc consts  --      0.7985                 0.8795                 0.7122
 IR Inten    --     45.4146                 5.5163                 7.2458

                     28                     29                     30
                      A                      A                      A
 Frequencies --    726.0440               773.9665               833.6409
 Red. masses --      3.2470                 4.3683                 1.6009
 Frc consts  --      1.0084                 1.5417                 0.6555
 IR Inten    --      6.5399                18.1258                 5.6053

                     31                     32                     33
                      A                      A                      A
 Frequencies --    843.8880               855.3221               873.9828
 Red. masses --      2.1857                 1.9588                 1.9263
 Frc consts  --      0.9171                 0.8443                 0.8669
 IR Inten    --     15.7496                20.0733                11.9778

                     34                     35                     36
                      A                      A                      A
 Frequencies --    883.4292               930.7296               951.7836
 Red. masses --      1.8814                 2.7746                 3.6818
 Frc consts  --      0.8651                 1.4161                 1.9651
 IR Inten    --      9.4057                10.9310                 4.2453

                     37                     38                     39
                      A                      A                      A
 Frequencies --    957.8907               983.2903              1001.1852
 Red. masses --      4.8111                 1.5294                 3.1001
 Frc consts  --      2.6009                 0.8712                 1.8309
 IR Inten    --      8.7047                 2.3319                14.1496

                     40                     41                     42
                      A                      A                      A
 Frequencies --   1034.8637              1044.6519              1101.4816
 Red. masses --      3.3054                 3.1509                 2.2336
 Frc consts  --      2.0856                 2.0259                 1.5967
 IR Inten    --      6.8901                11.3494                14.6133

                     43                     44                     45
                      A                      A                      A
 Frequencies --   1126.3227              1130.7367              1135.2531
 Red. masses --      1.5666                 1.7040                 2.1249
 Frc consts  --      1.1709                 1.2836                 1.6135
 IR Inten    --    102.5830                11.2610                18.8831

                     46                     47                     48
                      A                      A                      A
 Frequencies --   1149.4122              1162.0030              1203.3680
 Red. masses --      1.4200                 1.9100                 1.8531
 Frc consts  --      1.1054                 1.5195                 1.5811
 IR Inten    --     33.4880               162.6114                42.1231

                     49                     50                     51
                      A                      A                      A
 Frequencies --   1249.3762              1255.2987              1281.0215
 Red. masses --      1.8317                 1.6806                 1.4366
 Frc consts  --      1.6846                 1.5603                 1.3890
 IR Inten    --      5.9460                 8.3371                 5.2800

                     52                     53                     54
                      A                      A                      A
 Frequencies --   1287.1366              1302.9181              1336.0641
 Red. masses --      1.3289                 1.5650                 1.6114
 Frc consts  --      1.2972                 1.5653                 1.6948
 IR Inten    --     14.4430                 6.1481                 1.2906

                     55                     56                     57
                      A                      A                      A
 Frequencies --   1342.7323              1353.2619              1389.6777
 Red. masses --      1.2904                 1.2519                 1.6215
 Frc consts  --      1.3707                 1.3508                 1.8450
 IR Inten    --     12.2927                 9.9815                68.8319

                     58                     59                     60
                      A                      A                      A
 Frequencies --   1393.8162              1420.3455              1426.2085
 Red. masses --      2.5345                 2.1928                 1.3763
 Frc consts  --      2.9011                 2.6064                 1.6494
 IR Inten    --      3.1180               132.6282                16.6832

                     61                     62                     63
                      A                      A                      A
 Frequencies --   1433.8022              1467.5978              1489.1597
 Red. masses --      2.5227                 1.0996                 1.2878
 Frc consts  --      3.0556                 1.3953                 1.6825
 IR Inten    --     28.2348                23.7351                15.4701

                     64                     65                     66
                      A                      A                      A
 Frequencies --   1495.1614              1503.7949              1508.6038
 Red. masses --      1.8101                 1.3037                 1.1425
 Frc consts  --      2.3841                 1.7371                 1.5320
 IR Inten    --     14.5510               137.3095                67.6138

                     67                     68                     69
                      A                      A                      A
 Frequencies --   1558.3121              1615.7393              1639.8111
 Red. masses --      2.1625                 4.1051                 1.1189
 Frc consts  --      3.0940                 6.3142                 1.7727
 IR Inten    --    192.2852                14.6430                42.3259

                     70                     71                     72
                      A                      A                      A
 Frequencies --   1697.4908              1712.1640              1812.9954
 Red. masses --      1.3217                 2.5237                10.1630
 Frc consts  --      2.2439                 4.3589                19.6819
 IR Inten    --    260.1427                53.6618               273.6532

                     73                     74                     75
                      A                      A                      A
 Frequencies --   2907.8791              3059.8427              3061.4607
 Red. masses --      1.0820                 1.0607                 1.0659
 Frc consts  --      5.3906                 5.8513                 5.8859
 IR Inten    --    838.2797                 3.6742                 7.7610

                     76                     77                     78
                      A                      A                      A
 Frequencies --   3092.9475              3101.2195              3116.5818
 Red. masses --      1.0827                 1.0789                 1.0972
 Frc consts  --      6.1026                 6.1137                 6.2788
 IR Inten    --      2.1760                 3.1797                 1.4382

                     79                     80                     81
                      A                      A                      A
 Frequencies --   3136.0877              3149.1640              3231.2223
 Red. masses --      1.0877                 1.1100                 1.0677
 Frc consts  --      6.3027                 6.4859                 6.5677
 IR Inten    --      3.1426                 2.4806               205.2154

                     82                     83                     84
                      A                      A                      A
 Frequencies --   3254.8040              3258.7568              3513.5737
 Red. masses --      1.0959                 1.1017                 1.0784
 Frc consts  --      6.8402                 6.8933                 7.8441
 IR Inten    --      2.1364                 4.6191               107.8507

                     85                     86                     87
                      A                      A                      A
 Frequencies --   3593.5208              3631.9336              3734.4265
 Red. masses --      1.0776                 1.0819                 1.0645
 Frc consts  --      8.1985                 8.4082                 8.7467
 IR Inten    --     69.8258                86.6628               138.4794

 - Thermochemistry -
 -------------------
 Temperature   298.150 Kelvin.  Pressure   1.00000 Atm.
 Atom     1 has atomic number  8 and mass  15.99491

 Molecular mass:   227.11442 amu.
 Principal axes and moments of inertia in atomic units:
                           1         2         3
     Eigenvalues --  2147.954054540.768325593.16945
           X           -0.09808   0.28579   0.95326
           Y           -0.04783   0.95542  -0.29135
           Z            0.99403   0.07417   0.08004
 This molecule is an asymmetric top.
 Rotational symmetry number  1.
 Warning -- assumption of classical behavior for rotation
           may cause significant error
 Rotational temperatures (Kelvin)      0.04032     0.01907     0.01549
 Rotational constants (GHZ):           0.84021     0.39745     0.32267
 Zero-point vibrational energy     683295.0 (Joules/Mol)
                                  163.31142 (Kcal/Mol)
 Warning -- explicit consideration of  22 degrees of freedom as
           vibrations may cause significant error
 Vibrational temperatures:     40.17    77.06   130.08   153.79   165.10
          (Kelvin)            182.84   204.80   223.21   264.83   285.46
                              374.71   441.42   452.37   484.25   504.95
                              589.04   629.83   660.86   773.54   796.16
                              864.98   892.12   899.10   917.44   985.64
                              991.64   997.82  1044.61  1113.56  1199.42
                             1214.17  1230.62  1257.46  1271.06  1339.11
                             1369.40  1378.19  1414.73  1440.48  1488.94
                             1503.02  1584.78  1620.53  1626.88  1633.37
                             1653.75  1671.86  1731.38  1797.57  1806.09
                             1843.10  1851.90  1874.61  1922.30  1931.89
                             1947.04  1999.43  2005.39  2043.56  2051.99
                             2062.92  2111.54  2142.57  2151.20  2163.62
                             2170.54  2242.06  2324.69  2359.32  2442.31
                             2463.42  2608.49  4183.78  4402.43  4404.75
                             4450.06  4461.96  4484.06  4512.13  4530.94
                             4649.00  4682.93  4688.62  5055.24  5170.27
                             5225.54  5373.00

 Zero-point correction=                           0.260253 (Hartree/Particle)
 Thermal correction to Energy=                    0.275381
 Thermal correction to Enthalpy=                  0.276325
 Thermal correction to Gibbs Free Energy=         0.217419
 Sum of electronic and zero-point Energies=           -796.574821
 Sum of electronic and thermal Energies=              -796.559694
 Sum of electronic and thermal Enthalpies=            -796.558750
 Sum of electronic and thermal Free Energies=         -796.617656

                     E (Thermal)             CV                S
                      KCal/Mol        Cal/Mol-Kelvin    Cal/Mol-Kelvin
 Total                  172.804             57.491            123.979
 Electronic               0.000              0.000              0.000
 Translational            0.889              2.981             42.163
 Rotational               0.889              2.981             32.367
 Vibrational            171.027             51.530             49.448
 Vibration     1          0.593              1.984              5.972
 Vibration     2          0.596              1.976              4.681
 Vibration     3          0.602              1.956              3.651
 Vibration     4          0.606              1.944              3.325
 Vibration     5          0.608              1.937              3.187
 Vibration     6          0.611              1.926              2.990
 Vibration     7          0.616              1.911              2.772
 Vibration     8          0.620              1.897              2.608
 Vibration     9          0.631              1.862              2.287
 Vibration    10          0.637              1.842              2.148
 Vibration    11          0.668              1.745              1.659
 Vibration    12          0.697              1.661              1.380
 Vibration    13          0.702              1.646              1.339
 Vibration    14          0.717              1.602              1.228
 Vibration    15          0.728              1.573              1.162
 Vibration    16          0.774              1.450              0.929
 Vibration    17          0.798              1.388              0.834
 Vibration    18          0.817              1.340              0.768
 Vibration    19          0.893              1.167              0.570
 Vibration    20          0.909              1.132              0.537
 Vibration    21          0.959              1.029              0.448
 Vibration    22          0.980              0.990              0.416

 Optimization completed.
    -- Stationary point found.
 Normal termination of Gaussian 09 at Thu Jul 29 12:15:44 2021.
