 Gaussian 09, Revision D.01,
 Gaussian 09:  ES64L-G09RevD.01 24-Apr-2013

 ----------------------------------------------------------------------
 # B3LYP/6-311++G(2df,2pd) EmpiricalDispersion=GD3BJ guess=read geom=ch
 eckpoint opt=readfc freq=noraman nosymm integral(ultrafinegrid)
 ----------------------------------------------------------------------

 ------------------------------------------------------------
 Candidate Structure: Conf:661 OPT and FREQ calc in gas phase
 ------------------------------------------------------------
 Structure from the checkpoint file:  "conf-661.chk"
 Charge =  1 Multiplicity = 1

 SCF Done:  E(RB3LYP) =  -796.812115187     A.U. after   14 cycles
 SCF Done:  E(RB3LYP) =  -796.812962661     A.U. after   13 cycles
 SCF Done:  E(RB3LYP) =  -796.812987309     A.U. after   12 cycles
 SCF Done:  E(RB3LYP) =  -796.812988699     A.U. after    9 cycles
 SCF Done:  E(RB3LYP) =  -796.812988760     A.U. after    8 cycles
 SCF Done:  E(RB3LYP) =  -796.812988765     A.U. after    9 cycles
 Optimization completed.
    -- Stationary point found.
 Normal termination of Gaussian 09 at Thu Jul 29 04:53:58 2021.

 ----------------------------------------------------------------------
 #N Geom=AllCheck Guess=TCheck SCRF=Check GenChk RB3LYP/6-311++G(2df,2p
 d) Freq
 ----------------------------------------------------------------------

 Structure from the checkpoint file:  "conf-661.chk"
 ------------------------------------------------------------
 Candidate Structure: Conf:661 OPT and FREQ calc in gas phase
 ------------------------------------------------------------
 Charge =  1 Multiplicity = 1

                          Input orientation:
 ---------------------------------------------------------------------
 Center     Atomic      Atomic             Coordinates (Angstroms)
 Number     Number       Type             X           Y           Z
 ---------------------------------------------------------------------
      1          8           0        2.103119    1.138879    0.901346
      2          6           0        1.389064    0.952687   -0.067395
      3          7           0        0.156592    0.398776    0.041866
      4          6           0       -0.271226   -0.138399    1.306686
      5          6           0        0.751330   -1.184655    1.764831
      6          8           0        0.797312   -1.462641    3.057466
      7          8           0        1.448355   -1.810868    0.994202
      8          6           0       -1.659720   -0.828101    1.153761
      9          6           0       -2.616306   -0.012620    0.363495
     10          6           0       -2.988452   -0.109664   -0.954639
     11          7           0       -3.819756    0.925963   -1.303730
     12          6           0       -3.959458    1.647937   -0.220993
     13          7           0       -3.242274    1.130109    0.820615
     14          6           0        1.931277    1.117160   -1.477971
     15          6           0        3.126812    0.178134   -1.603897
     16          7           0        2.721561   -1.258093   -1.341966
     17          1           0       -0.501630    0.389987   -0.724916
     18          1           0       -0.323949    0.654809    2.056479
     19          1           0        0.258288   -0.861568    3.587503
     20          1           0       -2.042644   -1.062293    2.147809
     21          1           0       -1.521790   -1.777993    0.637261
     22          1           0       -2.730231   -0.888087   -1.654434
     23          1           0       -4.559258    2.537094   -0.123473
     24          1           0       -3.230230    1.488168    1.760949
     25          1           0        2.293437    2.135213   -1.612972
     26          1           0        1.181285    0.919030   -2.244632
     27          1           0        3.870533    0.426501   -0.852062
     28          1           0        3.576931    0.215705   -2.592236
     29          1           0        3.542072   -1.862752   -1.310972
     30          1           0        2.205579   -1.387986   -0.427748
     31          1           0        2.112971   -1.610325   -2.080227
 ---------------------------------------------------------------------

 SCF Done:  E(RB3LYP) =  -796.812988765     A.U. after    1 cycles

 Alpha  occ. eigenvalues --  -19.32522 -19.27122 -19.24008 -14.58734 -14.49117
 Alpha  occ. eigenvalues --  -14.48679 -14.40454 -10.46475 -10.42299 -10.39704
 Alpha  occ. eigenvalues --  -10.38202 -10.34508 -10.33729 -10.33627 -10.32951
 Alpha  occ. eigenvalues --  -10.30160  -1.26866  -1.20036  -1.18311  -1.15912
 Alpha  occ. eigenvalues --   -1.13597  -1.08713  -0.99140  -0.96011  -0.93685
 Alpha  occ. eigenvalues --   -0.87895  -0.83170  -0.80567  -0.78491  -0.75725
 Alpha  occ. eigenvalues --   -0.74603  -0.73964  -0.73328  -0.71625  -0.69185
 Alpha  occ. eigenvalues --   -0.66876  -0.66509  -0.65521  -0.65091  -0.61587
 Alpha  occ. eigenvalues --   -0.60617  -0.59423  -0.58445  -0.57733  -0.56882
 Alpha  occ. eigenvalues --   -0.56349  -0.54872  -0.54034  -0.53508  -0.53001
 Alpha  occ. eigenvalues --   -0.52816  -0.52429  -0.50949  -0.48156  -0.45014
 Alpha  occ. eigenvalues --   -0.42091  -0.41425  -0.40396  -0.38364  -0.35367
 Alpha virt. eigenvalues --   -0.16698  -0.16028  -0.14793  -0.13275  -0.12407
 Alpha virt. eigenvalues --   -0.11287  -0.10487  -0.09934  -0.09555  -0.09154
 Alpha virt. eigenvalues --   -0.08135  -0.07934  -0.06691  -0.06623  -0.06117

 Mulliken charges:
               1
     1  O   -0.350063
     2  C   -0.187313
     3  N    0.210529
     4  C   -0.134290
     5  C    0.086465
     6  O   -0.118287
     7  O   -0.383402
     8  C   -0.269874
     9  C    0.347182
    10  C   -0.387099
    11  N   -0.206902
    12  C    0.138801
    13  N    0.038682
    14  C    0.169330
    15  C   -0.137504
    16  N    0.077022
    17  H    0.158570
    18  H    0.126214
    19  H    0.223046
    20  H    0.067770
    21  H    0.099646
    22  H    0.089742
    23  H    0.120154
    24  H    0.141943
    25  H    0.092636
    26  H    0.061753
    27  H    0.126825
    28  H    0.111076
    29  H    0.163589
    30  H    0.387682
    31  H    0.136075
 Sum of Mulliken charges =   1.00000

 Dipole moment (field-independent basis, Debye):
    X=              4.9379    Y=             -1.6325    Z=             -1.3534  Tot=              5.3739
 Quadrupole moment (field-independent basis, Debye-Ang):
   XX=            -64.1127   YY=            -83.8587   ZZ=            -68.6687
   XY=            -12.9533   XZ=            -37.4029   YZ=              9.0774

  Exact polarizability: 157.920 -15.764 123.788   0.059  -4.767 143.502
 Approx polarizability: 207.799 -18.618 191.863   9.772   6.378 229.930

                      1                      2                      3
                      A                      A                      A
 Frequencies --     26.7894                36.5213                60.0827
 Red. masses --      3.9818                 4.0460                 7.0518
 Frc consts  --      0.0017                 0.0032                 0.0150
 IR Inten    --     13.1324                 1.1778                12.2169

                      4                      5                      6
                      A                      A                      A
 Frequencies --     66.4160                79.6188               112.3565
 Red. masses --      4.2873                 5.5861                 4.6520
 Frc consts  --      0.0111                 0.0209                 0.0346
 IR Inten    --      4.7935                 6.7791                 4.0294

                      7                      8                      9
                      A                      A                      A
 Frequencies --    148.9544               160.1976               177.5768
 Red. masses --      5.4025                 5.8200                 6.8694
 Frc consts  --      0.0706                 0.0880                 0.1276
 IR Inten    --     21.3950                 3.3711                11.3184

                     10                     11                     12
                      A                      A                      A
 Frequencies --    229.8863               248.9209               281.4786
 Red. masses --      3.8860                 2.6808                 5.9426
 Frc consts  --      0.1210                 0.0979                 0.2774
 IR Inten    --     68.9495                15.0690                 7.9846

                     13                     14                     15
                      A                      A                      A
 Frequencies --    320.4914               338.8563               346.4758
 Red. masses --      3.2369                 1.1676                 3.1033
 Frc consts  --      0.1959                 0.0790                 0.2195
 IR Inten    --     10.3246                 0.1761                 4.0759

                     16                     17                     18
                      A                      A                      A
 Frequencies --    380.9506               423.1621               441.7796
 Red. masses --      3.6142                 3.8425                 2.4878
 Frc consts  --      0.3090                 0.4054                 0.2861
 IR Inten    --     15.5129                33.6489                 1.7291

                     19                     20                     21
                      A                      A                      A
 Frequencies --    515.3232               520.6810               537.3727
 Red. masses --      1.1732                 1.1986                 2.0074
 Frc consts  --      0.1836                 0.1915                 0.3415
 IR Inten    --     42.5826                46.1426                36.8726

                     22                     23                     24
                      A                      A                      A
 Frequencies --    552.2413               633.9269               658.5588
 Red. masses --      1.7492                 4.2771                 3.2321
 Frc consts  --      0.3143                 1.0127                 0.8259
 IR Inten    --     75.7383                 6.5841                 6.1832

                     25                     26                     27
                      A                      A                      A
 Frequencies --    679.0787               698.1082               718.5518
 Red. masses --      3.0229                 3.7302                 4.3576
 Frc consts  --      0.8213                 1.0711                 1.3256
 IR Inten    --      6.4597                 7.4037                13.9347

                     28                     29                     30
                      A                      A                      A
 Frequencies --    743.0386               782.7671               842.6896
 Red. masses --      2.4938                 5.6623                 2.9655
 Frc consts  --      0.8112                 2.0441                 1.2408
 IR Inten    --      1.7195                 3.1169                 2.6972

                     31                     32                     33
                      A                      A                      A
 Frequencies --    850.5027               853.1835               872.7106
 Red. masses --      1.7177                 1.5168                 1.9440
 Frc consts  --      0.7321                 0.6505                 0.8723
 IR Inten    --     22.3703                12.9556                 6.7426

                     34                     35                     36
                      A                      A                      A
 Frequencies --    876.9387               935.7443               937.6350
 Red. masses --      2.0428                 2.5110                 5.6719
 Frc consts  --      0.9256                 1.2954                 2.9379
 IR Inten    --     14.2968                 5.3618                 8.3927

                     37                     38                     39
                      A                      A                      A
 Frequencies --    950.3236               960.2594              1005.4456
 Red. masses --      1.3554                 3.2977                 2.8332
 Frc consts  --      0.7212                 1.7916                 1.6875
 IR Inten    --      8.4625                 4.7842                 9.4042

                     40                     41                     42
                      A                      A                      A
 Frequencies --   1015.0626              1043.7937              1093.8283
 Red. masses --      3.5925                 3.0054                 1.5725
 Frc consts  --      2.1809                 1.9292                 1.1085
 IR Inten    --     14.7804                 4.4607                 5.1671

                     43                     44                     45
                      A                      A                      A
 Frequencies --   1104.3401              1117.1182              1141.3908
 Red. masses --      1.7112                 1.3635                 1.9396
 Frc consts  --      1.2296                 1.0026                 1.4888
 IR Inten    --     19.0666                 4.7461                33.1801

                     46                     47                     48
                      A                      A                      A
 Frequencies --   1149.7727              1193.1061              1209.1171
 Red. masses --      2.2824                 1.5464                 1.6818
 Frc consts  --      1.7778                 1.2970                 1.4486
 IR Inten    --      5.3452                14.7105                26.2109

                     49                     50                     51
                      A                      A                      A
 Frequencies --   1241.9462              1261.3451              1277.4953
 Red. masses --      1.6629                 2.0757                 1.4593
 Frc consts  --      1.5112                 1.9457                 1.4032
 IR Inten    --     82.7642                 4.6785                 7.2794

                     52                     53                     54
                      A                      A                      A
 Frequencies --   1284.2002              1305.0116              1329.3434
 Red. masses --      1.5281                 1.4108                 1.6513
 Frc consts  --      1.4848                 1.4157                 1.7193
 IR Inten    --     66.3002                70.0370               202.1450

                     55                     56                     57
                      A                      A                      A
 Frequencies --   1341.2098              1356.1476              1385.0644
 Red. masses --      1.5162                 1.4278                 1.3956
 Frc consts  --      1.6069                 1.5472                 1.5774
 IR Inten    --     61.2564                 8.8863                 4.2646

                     58                     59                     60
                      A                      A                      A
 Frequencies --   1393.9670              1404.2621              1412.1010
 Red. masses --      3.1710                 1.7936                 1.2977
 Frc consts  --      3.6304                 2.0839                 1.5246
 IR Inten    --      7.8298               110.6637                 2.9810

                     61                     62                     63
                      A                      A                      A
 Frequencies --   1422.9805              1479.4913              1482.0856
 Red. masses --      2.6474                 1.0990                 1.2634
 Frc consts  --      3.1584                 1.4173                 1.6350
 IR Inten    --     27.1414                15.3898                17.8260

                     64                     65                     66
                      A                      A                      A
 Frequencies --   1500.0437              1501.0737              1520.0839
 Red. masses --      2.6131                 1.0777                 2.2293
 Frc consts  --      3.4643                 1.4307                 3.0349
 IR Inten    --     33.9952                14.0656               333.3273

                     67                     68                     69
                      A                      A                      A
 Frequencies --   1576.5146              1601.4074              1671.8653
 Red. masses --      1.1576                 4.2256                 1.0534
 Frc consts  --      1.6951                 6.3847                 1.7348
 IR Inten    --    101.3034                 5.5014                70.3094

                     70                     71                     72
                      A                      A                      A
 Frequencies --   1683.1736              1743.0185              1770.9860
 Red. masses --      1.0498                 7.8162                 8.6920
 Frc consts  --      1.7523                13.9911                16.0621
 IR Inten    --     19.7661               240.7053               406.7888

                     73                     74                     75
                      A                      A                      A
 Frequencies --   2840.4392              3036.3127              3053.3331
 Red. masses --      1.0856                 1.0847                 1.0610
 Frc consts  --      5.1604                 5.8917                 5.8282
 IR Inten    --   1181.2974                10.0393                10.1232

                     76                     77                     78
                      A                      A                      A
 Frequencies --   3061.1221              3097.5728              3098.7333
 Red. masses --      1.0634                 1.1031                 1.0607
 Frc consts  --      5.8709                 6.2361                 6.0011
 IR Inten    --      6.6722                 5.6510                 2.4029

                     79                     80                     81
                      A                      A                      A
 Frequencies --   3117.5508              3158.0781              3226.8350
 Red. masses --      1.1006                 1.1113                 1.0967
 Frc consts  --      6.3025                 6.5304                 6.7279
 IR Inten    --      2.2418                 0.1246                 3.8755

                     82                     83                     84
                      A                      A                      A
 Frequencies --   3253.1010              3455.3722              3510.9714
 Red. masses --      1.0992                 1.0529                 1.0925
 Frc consts  --      6.8537                 7.4065                 7.9344
 IR Inten    --      2.4888                74.0359                68.4881

                     85                     86                     87
                      A                      A                      A
 Frequencies --   3550.5196              3642.0935              3788.4413
 Red. masses --      1.0793                 1.0814                 1.0663
 Frc consts  --      8.0163                 8.4514                 9.0167
 IR Inten    --    184.4823                61.4613                88.6100

 - Thermochemistry -
 -------------------
 Temperature   298.150 Kelvin.  Pressure   1.00000 Atm.
 Atom     1 has atomic number  8 and mass  15.99491

 Molecular mass:   227.11442 amu.
 Principal axes and moments of inertia in atomic units:
                           1         2         3
     Eigenvalues --  2332.126705264.409346426.46065
           X            0.98119  -0.09046   0.17056
           Y           -0.19307  -0.45816   0.86765
           Z            0.00034   0.88425   0.46701
 This molecule is an asymmetric top.
 Rotational symmetry number  1.
 Warning -- assumption of classical behavior for rotation
           may cause significant error
 Rotational temperatures (Kelvin)      0.03714     0.01645     0.01348
 Rotational constants (GHZ):           0.77386     0.34282     0.28083
 Zero-point vibrational energy     681323.6 (Joules/Mol)
                                  162.84026 (Kcal/Mol)
 Warning -- explicit consideration of  22 degrees of freedom as
           vibrations may cause significant error
 Vibrational temperatures:     38.54    52.55    86.45    95.56   114.55
          (Kelvin)            161.66   214.31   230.49   255.49   330.75
                              358.14   404.98   461.12   487.54   498.50
                              548.10   608.84   635.62   741.43   749.14
                              773.16   794.55   912.08   947.52   977.04
                             1004.42  1033.83  1069.07  1126.23  1212.44
                             1223.68  1227.54  1255.63  1261.72  1346.33
                             1349.05  1367.30  1381.60  1446.61  1460.45
                             1501.78  1573.77  1588.90  1607.28  1642.20
                             1654.26  1716.61  1739.65  1786.88  1814.79
                             1838.03  1847.68  1877.62  1912.63  1929.70
                             1951.19  1992.80  2005.61  2020.42  2031.70
                             2047.35  2128.66  2132.39  2158.23  2159.71
                             2187.06  2268.25  2304.07  2405.44  2421.71
                             2507.81  2548.05  4086.75  4368.57  4393.06
                             4404.27  4456.71  4458.38  4485.45  4543.76
                             4642.69  4680.48  4971.50  5051.50  5108.40
                             5240.15  5450.72

 Zero-point correction=                           0.259502 (Hartree/Particle)
 Thermal correction to Energy=                    0.275035
 Thermal correction to Enthalpy=                  0.275979
 Thermal correction to Gibbs Free Energy=         0.215056
 Sum of electronic and zero-point Energies=           -796.553486
 Sum of electronic and thermal Energies=              -796.537954
 Sum of electronic and thermal Enthalpies=            -796.537010
 Sum of electronic and thermal Free Energies=         -796.597933

                     E (Thermal)             CV                S
                      KCal/Mol        Cal/Mol-Kelvin    Cal/Mol-Kelvin
 Total                  172.587             58.036            128.223
 Electronic               0.000              0.000              0.000
 Translational            0.889              2.981             42.163
 Rotational               0.889              2.981             32.734
 Vibrational            170.809             52.075             53.326
 Vibration     1          0.593              1.984              6.054
 Vibration     2          0.594              1.982              5.439
 Vibration     3          0.597              1.973              4.454
 Vibration     4          0.598              1.970              4.257
 Vibration     5          0.600              1.963              3.900
 Vibration     6          0.607              1.939              3.228
 Vibration     7          0.618              1.904              2.686
 Vibration     8          0.622              1.891              2.547
 Vibration     9          0.628              1.870              2.354
 Vibration    10          0.652              1.795              1.880
 Vibration    11          0.662              1.765              1.738
 Vibration    12          0.681              1.708              1.525
 Vibration    13          0.706              1.634              1.308
 Vibration    14          0.719              1.598              1.218
 Vibration    15          0.724              1.582              1.182
 Vibration    16          0.751              1.511              1.035
 Vibration    17          0.785              1.420              0.881
 Vibration    18          0.802              1.379              0.821
 Vibration    19          0.870              1.216              0.621
 Vibration    20          0.876              1.204              0.608
 Vibration    21          0.892              1.167              0.571
 Vibration    22          0.908              1.135              0.540

 Optimization completed.
    -- Stationary point found.
 Normal termination of Gaussian 09 at Thu Jul 29 12:24:47 2021.
