 Gaussian 09, Revision D.01,
 Gaussian 09:  ES64L-G09RevD.01 24-Apr-2013

 ----------------------------------------------------------------------
 # B3LYP/6-311++G(2df,2pd) EmpiricalDispersion=GD3BJ guess=read geom=ch
 eckpoint opt=readfc freq=noraman nosymm integral(ultrafinegrid)
 ----------------------------------------------------------------------

 ------------------------------------------------------------
 Candidate Structure: Conf:342 OPT and FREQ calc in gas phase
 ------------------------------------------------------------
 Structure from the checkpoint file:  "conf-342.chk"
 Charge =  1 Multiplicity = 1

 SCF Done:  E(RB3LYP) =  -796.793031643     A.U. after    2 cycles
 SCF Done:  E(RB3LYP) =  -796.793001338     A.U. after   12 cycles
 SCF Done:  E(RB3LYP) =  -796.793036448     A.U. after   12 cycles
 SCF Done:  E(RB3LYP) =  -796.792514974     A.U. after   14 cycles
 SCF Done:  E(RB3LYP) =  -796.793035001     A.U. after   14 cycles
 SCF Done:  E(RB3LYP) =  -796.793036976     A.U. after   10 cycles
 SCF Done:  E(RB3LYP) =  -796.793038066     A.U. after   10 cycles
 SCF Done:  E(RB3LYP) =  -796.793038289     A.U. after    7 cycles
 SCF Done:  E(RB3LYP) =  -796.793040405     A.U. after   11 cycles
 SCF Done:  E(RB3LYP) =  -796.793040100     A.U. after   11 cycles
 SCF Done:  E(RB3LYP) =  -796.793040323     A.U. after   11 cycles
 SCF Done:  E(RB3LYP) =  -796.793040368     A.U. after    7 cycles
 SCF Done:  E(RB3LYP) =  -796.793040994     A.U. after   11 cycles
 Optimization completed on the basis of negligible forces.
    -- Stationary point found.
 Normal termination of Gaussian 09 at Sat Jul 31 00:07:04 2021.

 ----------------------------------------------------------------------
 #N Geom=AllCheck Guess=TCheck SCRF=Check GenChk RB3LYP/6-311++G(2df,2p
 d) Freq
 ----------------------------------------------------------------------

 Structure from the checkpoint file:  "conf-342.chk"
 ------------------------------------------------------------
 Candidate Structure: Conf:342 OPT and FREQ calc in gas phase
 ------------------------------------------------------------
 Charge =  1 Multiplicity = 1

                          Input orientation:
 ---------------------------------------------------------------------
 Center     Atomic      Atomic             Coordinates (Angstroms)
 Number     Number       Type             X           Y           Z
 ---------------------------------------------------------------------
      1          8           0        1.044748   -1.121413    0.493220
      2          6           0        1.403271   -0.051799    0.020408
      3          7           0        0.579803    0.862821   -0.503204
      4          6           0       -0.845496    0.632389   -0.643769
      5          6           0       -1.334128    1.631655   -1.699493
      6          8           0       -2.629621    1.614594   -1.985479
      7          8           0       -0.571747    2.388706   -2.243455
      8          6           0       -1.599273    0.755608    0.707349
      9          6           0       -2.950992    0.135077    0.671406
     10          6           0       -4.218237    0.661737    0.589624
     11          7           0       -5.159419   -0.340076    0.555000
     12          6           0       -4.487788   -1.461000    0.616952
     13          7           0       -3.142744   -1.234075    0.681566
     14          6           0        2.890692    0.334767    0.035149
     15          6           0        3.709363   -0.940655    0.072020
     16          7           0        5.176265   -0.634794    0.333686
     17          1           0        0.920278    1.668010   -1.015506
     18          1           0       -0.998847   -0.377025   -1.031979
     19          1           0       -3.137492    1.040677   -1.380962
     20          1           0       -1.684689    1.805929    0.983605
     21          1           0       -0.984168    0.269239    1.464097
     22          1           0       -4.499634    1.701950    0.578873
     23          1           0       -4.907917   -2.452668    0.617409
     24          1           0       -2.422664   -1.931613    0.772742
     25          1           0        3.063911    0.929655    0.936760
     26          1           0        3.144923    0.954190   -0.826110
     27          1           0        3.671724   -1.485512   -0.867836
     28          1           0        3.370084   -1.596491    0.868424
     29          1           0        5.571249   -0.036157   -0.394198
     30          1           0        5.295733   -0.151477    1.226301
     31          1           0        5.732543   -1.491306    0.367390
 ---------------------------------------------------------------------

 SCF Done:  E(RB3LYP) =  -796.793040994     A.U. after    2 cycles

 Alpha  occ. eigenvalues --  -19.27119 -19.23443 -19.22023 -14.64339 -14.47571
 Alpha  occ. eigenvalues --  -14.46512 -14.38359 -10.42194 -10.41992 -10.41454
 Alpha  occ. eigenvalues --  -10.36128 -10.35056 -10.31699 -10.30815 -10.30336
 Alpha  occ. eigenvalues --  -10.28014  -1.21652  -1.21056  -1.18820  -1.13655
 Alpha  occ. eigenvalues --   -1.11477  -1.07060  -0.97423  -0.96977  -0.91906
 Alpha  occ. eigenvalues --   -0.86610  -0.83752  -0.79563  -0.79352  -0.78099
 Alpha  occ. eigenvalues --   -0.73848  -0.71849  -0.71120  -0.69939  -0.69208
 Alpha  occ. eigenvalues --   -0.67925  -0.65664  -0.64045  -0.61347  -0.61174
 Alpha  occ. eigenvalues --   -0.59028  -0.58070  -0.56940  -0.56143  -0.55220
 Alpha  occ. eigenvalues --   -0.54917  -0.53803  -0.52613  -0.51445  -0.51256
 Alpha  occ. eigenvalues --   -0.50611  -0.49523  -0.48249  -0.43245  -0.41204
 Alpha  occ. eigenvalues --   -0.40565  -0.39526  -0.38190  -0.36231  -0.33293
 Alpha virt. eigenvalues --   -0.20421  -0.15055  -0.14551  -0.13877  -0.12483
 Alpha virt. eigenvalues --   -0.11120  -0.10848  -0.09793  -0.09545  -0.08974
 Alpha virt. eigenvalues --   -0.08527  -0.07672  -0.07042  -0.06670  -0.06414

 Mulliken charges:
               1
     1  O   -0.405621
     2  C   -0.024147
     3  N    0.136326
     4  C   -0.076489
     5  C    0.070300
     6  O   -0.228435
     7  O   -0.348034
     8  C   -0.136813
     9  C    0.521120
    10  C   -0.569619
    11  N   -0.227686
    12  C    0.175211
    13  N   -0.005994
    14  C    0.124366
    15  C   -0.284697
    16  N    0.300319
    17  H    0.142339
    18  H    0.103275
    19  H    0.328037
    20  H    0.100319
    21  H    0.095525
    22  H    0.092336
    23  H    0.121105
    24  H    0.151740
    25  H    0.060348
    26  H    0.053360
    27  H    0.111250
    28  H    0.131908
    29  H    0.164939
    30  H    0.163229
    31  H    0.160183
 Sum of Mulliken charges =   1.00000

 Dipole moment (field-independent basis, Debye):
    X=             21.6970    Y=             -3.9703    Z=              2.8408  Tot=             22.2395
 Quadrupole moment (field-independent basis, Debye-Ang):
   XX=             12.9650   YY=            -87.7065   ZZ=            -97.2072
   XY=             -4.9223   XZ=              3.7761   YZ=              6.7489

  Exact polarizability: 190.335   3.797 134.700  -0.778 -15.011 108.193
 Approx polarizability: 238.956   6.904 221.533   0.274 -20.714 166.346

 ******    1 imaginary frequencies (negative Signs) ******

                      1                      2                      3
                      A                      A                      A
 Frequencies --     -7.0717                27.4910                36.0296
 Red. masses --      1.9249                 4.9879                 3.3134
 Frc consts  --      0.0001                 0.0022                 0.0025
 IR Inten    --      0.3677                 1.6750                 8.3856

                      4                      5                      6
                      A                      A                      A
 Frequencies --     57.8589                81.0274                87.7352
 Red. masses --      5.3588                 6.8757                 4.7347
 Frc consts  --      0.0106                 0.0266                 0.0215
 IR Inten    --      3.4882                11.4442                 5.8209

                      7                      8                      9
                      A                      A                      A
 Frequencies --     92.3794               114.6215               124.3133
 Red. masses --      6.1368                 5.2366                 4.5630
 Frc consts  --      0.0309                 0.0405                 0.0415
 IR Inten    --      9.4320                 2.9514                13.1237

                     10                     11                     12
                      A                      A                      A
 Frequencies --    196.7279               220.4884               232.6407
 Red. masses --      5.3349                 1.5001                 2.1043
 Frc consts  --      0.1216                 0.0430                 0.0671
 IR Inten    --      6.3418                10.3641                14.3827

                     13                     14                     15
                      A                      A                      A
 Frequencies --    272.7227               329.7875               333.7897
 Red. masses --      5.5009                 7.0185                 2.1223
 Frc consts  --      0.2411                 0.4497                 0.1393
 IR Inten    --     11.4892                 3.4452                 3.0469

                     16                     17                     18
                      A                      A                      A
 Frequencies --    350.5013               377.5718               389.6741
 Red. masses --      5.0056                 3.8011                 4.5803
 Frc consts  --      0.3623                 0.3193                 0.4098
 IR Inten    --      6.4428                18.9269                17.3003

                     19                     20                     21
                      A                      A                      A
 Frequencies --    552.8659               556.9468               587.7289
 Red. masses --      3.3694                 1.5460                 2.2031
 Frc consts  --      0.6068                 0.2825                 0.4484
 IR Inten    --     11.7860                57.7643                31.1620

                     22                     23                     24
                      A                      A                      A
 Frequencies --    616.4678               655.1868               667.7227
 Red. masses --      2.7425                 1.5850                 1.4510
 Frc consts  --      0.6141                 0.4009                 0.3812
 IR Inten    --     48.4466                 7.4303                39.2589

                     25                     26                     27
                      A                      A                      A
 Frequencies --    674.0202               687.1577               720.0092
 Red. masses --      2.9786                 2.4120                 3.1414
 Frc consts  --      0.7973                 0.6710                 0.9595
 IR Inten    --     53.3967                 5.5524                18.2807

                     28                     29                     30
                      A                      A                      A
 Frequencies --    741.7934               771.1298               796.4666
 Red. masses --      3.5093                 3.2458                 1.4037
 Frc consts  --      1.1377                 1.1372                 0.5246
 IR Inten    --      1.4756                 1.0045                10.5246

                     31                     32                     33
                      A                      A                      A
 Frequencies --    826.5336               851.9664               876.1577
 Red. masses --      3.1479                 1.4248                 1.3596
 Frc consts  --      1.2671                 0.6093                 0.6149
 IR Inten    --      5.2671                16.8186                11.1872

                     34                     35                     36
                      A                      A                      A
 Frequencies --    887.1356               918.3134               935.0163
 Red. masses --      2.7259                 1.2740                 3.7241
 Frc consts  --      1.2640                 0.6330                 1.9183
 IR Inten    --     32.6470                 3.8625                 6.8317

                     37                     38                     39
                      A                      A                      A
 Frequencies --    940.3705               983.8416              1003.3309
 Red. masses --      5.1907                 2.1348                 3.6497
 Frc consts  --      2.7044                 1.2174                 2.1647
 IR Inten    --     27.7389                16.9610                34.8782

                     40                     41                     42
                      A                      A                      A
 Frequencies --   1029.5633              1032.5872              1095.5171
 Red. masses --      3.9914                 3.1432                 1.7243
 Frc consts  --      2.4928                 1.9746                 1.2193
 IR Inten    --     10.7200                 2.1160                11.1810

                     43                     44                     45
                      A                      A                      A
 Frequencies --   1103.2331              1120.2855              1145.9458
 Red. masses --      1.6756                 2.2109                 2.1907
 Frc consts  --      1.2016                 1.6349                 1.6950
 IR Inten    --     14.9433                29.9952                13.8970

                     46                     47                     48
                      A                      A                      A
 Frequencies --   1153.8663              1176.5494              1232.1962
 Red. masses --      2.7121                 1.3933                 1.9490
 Frc consts  --      2.1275                 1.1364                 1.7435
 IR Inten    --      2.3134                 3.1873                13.1430

                     49                     50                     51
                      A                      A                      A
 Frequencies --   1242.1077              1257.0504              1284.6583
 Red. masses --      1.5284                 2.2547                 1.3694
 Frc consts  --      1.3893                 2.0991                 1.3315
 IR Inten    --     14.7377                20.6899                 0.5872

                     52                     53                     54
                      A                      A                      A
 Frequencies --   1291.6601              1309.2499              1327.2824
 Red. masses --      1.3128                 1.3450                 1.3381
 Frc consts  --      1.2904                 1.3584                 1.3889
 IR Inten    --      3.1451                33.7951                37.6721

                     55                     56                     57
                      A                      A                      A
 Frequencies --   1330.8492              1352.2929              1361.7322
 Red. masses --      1.3004                 1.5453                 1.5035
 Frc consts  --      1.3570                 1.6650                 1.6426
 IR Inten    --      7.2791               120.2144                33.8109

                     58                     59                     60
                      A                      A                      A
 Frequencies --   1386.2139              1409.0776              1412.8075
 Red. masses --      2.3332                 1.3490                 2.2393
 Frc consts  --      2.6416                 1.5781                 2.6335
 IR Inten    --      0.6308                12.4341               200.0529

                     61                     62                     63
                      A                      A                      A
 Frequencies --   1422.9727              1480.4618              1487.9780
 Red. masses --      2.6027                 1.1145                 1.1075
 Frc consts  --      3.1050                 1.4392                 1.4448
 IR Inten    --     22.8910                 1.1579                10.5357

                     64                     65                     66
                      A                      A                      A
 Frequencies --   1498.7734              1505.9827              1514.4279
 Red. masses --      3.6713                 1.0754                 1.1844
 Frc consts  --      4.8589                 1.4370                 1.6005
 IR Inten    --     39.0815                22.6210               197.4312

                     67                     68                     69
                      A                      A                      A
 Frequencies --   1536.1216              1600.8274              1665.1665
 Red. masses --      2.4930                 4.2423                 1.0423
 Frc consts  --      3.4659                 6.4053                 1.7028
 IR Inten    --    302.2191                 6.8911                46.0405

                     70                     71                     72
                      A                      A                      A
 Frequencies --   1669.6530              1731.5519              1813.3410
 Red. masses --      1.0448                 9.6841                 9.3777
 Frc consts  --      1.7161                17.1072                18.1679
 IR Inten    --     39.4542               283.5702               347.8567

                     73                     74                     75
                      A                      A                      A
 Frequencies --   3030.2579              3046.5994              3061.4314
 Red. masses --      1.0624                 1.0812                 1.0617
 Frc consts  --      5.7480                 5.9127                 5.8625
 IR Inten    --      3.4842                 4.4040                12.6656

                     76                     77                     78
                      A                      A                      A
 Frequencies --   3082.3584              3103.5827              3105.4840
 Red. masses --      1.1009                 1.0599                 1.1047
 Frc consts  --      6.1629                 6.0153                 6.2769
 IR Inten    --      4.1394                 3.0711                 2.3704

                     79                     80                     81
                      A                      A                      A
 Frequencies --   3162.7112              3235.1120              3251.4124
 Red. masses --      1.1110                 1.0969                 1.0991
 Frc consts  --      6.5476                 6.7638                 6.8461
 IR Inten    --      1.8653                 2.4085                 1.8934

                     82                     83                     84
                      A                      A                      A
 Frequencies --   3405.4970              3482.8685              3485.1473
 Red. masses --      1.0297                 1.0930                 1.0932
 Frc consts  --      7.0360                 7.8115                 7.8231
 IR Inten    --     54.6323                87.2725                92.0014

                     85                     86                     87
                      A                      A                      A
 Frequencies --   3529.8143              3560.4418              3636.9559
 Red. masses --      1.0776                 1.0679                 1.0815
 Frc consts  --      7.9106                 7.9757                 8.4282
 IR Inten    --    118.4172               560.8973                58.9411

 - Thermochemistry -
 -------------------
 Temperature   298.150 Kelvin.  Pressure   1.00000 Atm.
 Atom     1 has atomic number  8 and mass  15.99491

 Molecular mass:   227.11442 amu.
 Principal axes and moments of inertia in atomic units:
                           1         2         3
     Eigenvalues --  1871.663557507.572038977.25338
           X            0.99879   0.03181   0.03748
           Y           -0.04854   0.75932   0.64891
           Z           -0.00782  -0.64994   0.75994
 This molecule is an asymmetric top.
 Rotational symmetry number  1.
 Warning -- assumption of classical behavior for rotation
           may cause significant error
 Rotational temperatures (Kelvin)      0.04628     0.01154     0.00965
 Rotational constants (GHZ):           0.96424     0.24039     0.20103
    1 imaginary frequencies ignored.
 Zero-point vibrational energy     680299.4 (Joules/Mol)
                                  162.59546 (Kcal/Mol)
 Warning -- explicit consideration of  21 degrees of freedom as
           vibrations may cause significant error
 Vibrational temperatures:     39.55    51.84    83.25   116.58   126.23
          (Kelvin)            132.91   164.91   178.86   283.05   317.23
                              334.72   392.39   474.49   480.25   504.29
                              543.24   560.65   795.45   801.32   845.61
                              886.96   942.67   960.70   969.76   988.67
                             1035.93  1067.27  1109.48  1145.94  1189.20
                             1225.79  1260.59  1276.39  1321.25  1345.28
                             1352.98  1415.53  1443.57  1481.31  1485.66
                             1576.20  1587.30  1611.84  1648.76  1660.15
                             1692.79  1772.85  1787.11  1808.61  1848.33
                             1858.41  1883.72  1909.66  1914.79  1945.65
                             1959.23  1994.45  2027.35  2032.71  2047.34
                             2130.05  2140.87  2156.40  2166.77  2178.92
                             2210.13  2303.23  2395.80  2402.26  2491.31
                             2608.99  4359.86  4383.37  4404.71  4434.82
                             4465.36  4468.09  4550.43  4654.60  4678.05
                             4899.74  5011.06  5014.34  5078.61  5122.68
                             5232.76

 Zero-point correction=                           0.259112 (Hartree/Particle)
 Thermal correction to Energy=                    0.274435
 Thermal correction to Enthalpy=                  0.275380
 Thermal correction to Gibbs Free Energy=         0.214317
 Sum of electronic and zero-point Energies=           -796.533929
 Sum of electronic and thermal Energies=              -796.518606
 Sum of electronic and thermal Enthalpies=            -796.517661
 Sum of electronic and thermal Free Energies=         -796.578724

                     E (Thermal)             CV                S
                      KCal/Mol        Cal/Mol-Kelvin    Cal/Mol-Kelvin
 Total                  172.211             56.512            128.516
 Electronic               0.000              0.000              0.000
 Translational            0.889              2.981             42.163
 Rotational               0.889              2.981             33.200
 Vibrational            170.433             50.550             53.153
 Vibration     1          0.593              1.984              6.003
 Vibration     2          0.594              1.982              5.466
 Vibration     3          0.596              1.974              4.529
 Vibration     4          0.600              1.962              3.866
 Vibration     5          0.601              1.958              3.710
 Vibration     6          0.602              1.955              3.609
 Vibration     7          0.608              1.937              3.189
 Vibration     8          0.610              1.929              3.032
 Vibration     9          0.636              1.844              2.163
 Vibration    10          0.647              1.810              1.955
 Vibration    11          0.653              1.791              1.858
 Vibration    12          0.676              1.724              1.579
 Vibration    13          0.713              1.616              1.261
 Vibration    14          0.715              1.608              1.242
 Vibration    15          0.727              1.574              1.164
 Vibration    16          0.748              1.518              1.049
 Vibration    17          0.758              1.492              1.001
 Vibration    18          0.908              1.133              0.538
 Vibration    19          0.912              1.125              0.530
 Vibration    20          0.945              1.058              0.471
 Vibration    21          0.976              0.997              0.422

 Optimization completed on the basis of negligible forces.
    -- Stationary point found.
 Normal termination of Gaussian 09 at Sat Jul 31 06:37:16 2021.
