 Gaussian 09, Revision D.01,
 Gaussian 09:  ES64L-G09RevD.01 24-Apr-2013

 ----------------------------------------------------------------------
 # B3LYP/6-311++G(2df,2pd) EmpiricalDispersion=GD3BJ guess=read geom=ch
 eckpoint opt=readfc freq=noraman nosymm integral(ultrafinegrid)
 ----------------------------------------------------------------------

 ------------------------------------------------------------
 Candidate Structure: Conf:715 OPT and FREQ calc in gas phase
 ------------------------------------------------------------
 Structure from the checkpoint file:  "conf-715.chk"
 Charge =  1 Multiplicity = 1

 SCF Done:  E(RB3LYP) =  -796.815408057     A.U. after   12 cycles
 SCF Done:  E(RB3LYP) =  -796.816371285     A.U. after   12 cycles
 SCF Done:  E(RB3LYP) =  -796.816381961     A.U. after   12 cycles
 SCF Done:  E(RB3LYP) =  -796.816412913     A.U. after   11 cycles
 SCF Done:  E(RB3LYP) =  -796.816420194     A.U. after   11 cycles
 SCF Done:  E(RB3LYP) =  -796.816422175     A.U. after   10 cycles
 SCF Done:  E(RB3LYP) =  -796.816422493     A.U. after    9 cycles
 SCF Done:  E(RB3LYP) =  -796.816422600     A.U. after    8 cycles
 SCF Done:  E(RB3LYP) =  -796.816422605     A.U. after    6 cycles
 Optimization completed.
    -- Stationary point found.
 Normal termination of Gaussian 09 at Thu Jul 29 06:49:55 2021.

 ----------------------------------------------------------------------
 #N Geom=AllCheck Guess=TCheck SCRF=Check GenChk RB3LYP/6-311++G(2df,2p
 d) Freq
 ----------------------------------------------------------------------

 Structure from the checkpoint file:  "conf-715.chk"
 ------------------------------------------------------------
 Candidate Structure: Conf:715 OPT and FREQ calc in gas phase
 ------------------------------------------------------------
 Charge =  1 Multiplicity = 1

                          Input orientation:
 ---------------------------------------------------------------------
 Center     Atomic      Atomic             Coordinates (Angstroms)
 Number     Number       Type             X           Y           Z
 ---------------------------------------------------------------------
      1          8           0       -2.211182    1.311027   -0.058995
      2          6           0       -1.533045    0.551303    0.650275
      3          7           0       -0.227308    0.737493    0.849476
      4          6           0        0.536609    1.585380   -0.040340
      5          6           0        0.373167    1.064486   -1.480417
      6          8           0        0.816605    1.878316   -2.449114
      7          8           0       -0.078242   -0.014722   -1.747586
      8          6           0        2.027267    1.574692    0.398258
      9          6           0        2.560721    0.200181    0.594794
     10          6           0        2.661062   -0.566752    1.730833
     11          7           0        3.107720   -1.829643    1.427074
     12          6           0        3.282946   -1.840012    0.129144
     13          7           0        2.960632   -0.636817   -0.427775
     14          6           0       -2.178855   -0.693955    1.222987
     15          6           0       -2.697622   -1.531330    0.047533
     16          7           0       -3.656169   -0.699476   -0.774398
     17          1           0        0.305752    0.011543    1.314830
     18          1           0        0.150694    2.604180    0.004935
     19          1           0        1.087963    2.742242   -2.114140
     20          1           0        2.616184    2.135632   -0.328494
     21          1           0        2.098106    2.115319    1.340721
     22          1           0        2.471975   -0.262742    2.747824
     23          1           0        3.641895   -2.669505   -0.456368
     24          1           0        3.016121   -0.407611   -1.406333
     25          1           0       -1.481786   -1.300559    1.797257
     26          1           0       -2.996576   -0.404098    1.884194
     27          1           0       -3.207304   -2.430116    0.381533
     28          1           0       -1.878612   -1.801894   -0.614246
     29          1           0       -3.273410    0.296659   -0.711798
     30          1           0       -3.694352   -1.006505   -1.744133
     31          1           0       -4.600794   -0.712704   -0.393919
 ---------------------------------------------------------------------

 SCF Done:  E(RB3LYP) =  -796.816422605     A.U. after    1 cycles

 Alpha  occ. eigenvalues --  -19.31012 -19.26013 -19.25049 -14.58111 -14.49591
 Alpha  occ. eigenvalues --  -14.48066 -14.39963 -10.44346 -10.43842 -10.40004
 Alpha  occ. eigenvalues --  -10.37544 -10.35255 -10.33181 -10.32968 -10.32364
 Alpha  occ. eigenvalues --  -10.29589  -1.24926  -1.21421  -1.16736  -1.15398
 Alpha  occ. eigenvalues --   -1.13060  -1.09420  -0.98614  -0.96298  -0.93391
 Alpha  occ. eigenvalues --   -0.87166  -0.83134  -0.79937  -0.77159  -0.75879
 Alpha  occ. eigenvalues --   -0.74957  -0.73470  -0.72741  -0.70901  -0.69106
 Alpha  occ. eigenvalues --   -0.67558  -0.66654  -0.64715  -0.62833  -0.60820
 Alpha  occ. eigenvalues --   -0.59881  -0.59344  -0.57537  -0.57385  -0.57223
 Alpha  occ. eigenvalues --   -0.56613  -0.55552  -0.54081  -0.53305  -0.52556
 Alpha  occ. eigenvalues --   -0.52201  -0.51892  -0.51303  -0.46645  -0.44082
 Alpha  occ. eigenvalues --   -0.43249  -0.41830  -0.39849  -0.37888  -0.34886
 Alpha virt. eigenvalues --   -0.16580  -0.15382  -0.14313  -0.12772  -0.11911
 Alpha virt. eigenvalues --   -0.11634  -0.10400  -0.09641  -0.09069  -0.08352
 Alpha virt. eigenvalues --   -0.08123  -0.07357  -0.06958  -0.06548  -0.05997

 Mulliken charges:
               1
     1  O   -0.393566
     2  C   -0.051209
     3  N    0.107807
     4  C    0.138325
     5  C    0.049622
     6  O   -0.137932
     7  O   -0.318014
     8  C   -0.440851
     9  C    0.469902
    10  C   -0.392412
    11  N   -0.231007
    12  C    0.110519
    13  N    0.033606
    14  C    0.117588
    15  C   -0.234898
    16  N    0.227502
    17  H    0.148941
    18  H    0.103775
    19  H    0.209303
    20  H    0.077595
    21  H    0.102720
    22  H    0.095778
    23  H    0.120084
    24  H    0.163822
    25  H    0.062122
    26  H    0.102300
    27  H    0.110284
    28  H    0.124119
    29  H    0.220763
    30  H    0.153671
    31  H    0.149740
 Sum of Mulliken charges =   1.00000

 Dipole moment (field-independent basis, Debye):
    X=             -8.4174    Y=              0.3181    Z=             -1.6398  Tot=              8.5815
 Quadrupole moment (field-independent basis, Debye-Ang):
   XX=            -38.8065   YY=            -78.5618   ZZ=            -88.7436
   XY=             24.3277   XZ=             -4.5048   YZ=              3.6826

  Exact polarizability: 147.508  -2.215 139.715   3.832  -7.922 129.369
 Approx polarizability: 193.220  -5.046 222.021   3.796 -10.374 208.363

                      1                      2                      3
                      A                      A                      A
 Frequencies --     11.1271                24.7444                49.0647
 Red. masses --      3.9669                 5.5114                 5.6217
 Frc consts  --      0.0003                 0.0020                 0.0080
 IR Inten    --     15.6697                 5.0509                 5.4355

                      4                      5                      6
                      A                      A                      A
 Frequencies --     64.6402                70.2734                86.3141
 Red. masses --      4.8301                 4.3881                 5.7488
 Frc consts  --      0.0119                 0.0128                 0.0252
 IR Inten    --     12.1588                 9.9745                11.0250

                      7                      8                      9
                      A                      A                      A
 Frequencies --    123.9098               145.1377               201.1249
 Red. masses --      4.0273                 6.8216                 4.3104
 Frc consts  --      0.0364                 0.0847                 0.1027
 IR Inten    --      0.4135                 4.7006                 3.6641

                     10                     11                     12
                      A                      A                      A
 Frequencies --    216.3616               253.4061               320.7089
 Red. masses --      2.8114                 5.6382                 2.9391
 Frc consts  --      0.0775                 0.2133                 0.1781
 IR Inten    --     16.8490                19.0717                40.1942

                     13                     14                     15
                      A                      A                      A
 Frequencies --    338.2241               345.9567               367.2089
 Red. masses --      2.3474                 2.1794                 1.8413
 Frc consts  --      0.1582                 0.1537                 0.1463
 IR Inten    --     24.8118                 6.9887                 4.5447

                     16                     17                     18
                      A                      A                      A
 Frequencies --    386.5217               446.9039               469.5722
 Red. masses --      3.3941                 3.6525                 2.3892
 Frc consts  --      0.2988                 0.4298                 0.3104
 IR Inten    --     37.6100                25.1815                96.3034

                     19                     20                     21
                      A                      A                      A
 Frequencies --    510.7997               530.1809               559.8330
 Red. masses --      1.3559                 2.7264                 1.4266
 Frc consts  --      0.2084                 0.4515                 0.2634
 IR Inten    --     28.5926                 2.1540                69.0993

                     22                     23                     24
                      A                      A                      A
 Frequencies --    605.9925               644.1364               675.9807
 Red. masses --      3.5201                 3.9849                 2.4844
 Frc consts  --      0.7616                 0.9742                 0.6689
 IR Inten    --      8.5387                 2.3897                19.0754

                     25                     26                     27
                      A                      A                      A
 Frequencies --    683.2536               699.6001               701.3677
 Red. masses --      3.5956                 2.9219                 1.6259
 Frc consts  --      0.9890                 0.8426                 0.4712
 IR Inten    --     37.1463                14.3879                23.0461

                     28                     29                     30
                      A                      A                      A
 Frequencies --    752.5141               780.0268               837.2204
 Red. masses --      3.5488                 4.7748                 2.5250
 Frc consts  --      1.1840                 1.7117                 1.0428
 IR Inten    --     12.0552                 2.1082                25.1359

                     31                     32                     33
                      A                      A                      A
 Frequencies --    852.7276               855.6663               873.2768
 Red. masses --      1.3969                 2.7798                 1.6443
 Frc consts  --      0.5985                 1.1992                 0.7388
 IR Inten    --     26.9718                 0.0646                 7.3463

                     34                     35                     36
                      A                      A                      A
 Frequencies --    892.0682               937.6408               946.8473
 Red. masses --      1.9993                 4.7289                 2.7650
 Frc consts  --      0.9374                 2.4495                 1.4605
 IR Inten    --     52.4918                14.3715                 6.4229

                     37                     38                     39
                      A                      A                      A
 Frequencies --    958.5204               962.5046               997.7652
 Red. masses --      1.6742                 2.0020                 2.9182
 Frc consts  --      0.9063                 1.0928                 1.7117
 IR Inten    --      8.8390                 0.5554                 3.4488

                     40                     41                     42
                      A                      A                      A
 Frequencies --   1008.5786              1042.9443              1105.5289
 Red. masses --      3.7680                 2.8256                 1.8427
 Frc consts  --      2.2583                 1.8108                 1.3269
 IR Inten    --     17.2107                 7.0973                11.7302

                     43                     44                     45
                      A                      A                      A
 Frequencies --   1112.2810              1131.0232              1135.5984
 Red. masses --      1.6924                 1.5146                 1.5706
 Frc consts  --      1.2336                 1.1415                 1.1933
 IR Inten    --     16.2286                62.7439                 0.2511

                     46                     47                     48
                      A                      A                      A
 Frequencies --   1148.1163              1173.5806              1207.9445
 Red. masses --      2.1957                 1.8220                 1.6951
 Frc consts  --      1.7053                 1.4785                 1.4572
 IR Inten    --     15.9278                 4.1677                35.2772

                     49                     50                     51
                      A                      A                      A
 Frequencies --   1237.1331              1259.0222              1265.8240
 Red. masses --      1.4511                 1.4445                 2.1594
 Frc consts  --      1.3085                 1.3491                 2.0386
 IR Inten    --     21.5129                36.6575                 7.9870

                     52                     53                     54
                      A                      A                      A
 Frequencies --   1285.1605              1291.8036              1321.3849
 Red. masses --      1.7553                 1.3474                 1.5174
 Frc consts  --      1.7082                 1.3247                 1.5610
 IR Inten    --    301.0215                54.0013                38.7842

                     55                     56                     57
                      A                      A                      A
 Frequencies --   1333.0511              1365.4710              1379.6699
 Red. masses --      1.4081                 1.5006                 1.6218
 Frc consts  --      1.4743                 1.6485                 1.8189
 IR Inten    --     11.9785                 9.7887                33.6963

                     58                     59                     60
                      A                      A                      A
 Frequencies --   1390.2410              1402.8069              1416.7802
 Red. masses --      2.2225                 1.7581                 1.3367
 Frc consts  --      2.5308                 2.0384                 1.5808
 IR Inten    --      2.9650                37.6810                17.2141

                     61                     62                     63
                      A                      A                      A
 Frequencies --   1427.1641              1479.9065              1484.6944
 Red. masses --      2.5213                 1.1795                 1.1094
 Frc consts  --      3.0257                 1.5220                 1.4408
 IR Inten    --     28.1508                29.1560                14.3060

                     64                     65                     66
                      A                      A                      A
 Frequencies --   1494.5412              1497.9657              1512.2965
 Red. masses --      1.3090                 2.7065                 1.1118
 Frc consts  --      1.7226                 3.5782                 1.4982
 IR Inten    --    436.6678                38.6101               236.6009

                     67                     68                     69
                      A                      A                      A
 Frequencies --   1572.3042              1600.5340              1632.0264
 Red. masses --      2.1842                 4.0438                 1.1877
 Frc consts  --      3.1814                 6.1034                 1.8639
 IR Inten    --    204.3073                 8.6560                 5.9192

                     70                     71                     72
                      A                      A                      A
 Frequencies --   1673.4545              1696.8135              1825.9627
 Red. masses --      1.0616                 2.8525                10.1727
 Frc consts  --      1.7516                 4.8389                19.9834
 IR Inten    --     33.5555               158.9597               206.6524

                     73                     74                     75
                      A                      A                      A
 Frequencies --   2681.2829              3057.6355              3065.0729
 Red. masses --      1.0868                 1.0649                 1.0639
 Frc consts  --      4.6036                 5.8656                 5.8890
 IR Inten    --    845.8115                 9.5450                 1.1936

                     76                     77                     78
                      A                      A                      A
 Frequencies --   3073.9260              3096.7467              3106.0533
 Red. masses --      1.0840                 1.0604                 1.1008
 Frc consts  --      6.0346                 5.9914                 6.2571
 IR Inten    --      9.3998                 1.6040                 2.1492

                     79                     80                     81
                      A                      A                      A
 Frequencies --   3123.2417              3155.6236              3227.2735
 Red. masses --      1.1012                 1.1122                 1.0968
 Frc consts  --      6.3289                 6.5252                 6.7307
 IR Inten    --      0.9798                 0.0685                 3.0671

                     82                     83                     84
                      A                      A                      A
 Frequencies --   3252.8415              3467.5888              3502.2345
 Red. masses --      1.0991                 1.0520                 1.0785
 Frc consts  --      6.8518                 7.4531                 7.7942
 IR Inten    --      1.9061                90.8270               232.3335

                     85                     86                     87
                      A                      A                      A
 Frequencies --   3531.3331              3639.0456              3788.0910
 Red. masses --      1.0945                 1.0816                 1.0663
 Frc consts  --      8.0415                 8.4394                 9.0151
 IR Inten    --     76.2152                62.7570                79.5071

 - Thermochemistry -
 -------------------
 Temperature   298.150 Kelvin.  Pressure   1.00000 Atm.
 Atom     1 has atomic number  8 and mass  15.99491

 Molecular mass:   227.11442 amu.
 Principal axes and moments of inertia in atomic units:
                           1         2         3
     Eigenvalues --  2311.494274892.288465751.38622
           X            0.98908   0.14103  -0.04282
           Y           -0.08063   0.76095   0.64378
           Z            0.12338  -0.63330   0.76401
 This molecule is an asymmetric top.
 Rotational symmetry number  1.
 Warning -- assumption of classical behavior for rotation
           may cause significant error
 Rotational temperatures (Kelvin)      0.03747     0.01770     0.01506
 Rotational constants (GHZ):           0.78077     0.36890     0.31379
 Zero-point vibrational energy     681026.4 (Joules/Mol)
                                  162.76921 (Kcal/Mol)
 Warning -- explicit consideration of  22 degrees of freedom as
           vibrations may cause significant error
 Vibrational temperatures:     16.01    35.60    70.59    93.00   101.11
          (Kelvin)            124.19   178.28   208.82   289.37   311.30
                              364.59   461.43   486.63   497.75   528.33
                              556.12   642.99   675.61   734.93   762.81
                              805.47   871.89   926.77   972.58   983.05
                             1006.57  1009.11  1082.70  1122.28  1204.57
                             1226.88  1231.11  1256.45  1283.49  1349.05
                             1362.30  1379.10  1384.83  1435.56  1451.12
                             1500.56  1590.61  1600.32  1627.29  1633.87
                             1651.88  1688.52  1737.96  1779.96  1811.45
                             1821.24  1849.06  1858.61  1901.18  1917.96
                             1964.61  1985.03  2000.24  2018.32  2038.43
                             2053.37  2129.25  2136.14  2150.31  2155.24
                             2175.85  2262.19  2302.81  2348.12  2407.72
                             2441.33  2627.15  3857.76  4399.25  4409.95
                             4422.69  4455.52  4468.91  4493.64  4540.23
                             4643.32  4680.11  4989.08  5038.93  5080.79
                             5235.77  5450.21

 Zero-point correction=                           0.259389 (Hartree/Particle)
 Thermal correction to Energy=                    0.274910
 Thermal correction to Enthalpy=                  0.275854
 Thermal correction to Gibbs Free Energy=         0.213450
 Sum of electronic and zero-point Energies=           -796.557033
 Sum of electronic and thermal Energies=              -796.541512
 Sum of electronic and thermal Enthalpies=            -796.540568
 Sum of electronic and thermal Free Energies=         -796.602972

                     E (Thermal)             CV                S
                      KCal/Mol        Cal/Mol-Kelvin    Cal/Mol-Kelvin
 Total                  172.509             57.576            131.341
 Electronic               0.000              0.000              0.000
 Translational            0.889              2.981             42.163
 Rotational               0.889              2.981             32.542
 Vibrational            170.731             51.614             56.636
 Vibration     1          0.593              1.987              7.799
 Vibration     2          0.593              1.985              6.212
 Vibration     3          0.595              1.978              4.855
 Vibration     4          0.597              1.971              4.310
 Vibration     5          0.598              1.968              4.146
 Vibration     6          0.601              1.959              3.742
 Vibration     7          0.610              1.929              3.038
 Vibration     8          0.617              1.908              2.735
 Vibration     9          0.638              1.838              2.123
 Vibration    10          0.645              1.816              1.989
 Vibration    11          0.665              1.757              1.707
 Vibration    12          0.706              1.634              1.306
 Vibration    13          0.719              1.599              1.221
 Vibration    14          0.724              1.583              1.185
 Vibration    15          0.740              1.540              1.091
 Vibration    16          0.755              1.499              1.014
 Vibration    17          0.806              1.368              0.805
 Vibration    18          0.827              1.318              0.739
 Vibration    19          0.866              1.226              0.632
 Vibration    20          0.885              1.183              0.587
 Vibration    21          0.915              1.118              0.524
 Vibration    22          0.965              1.019              0.439

 Optimization completed on the basis of negligible forces.
    -- Stationary point found.
 Normal termination of Gaussian 09 at Thu Jul 29 14:45:24 2021.
