 Gaussian 09, Revision D.01,
 Gaussian 09:  ES64L-G09RevD.01 24-Apr-2013

 ----------------------------------------------------------------------
 # B3LYP/6-311++G(2df,2pd) EmpiricalDispersion=GD3BJ opt=calcfc freq=no
 raman nosymm integral(ultrafinegrid)
 ----------------------------------------------------------------------

 ------------------------------------------------------------
 Candidate Structure: Conf:719 OPT and FREQ calc in gas phase
 ------------------------------------------------------------
 Symbolic Z-matrix:
 Charge =  1 Multiplicity = 1

 SCF Done:  E(RB3LYP) =  -796.784277305     A.U. after   16 cycles
 SCF Done:  E(RB3LYP) =  -796.791532960     A.U. after   14 cycles
 SCF Done:  E(RB3LYP) =  -796.792560082     A.U. after   15 cycles
 SCF Done:  E(RB3LYP) =  -796.793685272     A.U. after   12 cycles
 SCF Done:  E(RB3LYP) =  -796.793808005     A.U. after   12 cycles
 SCF Done:  E(RB3LYP) =  -796.793824453     A.U. after   11 cycles
 SCF Done:  E(RB3LYP) =  -796.793826881     A.U. after   10 cycles
 SCF Done:  E(RB3LYP) =  -796.793828269     A.U. after   10 cycles
 SCF Done:  E(RB3LYP) =  -796.793828907     A.U. after   10 cycles
 SCF Done:  E(RB3LYP) =  -796.793829157     A.U. after    9 cycles
 SCF Done:  E(RB3LYP) =  -796.793829396     A.U. after    9 cycles
 SCF Done:  E(RB3LYP) =  -796.793829615     A.U. after    9 cycles
 SCF Done:  E(RB3LYP) =  -796.793829667     A.U. after    8 cycles
 Optimization completed.
    -- Stationary point found.
 Normal termination of Gaussian 09 at Sat Jul 24 15:57:20 2021.

 ----------------------------------------------------------------------
 #N Geom=AllCheck Guess=TCheck SCRF=Check GenChk RB3LYP/6-311++G(2df,2p
 d) Freq
 ----------------------------------------------------------------------

 Structure from the checkpoint file:  "conf-719.chk"
 ------------------------------------------------------------
 Candidate Structure: Conf:719 OPT and FREQ calc in gas phase
 ------------------------------------------------------------
 Charge =  1 Multiplicity = 1

                          Input orientation:
 ---------------------------------------------------------------------
 Center     Atomic      Atomic             Coordinates (Angstroms)
 Number     Number       Type             X           Y           Z
 ---------------------------------------------------------------------
      1          8           0       -0.912007    0.121760    1.303803
      2          6           0       -1.339432    0.225823    0.166456
      3          7           0       -0.573249    0.324054   -0.929127
      4          6           0        0.879370    0.361214   -0.855596
      5          6           0        1.345534    0.880630   -2.202781
      6          8           0        2.677660    1.013280   -2.274095
      7          8           0        0.605381    1.128698   -3.120125
      8          6           0        1.496932   -1.028078   -0.502543
      9          6           0        2.717446   -0.971977    0.343384
     10          6           0        2.888948   -1.273039    1.669826
     11          7           0        4.193958   -1.079551    2.049230
     12          6           0        4.815687   -0.663226    0.973326
     13          7           0        3.968794   -0.583526   -0.092337
     14          6           0       -2.857641    0.212492   -0.085846
     15          6           0       -3.540899    0.658153    1.192446
     16          7           0       -5.035858    0.383144    1.138542
     17          1           0       -0.968821    0.497829   -1.842868
     18          1           0        1.180273    1.067264   -0.080109
     19          1           0        2.898290    1.344877   -3.158409
     20          1           0        0.743137   -1.564702    0.067944
     21          1           0        1.662488   -1.594297   -1.422025
     22          1           0        2.141792   -1.620394    2.363245
     23          1           0        5.859830   -0.409398    0.902208
     24          1           0        4.189382   -0.241704   -1.011099
     25          1           0       -3.137083   -0.815792   -0.334133
     26          1           0       -3.126848    0.844862   -0.932907
     27          1           0       -3.430111    1.724193    1.373471
     28          1           0       -3.144403    0.117850    2.047295
     29          1           0       -5.219105   -0.614190    1.011132
     30          1           0       -5.495183    0.674784    2.003513
     31          1           0       -5.484045    0.879022    0.365890
 ---------------------------------------------------------------------

 SCF Done:  E(RB3LYP) =  -796.793829667     A.U. after    1 cycles

 Alpha  occ. eigenvalues --  -19.29781 -19.24161 -19.22810 -14.63975 -14.47365
 Alpha  occ. eigenvalues --  -14.43923 -14.35965 -10.43114 -10.41675 -10.41510
 Alpha  occ. eigenvalues --  -10.35772 -10.34824 -10.29208 -10.29167 -10.27999
 Alpha  occ. eigenvalues --  -10.25251  -1.24118  -1.20688  -1.18401  -1.15276
 Alpha  occ. eigenvalues --   -1.08945  -1.06782  -0.96947  -0.94545  -0.91256
 Alpha  occ. eigenvalues --   -0.85568  -0.83397  -0.79206  -0.78737  -0.77684
 Alpha  occ. eigenvalues --   -0.74929  -0.71687  -0.69472  -0.68927  -0.66708
 Alpha  occ. eigenvalues --   -0.65502  -0.64847  -0.63193  -0.61593  -0.60163
 Alpha  occ. eigenvalues --   -0.59997  -0.58349  -0.57891  -0.56055  -0.54996
 Alpha  occ. eigenvalues --   -0.54116  -0.53621  -0.51996  -0.50754  -0.49629
 Alpha  occ. eigenvalues --   -0.48696  -0.48524  -0.47968  -0.45524  -0.41466
 Alpha  occ. eigenvalues --   -0.40284  -0.40062  -0.35730  -0.33991  -0.30509
 Alpha virt. eigenvalues --   -0.20121  -0.14694  -0.14297  -0.13471  -0.12475
 Alpha virt. eigenvalues --   -0.11996  -0.10850  -0.09941  -0.09371  -0.08677
 Alpha virt. eigenvalues --   -0.07911  -0.07323  -0.06565  -0.06027  -0.05773

 Mulliken charges:
               1
     1  O   -0.379530
     2  C   -0.112115
     3  N    0.140900
     4  C   -0.141055
     5  C    0.335384
     6  O   -0.247013
     7  O   -0.390018
     8  C    0.240581
     9  C    0.015726
    10  C   -0.249325
    11  N   -0.278192
    12  C    0.114945
    13  N    0.006300
    14  C    0.080538
    15  C   -0.294413
    16  N    0.299229
    17  H    0.148213
    18  H    0.106507
    19  H    0.275240
    20  H    0.088558
    21  H    0.067712
    22  H    0.072849
    23  H    0.112588
    24  H    0.147500
    25  H    0.056160
    26  H    0.049126
    27  H    0.111077
    28  H    0.135143
    29  H    0.162874
    30  H    0.160746
    31  H    0.163764
 Sum of Mulliken charges =   1.00000

 Dipole moment (field-independent basis, Debye):
    X=            -19.3589    Y=              2.9155    Z=             -1.5633  Tot=             19.6395
 Quadrupole moment (field-independent basis, Debye-Ang):
   XX=             27.7729   YY=            -89.5855   ZZ=            -91.4741
   XY=             -0.8631   XZ=            -44.3273   YZ=              3.4232

  Exact polarizability: 184.572  -2.171 102.119   1.999 -13.514 146.772
 Approx polarizability: 231.222   6.107 158.144   9.884 -17.531 235.314

 ******    1 imaginary frequencies (negative Signs) ******

                      1                      2                      3
                      A                      A                      A
 Frequencies --    -15.4192                20.0058                33.3885
 Red. masses --      1.7647                 4.3909                 4.4436
 Frc consts  --      0.0002                 0.0010                 0.0029
 IR Inten    --      0.9042                 6.3032                14.7725

                      4                      5                      6
                      A                      A                      A
 Frequencies --     37.8531                59.5078                76.6931
 Red. masses --      5.2286                 7.1358                 8.1358
 Frc consts  --      0.0044                 0.0149                 0.0282
 IR Inten    --      7.4201                 3.0460                10.2410

                      7                      8                      9
                      A                      A                      A
 Frequencies --     92.7655               110.0680               124.6094
 Red. masses --      3.8430                 4.7808                 4.7865
 Frc consts  --      0.0195                 0.0341                 0.0438
 IR Inten    --      2.8674                 8.0363                 3.8414

                     10                     11                     12
                      A                      A                      A
 Frequencies --    188.4144               215.2433               230.4489
 Red. masses --      4.9264                 2.1235                 1.4963
 Frc consts  --      0.1030                 0.0580                 0.0468
 IR Inten    --      2.5053                10.9655                 3.4442

                     13                     14                     15
                      A                      A                      A
 Frequencies --    271.3746               307.7575               331.2407
 Red. masses --      5.3735                 3.0792                 3.2104
 Frc consts  --      0.2332                 0.1718                 0.2075
 IR Inten    --     18.5542                 2.8603                 3.5488

                     16                     17                     18
                      A                      A                      A
 Frequencies --    347.7321               374.3732               386.8589
 Red. masses --      6.1239                 3.8685                 3.9783
 Frc consts  --      0.4363                 0.3194                 0.3508
 IR Inten    --     11.7620                 5.2922                12.6655

                     19                     20                     21
                      A                      A                      A
 Frequencies --    538.0323               547.2512               560.6027
 Red. masses --      2.4852                 1.4607                 1.9760
 Frc consts  --      0.4239                 0.2577                 0.3659
 IR Inten    --     44.8314                91.2064                 7.7573

                     22                     23                     24
                      A                      A                      A
 Frequencies --    594.5296               638.1306               645.3798
 Red. masses --      1.6238                 2.7802                 1.7456
 Frc consts  --      0.3382                 0.6670                 0.4284
 IR Inten    --     46.3456                50.3955                10.4577

                     25                     26                     27
                      A                      A                      A
 Frequencies --    666.5789               680.9388               713.6226
 Red. masses --      2.3293                 2.7788                 3.9276
 Frc consts  --      0.6098                 0.7591                 1.1785
 IR Inten    --     68.4689                 6.1176                 2.5266

                     28                     29                     30
                      A                      A                      A
 Frequencies --    739.7826               773.9050               797.2223
 Red. masses --      3.3135                 3.0201                 1.4360
 Frc consts  --      1.0684                 1.0657                 0.5377
 IR Inten    --     19.6031                 8.2368                 9.2755

                     31                     32                     33
                      A                      A                      A
 Frequencies --    825.0789               835.6705               864.3425
 Red. masses --      2.5919                 1.4205                 1.4639
 Frc consts  --      1.0396                 0.5845                 0.6444
 IR Inten    --     11.7117                20.5441                15.4761

                     34                     35                     36
                      A                      A                      A
 Frequencies --    886.5867               918.2470               928.1037
 Red. masses --      2.7072                 1.2816                 3.6254
 Frc consts  --      1.2538                 0.6367                 1.8399
 IR Inten    --     31.4956                 3.4349                22.0514

                     37                     38                     39
                      A                      A                      A
 Frequencies --    940.7550               981.4212              1004.4006
 Red. masses --      5.6452                 2.1571                 4.9582
 Frc consts  --      2.9436                 1.2241                 2.9470
 IR Inten    --     11.0565                16.5196                 2.9987

                     40                     41                     42
                      A                      A                      A
 Frequencies --   1012.4892              1031.5666              1086.0152
 Red. masses --      3.0909                 3.5055                 2.2644
 Frc consts  --      1.8669                 2.1979                 1.5735
 IR Inten    --     39.9045                14.7006                38.0628

                     43                     44                     45
                      A                      A                      A
 Frequencies --   1110.3924              1111.7379              1143.9159
 Red. masses --      1.8137                 1.6921                 2.1812
 Frc consts  --      1.3175                 1.2322                 1.6816
 IR Inten    --      8.7501                48.2655                 1.8887

                     46                     47                     48
                      A                      A                      A
 Frequencies --   1148.5775              1188.6822              1191.7073
 Red. masses --      2.2836                 2.6090                 1.3118
 Frc consts  --      1.7749                 2.1720                 1.0977
 IR Inten    --     26.5069               173.6098                 6.1221

                     49                     50                     51
                      A                      A                      A
 Frequencies --   1240.7597              1264.1381              1280.2524
 Red. masses --      1.5919                 2.2423                 1.4621
 Frc consts  --      1.4439                 2.1112                 1.4119
 IR Inten    --     18.2135                 8.1287                 4.5973

                     52                     53                     54
                      A                      A                      A
 Frequencies --   1289.2933              1306.6499              1320.9889
 Red. masses --      1.3122                 1.3540                 1.2255
 Frc consts  --      1.2852                 1.3620                 1.2600
 IR Inten    --      2.3762                 4.4523                 4.9699

                     55                     56                     57
                      A                      A                      A
 Frequencies --   1330.8479              1354.8827              1359.1265
 Red. masses --      1.2304                 1.4242                 1.4727
 Frc consts  --      1.2840                 1.5404                 1.6028
 IR Inten    --      5.5731                18.4814                27.6531

                     58                     59                     60
                      A                      A                      A
 Frequencies --   1393.5268              1407.9823              1419.5735
 Red. masses --      3.2806                 1.3377                 2.4500
 Frc consts  --      3.7535                 1.5624                 2.9089
 IR Inten    --     41.8191                24.2557                97.4352

                     61                     62                     63
                      A                      A                      A
 Frequencies --   1427.1148              1477.2582              1480.9263
 Red. masses --      2.6772                 1.1482                 1.1152
 Frc consts  --      3.2126                 1.4763                 1.4411
 IR Inten    --     24.8913                24.9957                 1.2155

                     64                     65                     66
                      A                      A                      A
 Frequencies --   1496.9712              1505.7412              1513.7309
 Red. masses --      3.1490                 1.0759                 1.1762
 Frc consts  --      4.1577                 1.4373                 1.5879
 IR Inten    --     24.2207                26.7489               171.8638

                     67                     68                     69
                      A                      A                      A
 Frequencies --   1540.9631              1605.3163              1665.4158
 Red. masses --      2.3341                 4.3357                 1.0426
 Frc consts  --      3.2655                 6.5832                 1.7038
 IR Inten    --    299.9438                 3.8351                45.6995

                     70                     71                     72
                      A                      A                      A
 Frequencies --   1669.5733              1743.3177              1802.5774
 Red. masses --      1.0445                 9.8747                 9.5855
 Frc consts  --      1.7154                17.6818                18.3508
 IR Inten    --     38.3859               270.6266               309.3342

                     73                     74                     75
                      A                      A                      A
 Frequencies --   3028.7471              3036.2708              3066.8450
 Red. masses --      1.0629                 1.0703                 1.0831
 Frc consts  --      5.7446                 5.8132                 6.0020
 IR Inten    --      4.1368                20.1756                 5.8506

                     76                     77                     78
                      A                      A                      A
 Frequencies --   3082.4868              3103.1609              3118.0283
 Red. masses --      1.1004                 1.0597                 1.0932
 Frc consts  --      6.1604                 6.0125                 6.2621
 IR Inten    --      4.7108                 4.1536                 3.5094

                     79                     80                     81
                      A                      A                      A
 Frequencies --   3161.6466              3240.5236              3249.7426
 Red. masses --      1.1112                 1.0963                 1.0990
 Frc consts  --      6.5444                 6.7826                 6.8381
 IR Inten    --      2.6889                 4.0975                 1.1517

                     82                     83                     84
                      A                      A                      A
 Frequencies --   3406.2316              3483.9059              3486.0952
 Red. masses --      1.0297                 1.0929                 1.0932
 Frc consts  --      7.0387                 7.8158                 7.8274
 IR Inten    --     52.8243                89.6235                88.9370

                     85                     86                     87
                      A                      A                      A
 Frequencies --   3565.7903              3663.3858              3734.8559
 Red. masses --      1.0780                 1.0808                 1.0644
 Frc consts  --      8.0761                 8.5461                 8.7479
 IR Inten    --    115.0177                78.7619               127.1535

 - Thermochemistry -
 -------------------
 Temperature   298.150 Kelvin.  Pressure   1.00000 Atm.
 Atom     1 has atomic number  8 and mass  15.99491

 Molecular mass:   227.11442 amu.
 Principal axes and moments of inertia in atomic units:
                           1         2         3
     Eigenvalues --  2240.505466962.469848914.76872
           X            0.98969   0.00099   0.14323
           Y           -0.13323  -0.36079   0.92308
           Z           -0.05259   0.93265   0.35694
 This molecule is an asymmetric top.
 Rotational symmetry number  1.
 Warning -- assumption of classical behavior for rotation
           may cause significant error
 Rotational temperatures (Kelvin)      0.03866     0.01244     0.00972
 Rotational constants (GHZ):           0.80551     0.25921     0.20244
    1 imaginary frequencies ignored.
 Zero-point vibrational energy     679710.0 (Joules/Mol)
                                  162.45460 (Kcal/Mol)
 Warning -- explicit consideration of  21 degrees of freedom as
           vibrations may cause significant error
 Vibrational temperatures:     28.78    48.04    54.46    85.62   110.34
          (Kelvin)            133.47   158.36   179.28   271.09   309.69
                              331.56   390.45   442.79   476.58   500.31
                              538.64   556.60   774.11   787.37   806.58
                              855.39   918.13   928.56   959.06   979.72
                             1026.74  1064.38  1113.48  1147.02  1187.10
                             1202.34  1243.59  1275.60  1321.15  1335.33
                             1353.53  1412.04  1445.11  1456.74  1484.19
                             1562.53  1597.60  1599.54  1645.84  1652.54
                             1710.25  1714.60  1785.17  1818.81  1842.00
                             1855.00  1879.98  1900.61  1914.79  1949.37
                             1955.48  2004.97  2025.77  2042.45  2053.30
                             2125.44  2130.72  2153.81  2166.42  2177.92
                             2217.10  2309.69  2396.16  2402.14  2508.24
                             2593.50  4357.69  4368.51  4412.50  4435.01
                             4464.75  4486.14  4548.90  4662.38  4675.65
                             4900.80  5012.56  5015.71  5130.37  5270.79
                             5373.62

 Zero-point correction=                           0.258888 (Hartree/Particle)
 Thermal correction to Energy=                    0.274497
 Thermal correction to Enthalpy=                  0.275441
 Thermal correction to Gibbs Free Energy=         0.212847
 Sum of electronic and zero-point Energies=           -796.534942
 Sum of electronic and thermal Energies=              -796.519333
 Sum of electronic and thermal Enthalpies=            -796.518389
 Sum of electronic and thermal Free Energies=         -796.580983

                     E (Thermal)             CV                S
                      KCal/Mol        Cal/Mol-Kelvin    Cal/Mol-Kelvin
 Total                  172.249             57.015            131.740
 Electronic               0.000              0.000              0.000
 Translational            0.889              2.981             42.163
 Rotational               0.889              2.981             33.297
 Vibrational            170.472             51.053             56.280
 Vibration     1          0.593              1.986              6.634
 Vibration     2          0.594              1.983              5.617
 Vibration     3          0.594              1.982              5.368
 Vibration     4          0.597              1.974              4.473
 Vibration     5          0.599              1.965              3.974
 Vibration     6          0.602              1.954              3.601
 Vibration     7          0.606              1.941              3.268
 Vibration     8          0.610              1.928              3.028
 Vibration     9          0.633              1.856              2.243
 Vibration    10          0.645              1.818              1.999
 Vibration    11          0.652              1.794              1.875
 Vibration    12          0.675              1.726              1.587
 Vibration    13          0.698              1.659              1.374
 Vibration    14          0.714              1.613              1.254
 Vibration    15          0.725              1.580              1.176
 Vibration    16          0.745              1.525              1.062
 Vibration    17          0.755              1.498              1.012
 Vibration    18          0.893              1.166              0.570
 Vibration    19          0.902              1.146              0.550
 Vibration    20          0.916              1.117              0.523
 Vibration    21          0.952              1.043              0.459

 Optimization completed.
    -- Stationary point found.
 Normal termination of Gaussian 09 at Sat Jul 24 22:41:16 2021.
