 Gaussian 09, Revision D.01,
 Gaussian 09:  ES64L-G09RevD.01 24-Apr-2013

 ----------------------------------------------------------------------
 # B3LYP/6-311++G(2df,2pd) EmpiricalDispersion=GD3BJ guess=read geom=ch
 eckpoint opt=readfc freq=noraman nosymm integral(ultrafinegrid)
 ----------------------------------------------------------------------

 ------------------------------------------------------------
 Candidate Structure: Conf:318 OPT and FREQ calc in gas phase
 ------------------------------------------------------------
 Structure from the checkpoint file:  "conf-318.chk"
 Charge =  1 Multiplicity = 1

 SCF Done:  E(RB3LYP) =  -796.823601620     A.U. after    2 cycles
 SCF Done:  E(RB3LYP) =  -796.823762678     A.U. after   11 cycles
 SCF Done:  E(RB3LYP) =  -796.824187530     A.U. after   13 cycles
 SCF Done:  E(RB3LYP) =  -796.824271197     A.U. after   12 cycles
 SCF Done:  E(RB3LYP) =  -796.824281217     A.U. after   10 cycles
 SCF Done:  E(RB3LYP) =  -796.824283092     A.U. after   10 cycles
 SCF Done:  E(RB3LYP) =  -796.824283272     A.U. after    8 cycles
 Optimization completed.
    -- Stationary point found.
 Normal termination of Gaussian 09 at Fri Jul 30 21:17:45 2021.

 ----------------------------------------------------------------------
 #N Geom=AllCheck Guess=TCheck SCRF=Check GenChk RB3LYP/6-311++G(2df,2p
 d) Freq
 ----------------------------------------------------------------------

 Structure from the checkpoint file:  "conf-318.chk"
 ------------------------------------------------------------
 Candidate Structure: Conf:318 OPT and FREQ calc in gas phase
 ------------------------------------------------------------
 Charge =  1 Multiplicity = 1

                          Input orientation:
 ---------------------------------------------------------------------
 Center     Atomic      Atomic             Coordinates (Angstroms)
 Number     Number       Type             X           Y           Z
 ---------------------------------------------------------------------
      1          8           0        0.720036    0.604762    1.327052
      2          6           0        0.872665   -0.437878    0.711308
      3          7           0       -0.079319   -1.391850    0.609499
      4          6           0       -1.420989   -1.206217    1.107320
      5          6           0       -1.997201   -2.593236    1.390948
      6          8           0       -3.037837   -2.657623    2.232715
      7          8           0       -1.581070   -3.570408    0.836952
      8          6           0       -2.351599   -0.493111    0.051853
      9          6           0       -1.668877    0.682734   -0.536689
     10          6           0       -0.718594    0.718122   -1.517836
     11          7           0       -0.062216    1.931416   -1.505658
     12          6           0       -0.636472    2.643074   -0.551742
     13          7           0       -1.617101    1.933717    0.043799
     14          6           0        2.198413   -0.746151    0.012535
     15          6           0        3.010717    0.511679   -0.251136
     16          7           0        2.570408    1.253711   -1.490468
     17          1           0        0.100908   -2.279755    0.162238
     18          1           0       -1.369776   -0.598410    2.010385
     19          1           0       -3.213652   -1.816295    2.670034
     20          1           0       -2.577108   -1.207316   -0.739088
     21          1           0       -3.296884   -0.228947    0.526557
     22          1           0       -0.454228   -0.067023   -2.204856
     23          1           0       -0.378795    3.648201   -0.267660
     24          1           0       -2.171181    2.250211    0.822360
     25          1           0        2.043769   -1.329685   -0.897224
     26          1           0        2.784172   -1.378886    0.682736
     27          1           0        4.062646    0.273632   -0.385429
     28          1           0        2.896725    1.200410    0.581581
     29          1           0        2.680474    0.673221   -2.321095
     30          1           0        3.154085    2.077657   -1.628908
     31          1           0        1.537832    1.600488   -1.481883
 ---------------------------------------------------------------------

 SCF Done:  E(RB3LYP) =  -796.824283272     A.U. after    1 cycles

 Alpha  occ. eigenvalues --  -19.29686 -19.23584 -19.22896 -14.56829 -14.51088
 Alpha  occ. eigenvalues --  -14.47636 -14.45106 -10.43073 -10.41514 -10.38341
 Alpha  occ. eigenvalues --  -10.37292 -10.36766 -10.34667 -10.33941 -10.33021
 Alpha  occ. eigenvalues --  -10.32602  -1.23545  -1.18606  -1.16615  -1.15532
 Alpha  occ. eigenvalues --   -1.14202  -1.07281  -1.02369  -0.95069  -0.93339
 Alpha  occ. eigenvalues --   -0.88659  -0.82926  -0.80303  -0.76658  -0.75488
 Alpha  occ. eigenvalues --   -0.74105  -0.73271  -0.72977  -0.71650  -0.69681
 Alpha  occ. eigenvalues --   -0.67387  -0.65121  -0.63899  -0.62585  -0.61525
 Alpha  occ. eigenvalues --   -0.59583  -0.58944  -0.58106  -0.57604  -0.56264
 Alpha  occ. eigenvalues --   -0.56164  -0.55700  -0.54827  -0.53831  -0.53307
 Alpha  occ. eigenvalues --   -0.52243  -0.50933  -0.50137  -0.45083  -0.44815
 Alpha  occ. eigenvalues --   -0.43491  -0.41714  -0.40257  -0.40066  -0.37399
 Alpha virt. eigenvalues --   -0.15756  -0.14140  -0.13497  -0.12628  -0.12310
 Alpha virt. eigenvalues --   -0.12002  -0.10574  -0.10472  -0.09990  -0.09488
 Alpha virt. eigenvalues --   -0.08614  -0.08098  -0.07245  -0.07143  -0.06371

 Mulliken charges:
               1
     1  O   -0.374199
     2  C   -0.024647
     3  N    0.153979
     4  C    0.008390
     5  C    0.096677
     6  O   -0.141906
     7  O   -0.283625
     8  C   -0.373931
     9  C    0.391950
    10  C   -0.287741
    11  N   -0.297691
    12  C    0.040133
    13  N    0.082522
    14  C    0.037268
    15  C   -0.147207
    16  N    0.075088
    17  H    0.161384
    18  H    0.102499
    19  H    0.215830
    20  H    0.110330
    21  H    0.067675
    22  H    0.098858
    23  H    0.127774
    24  H    0.152078
    25  H    0.046167
    26  H    0.084191
    27  H    0.105283
    28  H    0.103425
    29  H    0.138943
    30  H    0.156223
    31  H    0.374281
 Sum of Mulliken charges =   1.00000

 Dipole moment (field-independent basis, Debye):
    X=              4.6513    Y=              5.2161    Z=             -2.1333  Tot=              7.3071
 Quadrupole moment (field-independent basis, Debye-Ang):
   XX=            -48.3999   YY=            -89.6650   ZZ=            -80.5393
   XY=             -1.5167   XZ=            -21.6935   YZ=             -0.2548

  Exact polarizability: 148.870  12.557 148.428 -19.329  -6.515 117.229
 Approx polarizability: 207.515  10.645 229.871 -29.495  17.488 191.086

                      1                      2                      3
                      A                      A                      A
 Frequencies --     49.2566                53.1610                84.6446
 Red. masses --      3.8293                 6.9122                 3.1273
 Frc consts  --      0.0055                 0.0115                 0.0132
 IR Inten    --      2.9272                 3.8971                 7.1525

                      4                      5                      6
                      A                      A                      A
 Frequencies --     99.3142               119.9678               125.9849
 Red. masses --      4.4706                 4.6126                 5.1742
 Frc consts  --      0.0260                 0.0391                 0.0484
 IR Inten    --     11.9287                 3.7957                 5.0884

                      7                      8                      9
                      A                      A                      A
 Frequencies --    139.4499               160.1098               163.8103
 Red. masses --      5.0907                 6.3802                 6.9903
 Frc consts  --      0.0583                 0.0964                 0.1105
 IR Inten    --     28.9528                 6.4605                 0.9303

                     10                     11                     12
                      A                      A                      A
 Frequencies --    263.3238               272.2339               301.3686
 Red. masses --      2.4336                 4.7354                 4.5729
 Frc consts  --      0.0994                 0.2068                 0.2447
 IR Inten    --     29.5199                77.8240                16.1729

                     13                     14                     15
                      A                      A                      A
 Frequencies --    320.4337               333.4677               352.9565
 Red. masses --      3.0284                 3.6449                 3.3447
 Frc consts  --      0.1832                 0.2388                 0.2455
 IR Inten    --      6.1081                15.9470                 0.3944

                     16                     17                     18
                      A                      A                      A
 Frequencies --    387.8235               434.4452               475.0566
 Red. masses --      2.0458                 2.3132                 1.2989
 Frc consts  --      0.1813                 0.2572                 0.1727
 IR Inten    --      1.3975                 8.9990                42.2462

                     19                     20                     21
                      A                      A                      A
 Frequencies --    483.4003               532.7282               561.1979
 Red. masses --      1.4112                 1.9957                 2.6099
 Frc consts  --      0.1943                 0.3337                 0.4843
 IR Inten    --     35.7841                66.0197                16.2120

                     22                     23                     24
                      A                      A                      A
 Frequencies --    604.1555               616.7114               649.7703
 Red. masses --      1.3791                 2.0186                 3.5601
 Frc consts  --      0.2966                 0.4523                 0.8856
 IR Inten    --     90.3204                20.2373                11.5299

                     25                     26                     27
                      A                      A                      A
 Frequencies --    674.6966               683.8035               688.5920
 Red. masses --      4.2601                 2.8565                 3.0793
 Frc consts  --      1.1426                 0.7870                 0.8603
 IR Inten    --      8.6778                 3.1469                 7.1705

                     28                     29                     30
                      A                      A                      A
 Frequencies --    719.2810               773.4920               833.4601
 Red. masses --      3.4717                 5.1794                 2.0337
 Frc consts  --      1.0583                 1.8258                 0.8323
 IR Inten    --     19.3590                 6.5017                 9.7460

                     31                     32                     33
                      A                      A                      A
 Frequencies --    844.6781               849.7763               870.0728
 Red. masses --      2.2744                 1.4335                 2.1698
 Frc consts  --      0.9561                 0.6099                 0.9678
 IR Inten    --     14.3539                11.2849                10.3657

                     34                     35                     36
                      A                      A                      A
 Frequencies --    873.1657               925.9766               951.8344
 Red. masses --      2.4077                 2.0212                 1.8476
 Frc consts  --      1.0815                 1.0211                 0.9863
 IR Inten    --      8.7248                 0.2100                 8.9715

                     37                     38                     39
                      A                      A                      A
 Frequencies --    963.9832               970.6472              1000.2435
 Red. masses --      4.0751                 3.6203                 3.0049
 Frc consts  --      2.2312                 2.0097                 1.7713
 IR Inten    --     12.6777                 3.6407                 3.1755

                     40                     41                     42
                      A                      A                      A
 Frequencies --   1029.4820              1038.7261              1092.8590
 Red. masses --      3.1407                 3.0964                 1.9542
 Frc consts  --      1.9612                 1.9684                 1.3752
 IR Inten    --      4.0175                15.8383                 7.4823

                     43                     44                     45
                      A                      A                      A
 Frequencies --   1118.2948              1133.6502              1143.4465
 Red. masses --      1.5376                 2.1989                 1.5836
 Frc consts  --      1.1330                 1.6650                 1.2199
 IR Inten    --      5.1108                20.5221                16.6243

                     46                     47                     48
                      A                      A                      A
 Frequencies --   1148.3611              1160.8052              1203.3503
 Red. masses --      1.4706                 1.6810                 1.6654
 Frc consts  --      1.1426                 1.3345                 1.4209
 IR Inten    --     10.2213                 1.6110                15.6345

                     49                     50                     51
                      A                      A                      A
 Frequencies --   1234.3459              1255.3264              1275.7711
 Red. masses --      1.6188                 1.6422                 1.4144
 Frc consts  --      1.4531                 1.5248                 1.3563
 IR Inten    --     83.6703                30.4023                11.4748

                     52                     53                     54
                      A                      A                      A
 Frequencies --   1282.2901              1296.9913              1320.1874
 Red. masses --      1.7887                 1.5204                 1.9994
 Frc consts  --      1.7329                 1.5069                 2.0531
 IR Inten    --     67.7879                 1.7379               241.1334

                     55                     56                     57
                      A                      A                      A
 Frequencies --   1339.9188              1347.9288              1368.3832
 Red. masses --      1.3219                 1.3116                 1.4168
 Frc consts  --      1.3983                 1.4040                 1.5631
 IR Inten    --     46.1846                46.1816                85.6704

                     58                     59                     60
                      A                      A                      A
 Frequencies --   1391.0130              1405.3416              1423.7274
 Red. masses --      3.1517                 1.6913                 1.3701
 Frc consts  --      3.5930                 1.9680                 1.6362
 IR Inten    --     29.6090                73.4518                 9.3386

                     61                     62                     63
                      A                      A                      A
 Frequencies --   1441.2194              1463.2055              1486.1675
 Red. masses --      2.4730                 1.0891                 1.1750
 Frc consts  --      3.0264                 1.3738                 1.5291
 IR Inten    --     32.4098                16.4268                13.1072

                     64                     65                     66
                      A                      A                      A
 Frequencies --   1493.2367              1510.2420              1533.7872
 Red. masses --      1.0951                 2.8934                 2.1545
 Frc consts  --      1.4386                 3.8883                 2.9863
 IR Inten    --     19.8175                46.8366               206.1083

                     67                     68                     69
                      A                      A                      A
 Frequencies --   1568.9005              1619.9822              1659.3886
 Red. masses --      1.1748                 4.2069                 1.0405
 Frc consts  --      1.7037                 6.5048                 1.6881
 IR Inten    --    100.0007                14.2401                60.2525

                     70                     71                     72
                      A                      A                      A
 Frequencies --   1717.5224              1735.1455              1840.1989
 Red. masses --      1.0516                 8.9412                 9.9567
 Frc consts  --      1.8276                15.8606                19.8652
 IR Inten    --     12.0845               211.5806               219.5964

                     73                     74                     75
                      A                      A                      A
 Frequencies --   2335.5639              3046.5123              3060.8034
 Red. masses --      1.1058                 1.0614                 1.0605
 Frc consts  --      3.5539                 5.8042                 5.8536
 IR Inten    --   2067.8728                 4.5155                 9.3068

                     76                     77                     78
                      A                      A                      A
 Frequencies --   3076.4967              3081.5122              3096.4396
 Red. masses --      1.0863                 1.0973                 1.0642
 Frc consts  --      6.0579                 6.1388                 6.0119
 IR Inten    --      5.3571                 3.7625                 6.0470

                     79                     80                     81
                      A                      A                      A
 Frequencies --   3109.4270              3150.0043              3245.7921
 Red. masses --      1.1035                 1.1092                 1.0976
 Frc consts  --      6.2862                 6.4848                 6.8127
 IR Inten    --      5.6076                 0.3553                 0.9872

                     82                     83                     84
                      A                      A                      A
 Frequencies --   3266.1654              3454.7496              3512.2768
 Red. masses --      1.1003                 1.0518                 1.0921
 Frc consts  --      6.9159                 7.3962                 7.9376
 IR Inten    --      4.7530                59.2642                55.4986

                     85                     86                     87
                      A                      A                      A
 Frequencies --   3576.5175              3644.3734              3804.9599
 Red. masses --      1.0779                 1.0820                 1.0664
 Frc consts  --      8.1233                 8.4669                 9.0961
 IR Inten    --     99.0692                90.8367                66.1221

 - Thermochemistry -
 -------------------
 Temperature   298.150 Kelvin.  Pressure   1.00000 Atm.
 Atom     1 has atomic number  8 and mass  15.99491

 Molecular mass:   227.11442 amu.
 Principal axes and moments of inertia in atomic units:
                           1         2         3
     Eigenvalues --  2119.589894581.091355843.31837
           X            0.63780   0.76161   0.11468
           Y            0.66540  -0.61987   0.41594
           Z           -0.38787   0.18898   0.90213
 This molecule is an asymmetric top.
 Rotational symmetry number  1.
 Warning -- assumption of classical behavior for rotation
           may cause significant error
 Rotational temperatures (Kelvin)      0.04086     0.01891     0.01482
 Rotational constants (GHZ):           0.85146     0.39395     0.30886
 Zero-point vibrational energy     680371.7 (Joules/Mol)
                                  162.61274 (Kcal/Mol)
 Warning -- explicit consideration of  23 degrees of freedom as
           vibrations may cause significant error
 Vibrational temperatures:     70.87    76.49   121.78   142.89   172.61
          (Kelvin)            181.26   200.64   230.36   235.69   378.86
                              391.68   433.60   461.03   479.79   507.83
                              557.99   625.07   683.50   695.50   766.48
                              807.44   869.24   887.31   934.87   970.74
                              983.84   990.73  1034.88  1112.88  1199.16
                             1215.30  1222.64  1251.84  1256.29  1332.27
                             1369.48  1386.96  1396.54  1439.13  1481.19
                             1494.49  1572.38  1608.97  1631.07  1645.16
                             1652.23  1670.14  1731.35  1775.95  1806.13
                             1835.55  1844.93  1866.08  1899.45  1927.84
                             1939.37  1968.80  2001.35  2021.97  2048.42
                             2073.59  2105.22  2138.26  2148.43  2172.90
                             2206.77  2257.30  2330.79  2387.49  2471.13
                             2496.48  2647.63  3360.35  4383.25  4403.81
                             4426.39  4433.60  4455.08  4473.77  4532.15
                             4669.97  4699.28  4970.61  5053.38  5145.80
                             5243.43  5474.48

 Zero-point correction=                           0.259140 (Hartree/Particle)
 Thermal correction to Energy=                    0.274277
 Thermal correction to Enthalpy=                  0.275221
 Thermal correction to Gibbs Free Energy=         0.216729
 Sum of electronic and zero-point Energies=           -796.565143
 Sum of electronic and thermal Energies=              -796.550006
 Sum of electronic and thermal Enthalpies=            -796.549062
 Sum of electronic and thermal Free Energies=         -796.607554

                     E (Thermal)             CV                S
                      KCal/Mol        Cal/Mol-Kelvin    Cal/Mol-Kelvin
 Total                  172.111             57.826            123.107
 Electronic               0.000              0.000              0.000
 Translational            0.889              2.981             42.163
 Rotational               0.889              2.981             32.406
 Vibrational            170.334             51.865             48.537
 Vibration     1          0.595              1.978              4.847
 Vibration     2          0.596              1.976              4.696
 Vibration     3          0.601              1.960              3.780
 Vibration     4          0.604              1.950              3.468
 Vibration     5          0.609              1.933              3.101
 Vibration     6          0.611              1.927              3.006
 Vibration     7          0.615              1.914              2.811
 Vibration     8          0.622              1.891              2.548
 Vibration     9          0.623              1.887              2.505
 Vibration    10          0.670              1.740              1.640
 Vibration    11          0.675              1.724              1.582
 Vibration    12          0.693              1.671              1.409
 Vibration    13          0.706              1.634              1.308
 Vibration    14          0.715              1.609              1.243
 Vibration    15          0.729              1.569              1.153
 Vibration    16          0.756              1.496              1.009
 Vibration    17          0.795              1.395              0.844
 Vibration    18          0.832              1.305              0.724
 Vibration    19          0.840              1.287              0.701
 Vibration    20          0.888              1.178              0.581
 Vibration    21          0.917              1.115              0.521
 Vibration    22          0.963              1.023              0.443
 Vibration    23          0.976              0.997              0.422

 Normal termination of Gaussian 09 at Sat Jul 31 05:03:44 2021.
