 Gaussian 09, Revision D.01,
 Gaussian 09:  ES64L-G09RevD.01 24-Apr-2013

 ----------------------------------------------------------------------
 # B3LYP/6-311++G(2df,2pd) EmpiricalDispersion=GD3BJ guess=read geom=ch
 eckpoint opt=readfc freq=noraman nosymm integral(ultrafinegrid)
 ----------------------------------------------------------------------

 ------------------------------------------------------------
 Candidate Structure: Conf:580 OPT and FREQ calc in gas phase
 ------------------------------------------------------------
 Structure from the checkpoint file:  "conf-580.chk"
 Charge =  1 Multiplicity = 1

 SCF Done:  E(RB3LYP) =  -796.793946367     A.U. after   13 cycles
 SCF Done:  E(RB3LYP) =  -796.794649395     A.U. after   12 cycles
 SCF Done:  E(RB3LYP) =  -796.794654503     A.U. after   10 cycles
 SCF Done:  E(RB3LYP) =  -796.794654499     A.U. after   12 cycles
 SCF Done:  E(RB3LYP) =  -796.794655780     A.U. after   10 cycles
 SCF Done:  E(RB3LYP) =  -796.794655813     A.U. after    8 cycles
 SCF Done:  E(RB3LYP) =  -796.794655814     A.U. after    7 cycles
 Optimization completed.
    -- Stationary point found.
 Normal termination of Gaussian 09 at Thu Jul 29 04:53:09 2021.

 ----------------------------------------------------------------------
 #N Geom=AllCheck Guess=TCheck SCRF=Check GenChk RB3LYP/6-311++G(2df,2p
 d) Freq
 ----------------------------------------------------------------------

 Structure from the checkpoint file:  "conf-580.chk"
 ------------------------------------------------------------
 Candidate Structure: Conf:580 OPT and FREQ calc in gas phase
 ------------------------------------------------------------
 Charge =  1 Multiplicity = 1

                          Input orientation:
 ---------------------------------------------------------------------
 Center     Atomic      Atomic             Coordinates (Angstroms)
 Number     Number       Type             X           Y           Z
 ---------------------------------------------------------------------
      1          8           0        1.331477    0.324701   -1.256834
      2          6           0        1.475827    0.326750   -0.044059
      3          7           0        0.474918    0.361422    0.843771
      4          6           0       -0.925418    0.370083    0.450260
      5          6           0       -1.700346    0.920779    1.633352
      6          8           0       -2.865969    1.446387    1.268469
      7          8           0       -1.293788    0.859462    2.767677
      8          6           0       -1.404414   -1.065045    0.085838
      9          6           0       -2.827672   -1.161800   -0.319111
     10          6           0       -3.924319   -1.654701    0.336655
     11          7           0       -5.060680   -1.482502   -0.415620
     12          6           0       -4.670015   -0.892179   -1.517049
     13          7           0       -3.322665   -0.670821   -1.511994
     14          6           0        2.890110    0.262963    0.558686
     15          6           0        3.857002    0.837517   -0.457886
     16          7           0        5.296914    0.533758   -0.073061
     17          1           0        0.641391    0.377888    1.840790
     18          1           0       -1.050025    1.025649   -0.408933
     19          1           0       -3.360894    1.704311    2.061637
     20          1           0       -1.245376   -1.703291    0.954978
     21          1           0       -0.739635   -1.418510   -0.704413
     22          1           0       -3.953188   -2.124882    1.305481
     23          1           0       -5.299237   -0.608873   -2.343766
     24          1           0       -2.788300   -0.259243   -2.257853
     25          1           0        3.113066   -0.791523    0.747344
     26          1           0        2.941249    0.790987    1.511673
     27          1           0        3.686333    0.401351   -1.438002
     28          1           0        3.781720    1.918884   -0.539091
     29          1           0        5.950715    0.911788   -0.761398
     30          1           0        5.537036    0.933342    0.836107
     31          1           0        5.454374   -0.474502   -0.016454
 ---------------------------------------------------------------------

 SCF Done:  E(RB3LYP) =  -796.794655814     A.U. after    1 cycles

 Alpha  occ. eigenvalues --  -19.28212 -19.22964 -19.22844 -14.64147 -14.47533
 Alpha  occ. eigenvalues --  -14.44562 -14.36384 -10.41876 -10.41843 -10.41722
 Alpha  occ. eigenvalues --  -10.35918 -10.34496 -10.29669 -10.29267 -10.28422
 Alpha  occ. eigenvalues --  -10.25656  -1.22715  -1.20860  -1.18467  -1.13981
 Alpha  occ. eigenvalues --   -1.09401  -1.06889  -0.97121  -0.95024  -0.91289
 Alpha  occ. eigenvalues --   -0.85767  -0.83276  -0.79373  -0.78835  -0.77919
 Alpha  occ. eigenvalues --   -0.74435  -0.71763  -0.69639  -0.69219  -0.67192
 Alpha  occ. eigenvalues --   -0.65596  -0.64707  -0.62582  -0.61250  -0.60287
 Alpha  occ. eigenvalues --   -0.59169  -0.58349  -0.57798  -0.56014  -0.54603
 Alpha  occ. eigenvalues --   -0.54002  -0.53133  -0.51739  -0.51254  -0.50151
 Alpha  occ. eigenvalues --   -0.48977  -0.48582  -0.47682  -0.43988  -0.41041
 Alpha  occ. eigenvalues --   -0.40266  -0.39764  -0.36185  -0.34380  -0.30835
 Alpha virt. eigenvalues --   -0.20269  -0.14838  -0.14434  -0.13622  -0.12302
 Alpha virt. eigenvalues --   -0.11413  -0.10882  -0.09642  -0.09077  -0.08613
 Alpha virt. eigenvalues --   -0.08120  -0.07439  -0.06837  -0.06301  -0.06217

 Mulliken charges:
               1
     1  O   -0.394505
     2  C   -0.061411
     3  N    0.132842
     4  C   -0.115591
     5  C    0.159886
     6  O   -0.129969
     7  O   -0.393772
     8  C   -0.290012
     9  C    0.548583
    10  C   -0.440025
    11  N   -0.244358
    12  C    0.187518
    13  N    0.013519
    14  C    0.141023
    15  C   -0.288074
    16  N    0.299840
    17  H    0.149537
    18  H    0.133972
    19  H    0.240816
    20  H    0.091102
    21  H    0.090766
    22  H    0.079736
    23  H    0.114019
    24  H    0.133662
    25  H    0.059473
    26  H    0.051705
    27  H    0.132119
    28  H    0.109810
    29  H    0.160597
    30  H    0.164438
    31  H    0.162755
 Sum of Mulliken charges =   1.00000

 Dipole moment (field-independent basis, Debye):
    X=             21.9016    Y=              3.8015    Z=              0.1266  Tot=             22.2294
 Quadrupole moment (field-independent basis, Debye-Ang):
   XX=             18.5769   YY=            -89.1189   ZZ=            -87.6471
   XY=              1.2788   XZ=              5.0373   YZ=              0.1238

  Exact polarizability: 192.459   8.956 106.990   4.284  -1.750 136.448
 Approx polarizability: 236.527   3.619 163.708   3.978 -13.992 227.430

                      1                      2                      3
                      A                      A                      A
 Frequencies --     10.5005                16.1411                31.9856
 Red. masses --      2.1578                 4.5913                 3.1299
 Frc consts  --      0.0001                 0.0007                 0.0019
 IR Inten    --      0.3609                 1.0250                 8.5698

                      4                      5                      6
                      A                      A                      A
 Frequencies --     49.8838                67.3130                70.5357
 Red. masses --      5.7086                 5.3923                 6.2317
 Frc consts  --      0.0084                 0.0144                 0.0183
 IR Inten    --     12.0947                 6.6646                 4.8173

                      7                      8                      9
                      A                      A                      A
 Frequencies --     77.5514               105.3121               115.0796
 Red. masses --      6.4223                 3.9423                 4.4662
 Frc consts  --      0.0228                 0.0258                 0.0348
 IR Inten    --      7.0102                 2.8999                10.7155

                     10                     11                     12
                      A                      A                      A
 Frequencies --    180.0791               215.3949               230.7807
 Red. masses --      5.1780                 2.1012                 1.4918
 Frc consts  --      0.0989                 0.0574                 0.0468
 IR Inten    --      5.2939                 9.9231                 3.3612

                     13                     14                     15
                      A                      A                      A
 Frequencies --    264.2670               318.6707               333.5876
 Red. masses --      5.6214                 6.4538                 2.1293
 Frc consts  --      0.2313                 0.3861                 0.1396
 IR Inten    --     10.1046                 8.2277                 4.8618

                     16                     17                     18
                      A                      A                      A
 Frequencies --    344.1354               366.1849               389.3639
 Red. masses --      6.3796                 3.7452                 3.9093
 Frc consts  --      0.4451                 0.2959                 0.3492
 IR Inten    --     12.4643                 9.1063                 4.6162

                     19                     20                     21
                      A                      A                      A
 Frequencies --    521.5826               535.8588               563.8264
 Red. masses --      1.3731                 3.5795                 1.8125
 Frc consts  --      0.2201                 0.6056                 0.3395
 IR Inten    --     67.4710                57.6295                17.3360

                     22                     23                     24
                      A                      A                      A
 Frequencies --    603.9999               630.7138               650.3646
 Red. masses --      1.2278                 4.1292                 1.6419
 Frc consts  --      0.2639                 0.9678                 0.4092
 IR Inten    --    114.3219                 9.5525                23.6529

                     25                     26                     27
                      A                      A                      A
 Frequencies --    667.4797               679.4393               717.0476
 Red. masses --      2.6861                 3.0832                 3.7821
 Frc consts  --      0.7051                 0.8386                 1.1457
 IR Inten    --     27.2560                14.8998                 1.1384

                     28                     29                     30
                      A                      A                      A
 Frequencies --    754.2994               772.9499               794.3604
 Red. masses --      3.7015                 3.4924                 1.3781
 Frc consts  --      1.2408                 1.2293                 0.5123
 IR Inten    --     14.2831                 8.3237                14.7551

                     31                     32                     33
                      A                      A                      A
 Frequencies --    818.8361               835.5676               865.5675
 Red. masses --      2.3578                 1.4227                 1.4742
 Frc consts  --      0.9314                 0.5852                 0.6507
 IR Inten    --      4.7663                18.0513                17.0041

                     34                     35                     36
                      A                      A                      A
 Frequencies --    886.4527               918.1328               935.3042
 Red. masses --      2.7021                 1.2794                 4.0170
 Frc consts  --      1.2510                 0.6354                 2.0704
 IR Inten    --     34.4765                 3.5940                 4.8983

                     37                     38                     39
                      A                      A                      A
 Frequencies --    939.9509               984.7735               997.8027
 Red. masses --      5.2516                 2.1246                 3.6755
 Frc consts  --      2.7337                 1.2139                 2.1560
 IR Inten    --     24.3243                13.8750                24.0741

                     40                     41                     42
                      A                      A                      A
 Frequencies --   1022.9869              1035.4618              1084.8411
 Red. masses --      3.2504                 3.0499                 2.3979
 Frc consts  --      2.0041                 1.9266                 1.6627
 IR Inten    --     29.4104                 3.4769                25.7469

                     43                     44                     45
                      A                      A                      A
 Frequencies --   1105.3217              1111.7447              1144.3574
 Red. masses --      1.6516                 1.8756                 2.1868
 Frc consts  --      1.1889                 1.3658                 1.6872
 IR Inten    --     16.3108                20.4684                12.0416

                     46                     47                     48
                      A                      A                      A
 Frequencies --   1147.8453              1168.2981              1195.7174
 Red. masses --      2.3800                 1.6308                 1.8173
 Frc consts  --      1.8476                 1.3115                 1.5308
 IR Inten    --     20.5617                57.7838                98.0967

                     49                     50                     51
                      A                      A                      A
 Frequencies --   1239.1596              1262.2272              1280.2289
 Red. masses --      1.5031                 2.3124                 1.3950
 Frc consts  --      1.3598                 2.1706                 1.3471
 IR Inten    --     14.3417                 9.8822                 3.5825

                     52                     53                     54
                      A                      A                      A
 Frequencies --   1290.6440              1301.7082              1326.3094
 Red. masses --      1.3081                 1.3710                 1.2775
 Frc consts  --      1.2838                 1.3687                 1.3240
 IR Inten    --      1.9943                 4.1665                11.3192

                     55                     56                     57
                      A                      A                      A
 Frequencies --   1330.7219              1353.3151              1362.4436
 Red. masses --      1.3586                 1.3087                 1.4346
 Frc consts  --      1.4175                 1.4121                 1.5689
 IR Inten    --      3.2768                 3.0805                20.2099

                     58                     59                     60
                      A                      A                      A
 Frequencies --   1390.4448              1407.5655              1425.6003
 Red. masses --      3.2504                 1.3415                 2.7199
 Frc consts  --      3.7025                 1.5660                 3.2569
 IR Inten    --      4.1793                26.2985                32.5056

                     61                     62                     63
                      A                      A                      A
 Frequencies --   1435.4848              1480.7822              1485.8509
 Red. masses --      2.7453                 1.1145                 1.1767
 Frc consts  --      3.3330                 1.4399                 1.5307
 IR Inten    --    169.2931                 1.1542                10.8483

                     64                     65                     66
                      A                      A                      A
 Frequencies --   1497.9607              1506.4734              1514.1571
 Red. masses --      3.0068                 1.0757                 1.1747
 Frc consts  --      3.9752                 1.4384                 1.5868
 IR Inten    --     32.2721                26.2528               161.2150

                     67                     68                     69
                      A                      A                      A
 Frequencies --   1546.3476              1610.8477              1665.2690
 Red. masses --      2.3626                 4.4800                 1.0426
 Frc consts  --      3.3286                 6.8492                 1.7034
 IR Inten    --    296.8358                 5.5294                46.1938

                     70                     71                     72
                      A                      A                      A
 Frequencies --   1669.7601              1737.2584              1798.2545
 Red. masses --      1.0445                10.0093                 9.7134
 Frc consts  --      1.7159                17.7985                18.5065
 IR Inten    --     39.2926               334.9148               279.0625

                     73                     74                     75
                      A                      A                      A
 Frequencies --   3028.5439              3044.3192              3083.5497
 Red. masses --      1.0631                 1.0613                 1.1002
 Frc consts  --      5.7449                 5.7955                 6.1633
 IR Inten    --      3.9262                14.2358                 4.8641

                     76                     77                     78
                      A                      A                      A
 Frequencies --   3089.3400              3102.2806              3107.5115
 Red. masses --      1.0976                 1.0597                 1.0895
 Frc consts  --      6.1719                 6.0089                 6.1986
 IR Inten    --      3.2471                 4.3303                 3.9303

                     79                     80                     81
                      A                      A                      A
 Frequencies --   3161.0983              3236.0249              3250.5676
 Red. masses --      1.1112                 1.0968                 1.0987
 Frc consts  --      6.5422                 6.7670                 6.8399
 IR Inten    --      2.5240                 3.7037                 1.2775

                     82                     83                     84
                      A                      A                      A
 Frequencies --   3405.9348              3483.4774              3485.7796
 Red. masses --      1.0297                 1.0929                 1.0932
 Frc consts  --      7.0376                 7.8139                 7.8261
 IR Inten    --     53.2026                88.8782                90.9182

                     85                     86                     87
                      A                      A                      A
 Frequencies --   3566.8740              3648.2335              3736.8626
 Red. masses --      1.0781                 1.0812                 1.0644
 Frc consts  --      8.0817                 8.4783                 8.7576
 IR Inten    --    105.8572                48.3247               112.8022

 - Thermochemistry -
 -------------------
 Temperature   298.150 Kelvin.  Pressure   1.00000 Atm.
 Atom     1 has atomic number  8 and mass  15.99491

 Molecular mass:   227.11442 amu.
 Principal axes and moments of inertia in atomic units:
                           1         2         3
     Eigenvalues --  1626.388618088.099949080.00428
           X            0.98457  -0.10121  -0.14278
           Y            0.17307   0.44181   0.88026
           Z            0.02601   0.89138  -0.45251
 This molecule is an asymmetric top.
 Rotational symmetry number  1.
 Warning -- assumption of classical behavior for rotation
           may cause significant error
 Rotational temperatures (Kelvin)      0.05326     0.01071     0.00954
 Rotational constants (GHZ):           1.10966     0.22314     0.19876
 Zero-point vibrational energy     679639.6 (Joules/Mol)
                                  162.43776 (Kcal/Mol)
 Warning -- explicit consideration of  22 degrees of freedom as
           vibrations may cause significant error
 Vibrational temperatures:     15.11    23.22    46.02    71.77    96.85
          (Kelvin)            101.49   111.58   151.52   165.57   259.09
                              309.90   332.04   380.22   458.50   479.96
                              495.13   526.86   560.21   750.44   770.98
                              811.22   869.02   907.46   935.73   960.35
                              977.56  1031.67  1085.27  1112.10  1142.91
                             1178.12  1202.19  1245.36  1275.41  1320.99
                             1345.69  1352.38  1416.87  1435.61  1471.85
                             1489.80  1560.84  1590.31  1599.55  1646.47
                             1651.49  1680.92  1720.37  1782.87  1816.06
                             1841.96  1856.95  1872.87  1908.26  1914.61
                             1947.12  1960.25  2000.54  2025.17  2051.12
                             2065.34  2130.51  2137.81  2155.23  2167.48
                             2178.53  2224.85  2317.65  2395.95  2402.41
                             2499.52  2587.28  4357.39  4380.09  4436.53
                             4444.87  4463.48  4471.01  4548.11  4655.91
                             4676.84  4900.37  5011.94  5015.25  5131.93
                             5248.99  5376.51

 Zero-point correction=                           0.258861 (Hartree/Particle)
 Thermal correction to Energy=                    0.275454
 Thermal correction to Enthalpy=                  0.276398
 Thermal correction to Gibbs Free Energy=         0.209829
 Sum of electronic and zero-point Energies=           -796.535795
 Sum of electronic and thermal Energies=              -796.519202
 Sum of electronic and thermal Enthalpies=            -796.518258
 Sum of electronic and thermal Free Energies=         -796.584827

                     E (Thermal)             CV                S
                      KCal/Mol        Cal/Mol-Kelvin    Cal/Mol-Kelvin
 Total                  172.850             59.050            140.107
 Electronic               0.000              0.000              0.000
 Translational            0.889              2.981             42.163
 Rotational               0.889              2.981             33.146
 Vibrational            171.073             53.088             64.798
 Vibration     1          0.593              1.987              7.914
 Vibration     2          0.593              1.986              7.060
 Vibration     3          0.594              1.983              5.702
 Vibration     4          0.595              1.978              4.822
 Vibration     5          0.598              1.970              4.230
 Vibration     6          0.598              1.968              4.138
 Vibration     7          0.599              1.964              3.952
 Vibration     8          0.605              1.945              3.354
 Vibration     9          0.608              1.937              3.181
 Vibration    10          0.629              1.867              2.328
 Vibration    11          0.645              1.818              1.997
 Vibration    12          0.652              1.794              1.873
 Vibration    13          0.671              1.738              1.633
 Vibration    14          0.705              1.638              1.317
 Vibration    15          0.715              1.608              1.243
 Vibration    16          0.723              1.587              1.193
 Vibration    17          0.739              1.542              1.096
 Vibration    18          0.757              1.493              1.003
 Vibration    19          0.877              1.202              0.606
 Vibration    20          0.891              1.171              0.574
 Vibration    21          0.920              1.110              0.516
 Vibration    22          0.962              1.023              0.443

 Optimization completed.
    -- Stationary point found.
 Normal termination of Gaussian 09 at Thu Jul 29 11:25:36 2021.
