 Gaussian 09, Revision D.01,
 Gaussian 09:  ES64L-G09RevD.01 24-Apr-2013

 ----------------------------------------------------------------------
 # B3LYP/6-311++G(2df,2pd) EmpiricalDispersion=GD3BJ guess=read geom=ch
 eckpoint opt=readfc freq=noraman nosymm integral(ultrafinegrid)
 ----------------------------------------------------------------------

 ------------------------------------------------------------
 Candidate Structure: Conf:214 OPT and FREQ calc in gas phase
 ------------------------------------------------------------
 Structure from the checkpoint file:  "conf-214.chk"
 Charge =  1 Multiplicity = 1

 SCF Done:  E(RB3LYP) =  -796.799116405     A.U. after   14 cycles
 SCF Done:  E(RB3LYP) =  -796.799988480     A.U. after   12 cycles
 SCF Done:  E(RB3LYP) =  -796.800009410     A.U. after   11 cycles
 SCF Done:  E(RB3LYP) =  -796.800009974     A.U. after    9 cycles
 SCF Done:  E(RB3LYP) =  -796.800010002     A.U. after    8 cycles
 SCF Done:  E(RB3LYP) =  -796.800010007     A.U. after    7 cycles
 Optimization completed.
    -- Stationary point found.
 Normal termination of Gaussian 09 at Thu Jul 29 05:02:17 2021.

 ----------------------------------------------------------------------
 #N Geom=AllCheck Guess=TCheck SCRF=Check GenChk RB3LYP/6-311++G(2df,2p
 d) Freq
 ----------------------------------------------------------------------

 Structure from the checkpoint file:  "conf-214.chk"
 ------------------------------------------------------------
 Candidate Structure: Conf:214 OPT and FREQ calc in gas phase
 ------------------------------------------------------------
 Charge =  1 Multiplicity = 1

                          Input orientation:
 ---------------------------------------------------------------------
 Center     Atomic      Atomic             Coordinates (Angstroms)
 Number     Number       Type             X           Y           Z
 ---------------------------------------------------------------------
      1          8           0       -1.253194   -1.712911   -0.750812
      2          6           0       -1.086560   -0.985237    0.210041
      3          7           0       -0.046805   -1.078946    1.062713
      4          6           0        1.133119   -1.862667    0.755054
      5          6           0        2.095329   -1.679674    1.922295
      6          8           0        2.994069   -2.645220    2.125479
      7          8           0        2.104628   -0.676013    2.587215
      8          6           0        1.849800   -1.377397   -0.561020
      9          6           0        1.659796    0.077968   -0.790808
     10          6           0        0.882910    0.723183   -1.715508
     11          7           0        0.809478    2.070863   -1.439230
     12          6           0        1.551272    2.248852   -0.366719
     13          7           0        2.090155    1.075184    0.061678
     14          6           0       -2.090241    0.137146    0.512268
     15          6           0       -2.301323    0.910306   -0.777979
     16          7           0       -3.423015    1.927054   -0.631714
     17          1           0        0.096126   -0.375368    1.772833
     18          1           0        0.857752   -2.910298    0.635230
     19          1           0        2.842208   -3.416231    1.564814
     20          1           0        2.903258   -1.659588   -0.513897
     21          1           0        1.409489   -1.907093   -1.401004
     22          1           0        0.371806    0.281938   -2.554165
     23          1           0        1.744625    3.188342    0.122727
     24          1           0        2.641581    0.945257    0.895770
     25          1           0       -1.738660    0.790856    1.311132
     26          1           0       -3.018540   -0.338370    0.838165
     27          1           0       -2.586108    0.240261   -1.584479
     28          1           0       -1.417706    1.476886   -1.066529
     29          1           0       -3.208998    2.608923    0.098036
     30          1           0       -3.557210    2.442782   -1.503451
     31          1           0       -4.309055    1.479323   -0.390325
 ---------------------------------------------------------------------

 SCF Done:  E(RB3LYP) =  -796.800010007     A.U. after    2 cycles

 Alpha  occ. eigenvalues --  -19.30081 -19.24216 -19.22617 -14.62661 -14.48102
 Alpha  occ. eigenvalues --  -14.47535 -14.41115 -10.43623 -10.41507 -10.39858
 Alpha  occ. eigenvalues --  -10.36337 -10.34863 -10.33915 -10.32108 -10.31348
 Alpha  occ. eigenvalues --  -10.29532  -1.24126  -1.19399  -1.18269  -1.15995
 Alpha  occ. eigenvalues --   -1.13380  -1.07157  -0.98970  -0.95986  -0.92440
 Alpha  occ. eigenvalues --   -0.87107  -0.83480  -0.79770  -0.77963  -0.77396
 Alpha  occ. eigenvalues --   -0.75674  -0.73065  -0.72500  -0.70850  -0.68848
 Alpha  occ. eigenvalues --   -0.67921  -0.65559  -0.63991  -0.62177  -0.60632
 Alpha  occ. eigenvalues --   -0.59938  -0.58177  -0.57910  -0.57143  -0.56592
 Alpha  occ. eigenvalues --   -0.54978  -0.54120  -0.52938  -0.52697  -0.52463
 Alpha  occ. eigenvalues --   -0.51993  -0.50399  -0.49935  -0.45714  -0.41958
 Alpha  occ. eigenvalues --   -0.40437  -0.40345  -0.40083  -0.39094  -0.34885
 Alpha virt. eigenvalues --   -0.18970  -0.14187  -0.13514  -0.13374  -0.12191
 Alpha virt. eigenvalues --   -0.11850  -0.11195  -0.09979  -0.09841  -0.08767
 Alpha virt. eigenvalues --   -0.08010  -0.07694  -0.07420  -0.06777  -0.06522

 Mulliken charges:
               1
     1  O   -0.370430
     2  C   -0.160831
     3  N    0.225158
     4  C    0.164863
     5  C    0.072706
     6  O   -0.165134
     7  O   -0.348808
     8  C   -0.050824
     9  C    0.225358
    10  C   -0.447768
    11  N   -0.245468
    12  C    0.055529
    13  N   -0.004395
    14  C    0.224652
    15  C   -0.398890
    16  N    0.344529
    17  H    0.089540
    18  H    0.084445
    19  H    0.220303
    20  H    0.095675
    21  H    0.086496
    22  H    0.112344
    23  H    0.123368
    24  H    0.172234
    25  H    0.055221
    26  H    0.074549
    27  H    0.144177
    28  H    0.137922
    29  H    0.164575
    30  H    0.156595
    31  H    0.162311
 Sum of Mulliken charges =   1.00000

 Dipole moment (field-independent basis, Debye):
    X=             -9.8463    Y=              4.1134    Z=             -0.0552  Tot=             10.6711
 Quadrupole moment (field-independent basis, Debye-Ang):
   XX=            -35.7895   YY=            -65.3062   ZZ=            -97.4797
   XY=            -35.7645   XZ=              4.2160   YZ=             -2.3151

  Exact polarizability: 141.945 -17.834 148.118  16.967  -4.710 125.429
 Approx polarizability: 194.521 -17.473 227.540  29.161  14.168 207.039

                      1                      2                      3
                      A                      A                      A
 Frequencies --     44.0844                50.2456                64.0315
 Red. masses --      3.7164                 3.0859                 3.1085
 Frc consts  --      0.0043                 0.0046                 0.0075
 IR Inten    --      4.1042                13.0294                 4.9515

                      4                      5                      6
                      A                      A                      A
 Frequencies --     69.2846                80.9898                97.3638
 Red. masses --      5.2559                 4.0788                 6.7095
 Frc consts  --      0.0149                 0.0158                 0.0375
 IR Inten    --      8.3302                 0.7856                 6.7775

                      7                      8                      9
                      A                      A                      A
 Frequencies --    110.6663               129.1311               150.8505
 Red. masses --      4.3205                 5.4415                 4.5248
 Frc consts  --      0.0312                 0.0535                 0.0607
 IR Inten    --     37.9641                 0.2312                29.8284

                     10                     11                     12
                      A                      A                      A
 Frequencies --    191.9496               198.5118               222.6058
 Red. masses --      4.8035                 4.3852                 1.1276
 Frc consts  --      0.1043                 0.1018                 0.0329
 IR Inten    --     11.7755                 3.6892                 0.2822

                     13                     14                     15
                      A                      A                      A
 Frequencies --    278.8549               311.8522               326.8750
 Red. masses --      6.5643                 4.5070                 3.0748
 Frc consts  --      0.3007                 0.2582                 0.1936
 IR Inten    --      4.3709                 0.2005                 7.4940

                     16                     17                     18
                      A                      A                      A
 Frequencies --    347.0640               371.8360               444.6656
 Red. masses --      3.4317                 3.5306                 3.5674
 Frc consts  --      0.2435                 0.2876                 0.4156
 IR Inten    --      5.2715                27.2718                17.9419

                     19                     20                     21
                      A                      A                      A
 Frequencies --    516.2148               545.2402               584.0150
 Red. masses --      1.2197                 2.4856                 1.6449
 Frc consts  --      0.1915                 0.4354                 0.3306
 IR Inten    --     59.0864                45.3030               154.0544

                     22                     23                     24
                      A                      A                      A
 Frequencies --    612.7696               641.7171               671.9930
 Red. masses --      1.7557                 4.9479                 2.3049
 Frc consts  --      0.3884                 1.2005                 0.6132
 IR Inten    --     20.5896                10.8490                 1.9044

                     25                     26                     27
                      A                      A                      A
 Frequencies --    680.0861               690.4155               735.5337
 Red. masses --      2.4198                 3.2289                 5.5892
 Frc consts  --      0.6594                 0.9068                 1.7816
 IR Inten    --     13.9304                12.7847                 6.0514

                     28                     29                     30
                      A                      A                      A
 Frequencies --    737.0873               789.4668               801.4351
 Red. masses --      4.0406                 3.6139                 1.2297
 Frc consts  --      1.2934                 1.3271                 0.4654
 IR Inten    --      0.9625                 3.8115                 5.8426

                     31                     32                     33
                      A                      A                      A
 Frequencies --    837.8633               843.7550               874.2873
 Red. masses --      1.8033                 1.7171                 1.7475
 Frc consts  --      0.7459                 0.7202                 0.7870
 IR Inten    --      1.8330                34.4222                17.3095

                     34                     35                     36
                      A                      A                      A
 Frequencies --    889.6077               915.0097               922.2364
 Red. masses --      2.5008                 3.8662                 1.3303
 Frc consts  --      1.1661                 1.9072                 0.6666
 IR Inten    --     24.0725                 3.1721                 3.1334

                     37                     38                     39
                      A                      A                      A
 Frequencies --    944.8485               947.6794               979.2248
 Red. masses --      3.2433                 5.1603                 2.2750
 Frc consts  --      1.7059                 2.7305                 1.2853
 IR Inten    --      1.4410                16.9053                26.7994

                     40                     41                     42
                      A                      A                      A
 Frequencies --   1011.4709              1041.4855              1080.5530
 Red. masses --      3.2200                 2.9697                 1.7952
 Frc consts  --      1.9410                 1.8979                 1.2349
 IR Inten    --     17.8147                 3.4945                 3.8763

                     43                     44                     45
                      A                      A                      A
 Frequencies --   1125.9804              1133.9746              1139.1805
 Red. masses --      2.1275                 1.7689                 2.1071
 Frc consts  --      1.5892                 1.3402                 1.6111
 IR Inten    --     23.0010                15.6607                 9.7033

                     46                     47                     48
                      A                      A                      A
 Frequencies --   1144.8207              1170.1261              1199.1345
 Red. masses --      2.4400                 1.4863                 1.5246
 Frc consts  --      1.8842                 1.1990                 1.2916
 IR Inten    --      2.7781                 9.8598                 5.7792

                     49                     50                     51
                      A                      A                      A
 Frequencies --   1247.1088              1257.2318              1265.3604
 Red. masses --      1.6323                 1.3348                 2.1681
 Frc consts  --      1.4957                 1.2431                 2.0453
 IR Inten    --     39.4699                81.3267                 7.9632

                     52                     53                     54
                      A                      A                      A
 Frequencies --   1284.7239              1292.0518              1300.6675
 Red. masses --      1.3689                 1.3719                 1.6289
 Frc consts  --      1.3312                 1.3494                 1.6236
 IR Inten    --     37.7782                21.8412               211.9933

                     55                     56                     57
                      A                      A                      A
 Frequencies --   1337.8657              1361.3054              1369.1137
 Red. masses --      1.3834                 1.3203                 1.5259
 Frc consts  --      1.4589                 1.4415                 1.6852
 IR Inten    --     35.8164                36.3648                20.0761

                     58                     59                     60
                      A                      A                      A
 Frequencies --   1382.2013              1405.0800              1430.8533
 Red. masses --      3.7203                 2.1919                 1.2993
 Frc consts  --      4.1876                 2.5497                 1.5674
 IR Inten    --     52.6091               199.8315                 9.8861

                     61                     62                     63
                      A                      A                      A
 Frequencies --   1434.7054              1481.6134              1482.8024
 Red. masses --      2.2360                 1.1083                 1.3541
 Frc consts  --      2.7117                 1.4334                 1.7542
 IR Inten    --     29.3726                 2.7096                23.9317

                     64                     65                     66
                      A                      A                      A
 Frequencies --   1503.8283              1507.1639              1522.0750
 Red. masses --      2.0757                 1.1731                 1.0823
 Frc consts  --      2.7657                 1.5700                 1.4773
 IR Inten    --     27.3082               151.3495                10.6808

                     67                     68                     69
                      A                      A                      A
 Frequencies --   1538.4989              1614.2156              1664.0911
 Red. masses --      2.0573                 4.1293                 1.0430
 Frc consts  --      2.8691                 6.3394                 1.7018
 IR Inten    --    209.0884                11.4616                43.1136

                     70                     71                     72
                      A                      A                      A
 Frequencies --   1668.8778              1751.2095              1816.3460
 Red. masses --      1.0439                 9.5657                 9.2726
 Frc consts  --      1.7130                17.2839                18.0238
 IR Inten    --     32.3958               269.0933               147.4335

                     73                     74                     75
                      A                      A                      A
 Frequencies --   3037.7910              3051.1824              3075.1999
 Red. masses --      1.0598                 1.0696                 1.0858
 Frc consts  --      5.7620                 5.8669                 6.0499
 IR Inten    --     10.6102                12.2065                14.6088

                     76                     77                     78
                      A                      A                      A
 Frequencies --   3076.5212              3088.0187              3130.1032
 Red. masses --      1.0650                 1.1028                 1.0945
 Frc consts  --      5.9389                 6.1957                 6.3182
 IR Inten    --     46.1012                 5.7715                 0.2418

                     79                     80                     81
                      A                      A                      A
 Frequencies --   3150.8233              3241.9888              3251.5745
 Red. masses --      1.1090                 1.0966                 1.0995
 Frc consts  --      6.4869                 6.7910                 6.8492
 IR Inten    --     11.7568                 1.0376                 1.6583

                     82                     83                     84
                      A                      A                      A
 Frequencies --   3407.0303              3487.4903              3488.2901
 Red. masses --      1.0294                 1.0932                 1.0930
 Frc consts  --      7.0401                 7.8337                 7.8360
 IR Inten    --     47.9465                87.5201                78.7182

                     85                     86                     87
                      A                      A                      A
 Frequencies --   3578.4600              3617.9026              3793.3059
 Red. masses --      1.0775                 1.0822                 1.0663
 Frc consts  --      8.1291                 8.3456                 9.0402
 IR Inten    --     71.7590               109.4569                89.8409

 - Thermochemistry -
 -------------------
 Temperature   298.150 Kelvin.  Pressure   1.00000 Atm.
 Atom     1 has atomic number  8 and mass  15.99491

 Molecular mass:   227.11442 amu.
 Principal axes and moments of inertia in atomic units:
                           1         2         3
     Eigenvalues --  2286.541654620.776325613.41333
           X            0.76675   0.63385  -0.10162
           Y           -0.49976   0.68875   0.52523
           Z            0.40291  -0.35194   0.84487
 This molecule is an asymmetric top.
 Rotational symmetry number  1.
 Warning -- assumption of classical behavior for rotation
           may cause significant error
 Rotational temperatures (Kelvin)      0.03788     0.01874     0.01543
 Rotational constants (GHZ):           0.78929     0.39057     0.32151
 Zero-point vibrational energy     682426.2 (Joules/Mol)
                                  163.10377 (Kcal/Mol)
 Warning -- explicit consideration of  22 degrees of freedom as
           vibrations may cause significant error
 Vibrational temperatures:     63.43    72.29    92.13    99.69   116.53
          (Kelvin)            140.08   159.22   185.79   217.04   276.17
                              285.61   320.28   401.21   448.69   470.30
                              499.35   534.99   639.77   742.72   784.48
                              840.27   881.64   923.29   966.85   978.49
                              993.35  1058.27  1060.50  1135.87  1153.08
                             1205.50  1213.97  1257.90  1279.95  1316.49
                             1326.89  1359.42  1363.50  1408.88  1455.28
                             1498.46  1554.67  1620.03  1631.53  1639.02
                             1647.14  1683.55  1725.28  1794.31  1808.87
                             1820.57  1848.43  1858.97  1871.37  1924.89
                             1958.61  1969.85  1988.68  2021.59  2058.68
                             2064.22  2131.71  2133.42  2163.67  2168.47
                             2189.92  2213.55  2322.49  2394.25  2401.14
                             2519.60  2613.31  4370.70  4389.97  4424.52
                             4426.42  4442.96  4503.51  4533.33  4664.49
                             4678.28  4901.95  5017.71  5018.87  5148.60
                             5205.35  5457.71

 Zero-point correction=                           0.259922 (Hartree/Particle)
 Thermal correction to Energy=                    0.275911
 Thermal correction to Enthalpy=                  0.276855
 Thermal correction to Gibbs Free Energy=         0.215388
 Sum of electronic and zero-point Energies=           -796.540088
 Sum of electronic and thermal Energies=              -796.524099
 Sum of electronic and thermal Enthalpies=            -796.523155
 Sum of electronic and thermal Free Energies=         -796.584622

                     E (Thermal)             CV                S
                      KCal/Mol        Cal/Mol-Kelvin    Cal/Mol-Kelvin
 Total                  173.137             58.579            129.369
 Electronic               0.000              0.000              0.000
 Translational            0.889              2.981             42.163
 Rotational               0.889              2.981             32.450
 Vibrational            171.359             52.618             54.756
 Vibration     1          0.595              1.980              5.067
 Vibration     2          0.595              1.977              4.808
 Vibration     3          0.597              1.971              4.329
 Vibration     4          0.598              1.969              4.174
 Vibration     5          0.600              1.962              3.867
 Vibration     6          0.603              1.951              3.506
 Vibration     7          0.607              1.941              3.257
 Vibration     8          0.612              1.924              2.959
 Vibration     9          0.618              1.902              2.661
 Vibration    10          0.634              1.851              2.209
 Vibration    11          0.637              1.842              2.147
 Vibration    12          0.648              1.807              1.938
 Vibration    13          0.679              1.713              1.541
 Vibration    14          0.700              1.651              1.352
 Vibration    15          0.711              1.622              1.275
 Vibration    16          0.725              1.581              1.179
 Vibration    17          0.744              1.530              1.072
 Vibration    18          0.804              1.373              0.812
 Vibration    19          0.871              1.214              0.619
 Vibration    20          0.900              1.150              0.554
 Vibration    21          0.941              1.066              0.478
 Vibration    22          0.972              1.005              0.428

 Optimization completed.
    -- Stationary point found.
 Normal termination of Gaussian 09 at Thu Jul 29 13:08:13 2021.
