 Gaussian 09, Revision D.01,
 Gaussian 09:  ES64L-G09RevD.01 24-Apr-2013

 ----------------------------------------------------------------------
 # B3LYP/6-311++G(2df,2pd) EmpiricalDispersion=GD3BJ opt=calcfc freq=no
 raman nosymm integral(ultrafinegrid)
 ----------------------------------------------------------------------

 ------------------------------------------------------------
 Candidate Structure: Conf:628 OPT and FREQ calc in gas phase
 ------------------------------------------------------------
 Symbolic Z-matrix:
 Charge =  1 Multiplicity = 1

 SCF Done:  E(RB3LYP) =  -796.809874558     A.U. after   14 cycles
 SCF Done:  E(RB3LYP) =  -796.814583674     A.U. after   12 cycles
 SCF Done:  E(RB3LYP) =  -796.816699783     A.U. after   13 cycles
 SCF Done:  E(RB3LYP) =  -796.817253086     A.U. after   13 cycles
 SCF Done:  E(RB3LYP) =  -796.817837363     A.U. after   13 cycles
 SCF Done:  E(RB3LYP) =  -796.817894955     A.U. after   11 cycles
 SCF Done:  E(RB3LYP) =  -796.817903797     A.U. after   10 cycles
 SCF Done:  E(RB3LYP) =  -796.817905588     A.U. after   10 cycles
 SCF Done:  E(RB3LYP) =  -796.817905823     A.U. after    7 cycles
 SCF Done:  E(RB3LYP) =  -796.817905878     A.U. after    7 cycles
 Optimization completed.
    -- Stationary point found.
 Normal termination of Gaussian 09 at Sat Jul 24 13:04:53 2021.

 ----------------------------------------------------------------------
 #N Geom=AllCheck Guess=TCheck SCRF=Check GenChk RB3LYP/6-311++G(2df,2p
 d) Freq
 ----------------------------------------------------------------------

 Structure from the checkpoint file:  "conf-628.chk"
 ------------------------------------------------------------
 Candidate Structure: Conf:628 OPT and FREQ calc in gas phase
 ------------------------------------------------------------
 Charge =  1 Multiplicity = 1

                          Input orientation:
 ---------------------------------------------------------------------
 Center     Atomic      Atomic             Coordinates (Angstroms)
 Number     Number       Type             X           Y           Z
 ---------------------------------------------------------------------
      1          8           0       -1.388867   -0.058124   -0.855510
      2          6           0       -1.518154   -0.191734    0.377112
      3          7           0       -0.481702   -0.354983    1.185289
      4          6           0        0.896004   -0.414973    0.710866
      5          6           0        1.693573   -1.005566    1.860335
      6          8           0        2.983066   -1.185603    1.549363
      7          8           0        1.221879   -1.259855    2.938000
      8          6           0        1.440344    0.978554    0.263299
      9          6           0        2.343340    0.934670   -0.915557
     10          6           0        2.129830    1.332713   -2.209823
     11          7           0        3.241183    1.101604   -2.980602
     12          6           0        4.124985    0.567290   -2.173889
     13          7           0        3.634293    0.445105   -0.907335
     14          6           0       -2.905028   -0.134057    1.004585
     15          6           0       -3.965704   -0.733902    0.082956
     16          7           0       -3.889048   -0.067631   -1.268023
     17          1           0       -0.608443   -0.536058    2.173715
     18          1           0        0.946382   -1.089411   -0.144116
     19          1           0        3.433883   -1.555263    2.324939
     20          1           0        0.579523    1.579923   -0.018388
     21          1           0        1.905217    1.475274    1.117707
     22          1           0        1.239214    1.779069   -2.619167
     23          1           0        5.120274    0.254642   -2.440924
     24          1           0        4.100741    0.030346   -0.119481
     25          1           0       -2.933483   -0.658830    1.957897
     26          1           0       -3.133447    0.913951    1.216849
     27          1           0       -3.778595   -1.791846   -0.086445
     28          1           0       -4.966598   -0.616951    0.488174
     29          1           0       -4.301556    0.863580   -1.262526
     30          1           0       -2.820749    0.011641   -1.430281
     31          1           0       -4.342338   -0.613292   -1.997623
 ---------------------------------------------------------------------

 SCF Done:  E(RB3LYP) =  -796.817905878     A.U. after    1 cycles

 Alpha  occ. eigenvalues --  -19.31183 -19.26835 -19.25582 -14.58244 -14.50313
 Alpha  occ. eigenvalues --  -14.45293 -14.37298 -10.44652 -10.44597 -10.40785
 Alpha  occ. eigenvalues --  -10.36766 -10.36298 -10.30934 -10.30536 -10.29476
 Alpha  occ. eigenvalues --  -10.26737  -1.25552  -1.22028  -1.16822  -1.15712
 Alpha  occ. eigenvalues --   -1.10342  -1.09578  -0.96841  -0.95863  -0.92763
 Alpha  occ. eigenvalues --   -0.86430  -0.83596  -0.79280  -0.77879  -0.75650
 Alpha  occ. eigenvalues --   -0.74580  -0.73276  -0.70303  -0.68761  -0.68076
 Alpha  occ. eigenvalues --   -0.66595  -0.65116  -0.63639  -0.62838  -0.61986
 Alpha  occ. eigenvalues --   -0.61099  -0.59864  -0.58871  -0.57103  -0.56686
 Alpha  occ. eigenvalues --   -0.55897  -0.55118  -0.53503  -0.52547  -0.51262
 Alpha  occ. eigenvalues --   -0.50399  -0.50257  -0.49407  -0.46925  -0.44401
 Alpha  occ. eigenvalues --   -0.43207  -0.42693  -0.37109  -0.35318  -0.31942
 Alpha virt. eigenvalues --   -0.17173  -0.15561  -0.13834  -0.12874  -0.12639
 Alpha virt. eigenvalues --   -0.11462  -0.10507  -0.09733  -0.08919  -0.07911
 Alpha virt. eigenvalues --   -0.07584  -0.07298  -0.06930  -0.06559  -0.06159

 Mulliken charges:
               1
     1  O   -0.407748
     2  C   -0.141737
     3  N    0.149857
     4  C   -0.113472
     5  C    0.383792
     6  O   -0.244137
     7  O   -0.374286
     8  C    0.308459
     9  C   -0.060932
    10  C   -0.275335
    11  N   -0.274809
    12  C    0.120097
    13  N    0.008170
    14  C   -0.038081
    15  C   -0.191870
    16  N    0.141993
    17  H    0.170050
    18  H    0.103325
    19  H    0.278702
    20  H    0.087682
    21  H    0.078250
    22  H    0.060040
    23  H    0.116978
    24  H    0.152145
    25  H    0.059230
    26  H    0.093084
    27  H    0.100414
    28  H    0.127947
    29  H    0.146101
    30  H    0.278372
    31  H    0.157718
 Sum of Mulliken charges =   1.00000

 Dipole moment (field-independent basis, Debye):
    X=            -11.8701    Y=             -2.2693    Z=              2.5988  Tot=             12.3613
 Quadrupole moment (field-independent basis, Debye-Ang):
   XX=             -6.6096   YY=            -89.2442   ZZ=            -96.5439
   XY=             -5.8673   XZ=             24.7000   YZ=              3.1966

  Exact polarizability: 174.955  -3.953 103.510  -6.637 -15.851 151.607
 Approx polarizability: 223.993 -14.162 160.739  -4.497 -18.661 237.397

                      1                      2                      3
                      A                      A                      A
 Frequencies --     22.2037                30.0253                46.7366
 Red. masses --      4.7280                 3.9902                 4.8429
 Frc consts  --      0.0014                 0.0021                 0.0062
 IR Inten    --      3.9728                 9.9058                 2.6293

                      4                      5                      6
                      A                      A                      A
 Frequencies --     58.1444                71.8612                97.3719
 Red. masses --      5.4156                 5.3061                 5.4403
 Frc consts  --      0.0108                 0.0161                 0.0304
 IR Inten    --      4.6985                 3.6555                 6.7309

                      7                      8                      9
                      A                      A                      A
 Frequencies --    114.6886               130.5308               189.1475
 Red. masses --      5.0601                 5.5125                 4.9681
 Frc consts  --      0.0392                 0.0553                 0.1047
 IR Inten    --      2.5590                 0.5612                 7.4852

                     10                     11                     12
                      A                      A                      A
 Frequencies --    206.2465               262.9217               289.9152
 Red. masses --      2.1685                 5.2682                 4.1692
 Frc consts  --      0.0543                 0.2146                 0.2065
 IR Inten    --     21.8607                51.9569                 2.3779

                     13                     14                     15
                      A                      A                      A
 Frequencies --    324.6228               347.7111               390.4745
 Red. masses --      2.0743                 6.1007                 3.7704
 Frc consts  --      0.1288                 0.4346                 0.3387
 IR Inten    --      8.8266                 0.6336                 1.5338

                     16                     17                     18
                      A                      A                      A
 Frequencies --    399.0490               407.3940               453.6679
 Red. masses --      2.4002                 1.8898                 2.0578
 Frc consts  --      0.2252                 0.1848                 0.2495
 IR Inten    --    129.6267                40.8604                 3.9604

                     19                     20                     21
                      A                      A                      A
 Frequencies --    545.5816               552.7437               590.0073
 Red. masses --      2.7147                 1.5058                 1.8204
 Frc consts  --      0.4761                 0.2711                 0.3734
 IR Inten    --     64.1156                56.5822                27.5939

                     22                     23                     24
                      A                      A                      A
 Frequencies --    605.5196               642.3088               665.9081
 Red. masses --      2.4948                 3.1493                 1.9985
 Frc consts  --      0.5389                 0.7655                 0.5221
 IR Inten    --     23.1261                76.7793                36.8161

                     25                     26                     27
                      A                      A                      A
 Frequencies --    672.3336               680.6585               734.4731
 Red. masses --      1.3223                 2.7074                 3.0529
 Frc consts  --      0.3522                 0.7390                 0.9703
 IR Inten    --     70.7469                 6.1760                13.5280

                     28                     29                     30
                      A                      A                      A
 Frequencies --    739.7163               774.9684               825.0278
 Red. masses --      3.3308                 4.0350                 2.6104
 Frc consts  --      1.0738                 1.4278                 1.0469
 IR Inten    --     23.0049                 7.2853                 5.3063

                     31                     32                     33
                      A                      A                      A
 Frequencies --    839.9377               853.1958               861.3670
 Red. masses --      1.4155                 2.5526                 1.4873
 Frc consts  --      0.5884                 1.0948                 0.6502
 IR Inten    --     22.7738                37.9411                12.3417

                     34                     35                     36
                      A                      A                      A
 Frequencies --    888.5043               939.6000               949.5887
 Red. masses --      2.0498                 5.4586                 2.1997
 Frc consts  --      0.9534                 2.8393                 1.1686
 IR Inten    --     87.6198                12.7448                 2.7001

                     37                     38                     39
                      A                      A                      A
 Frequencies --    953.3810               999.3314              1004.6846
 Red. masses --      1.4896                 4.5119                 3.1770
 Frc consts  --      0.7977                 2.6548                 1.8894
 IR Inten    --      3.0717                 1.3950                 3.3193

                     40                     41                     42
                      A                      A                      A
 Frequencies --   1024.9122              1033.2646              1099.5399
 Red. masses --      3.6235                 3.3409                 2.9055
 Frc consts  --      2.2426                 2.1015                 2.0696
 IR Inten    --     33.1810                12.0521                 8.3026

                     43                     44                     45
                      A                      A                      A
 Frequencies --   1111.1430              1129.7810              1138.5377
 Red. masses --      1.6437                 1.4622                 1.5297
 Frc consts  --      1.1957                 1.0996                 1.1683
 IR Inten    --     29.9823               158.9344                22.5943

                     46                     47                     48
                      A                      A                      A
 Frequencies --   1149.0497              1188.6942              1193.6712
 Red. masses --      2.1593                 2.5954                 1.2811
 Frc consts  --      1.6797                 2.1607                 1.0755
 IR Inten    --     22.0830               162.4477                19.8910

                     49                     50                     51
                      A                      A                      A
 Frequencies --   1252.4844              1266.6023              1279.0822
 Red. masses --      1.5435                 1.9760                 1.4527
 Frc consts  --      1.4266                 1.8677                 1.4004
 IR Inten    --      5.7024                10.5691                 2.0247

                     52                     53                     54
                      A                      A                      A
 Frequencies --   1292.2667              1309.0804              1325.3198
 Red. masses --      1.2996                 1.3230                 1.2612
 Frc consts  --      1.2787                 1.3358                 1.3052
 IR Inten    --     14.5432                 1.2018                70.2157

                     55                     56                     57
                      A                      A                      A
 Frequencies --   1329.8804              1359.3819              1382.0323
 Red. masses --      1.3277                 1.4937                 1.6234
 Frc consts  --      1.3835                 1.6263                 1.8269
 IR Inten    --     18.4496                40.1667                 5.8346

                     58                     59                     60
                      A                      A                      A
 Frequencies --   1393.8756              1398.8599              1427.3397
 Red. masses --      3.3683                 1.2493                 2.6793
 Frc consts  --      3.8557                 1.4403                 3.2161
 IR Inten    --     29.6994               102.2007                58.1129

                     61                     62                     63
                      A                      A                      A
 Frequencies --   1429.3589              1461.9704              1469.0380
 Red. masses --      2.2075                 1.3132                 1.0818
 Frc consts  --      2.6573                 1.6537                 1.3756
 IR Inten    --     48.4002               539.0754                20.5342

                     64                     65                     66
                      A                      A                      A
 Frequencies --   1479.2189              1497.0386              1512.1629
 Red. masses --      1.1452                 3.1731                 1.0758
 Frc consts  --      1.4764                 4.1899                 1.4493
 IR Inten    --     12.0267                24.2685                29.8161

                     67                     68                     69
                      A                      A                      A
 Frequencies --   1569.0386              1605.5660              1630.5416
 Red. masses --      2.7804                 4.3385                 1.1862
 Frc consts  --      4.0330                 6.5895                 1.8581
 IR Inten    --    226.9029                 2.9719                31.0877

                     70                     71                     72
                      A                      A                      A
 Frequencies --   1678.5924              1696.1717              1807.6455
 Red. masses --      1.1535                 2.4777                 9.7187
 Frc consts  --      1.9149                 4.1999                18.7105
 IR Inten    --     88.3126               113.4574               326.8728

                     73                     74                     75
                      A                      A                      A
 Frequencies --   2504.3553              3040.0775              3043.4700
 Red. masses --      1.0924                 1.0698                 1.0688
 Frc consts  --      4.0368                 5.8254                 5.8332
 IR Inten    --   1250.3437                17.8671                 0.6537

                     76                     77                     78
                      A                      A                      A
 Frequencies --   3077.6568              3093.1052              3111.7978
 Red. masses --      1.0836                 1.0618                 1.0939
 Frc consts  --      6.0470                 5.9853                 6.2407
 IR Inten    --      3.5023                 1.7158                 0.3593

                     79                     80                     81
                      A                      A                      A
 Frequencies --   3116.1643              3148.3161              3238.0509
 Red. masses --      1.0937                 1.1107                 1.0964
 Frc consts  --      6.2574                 6.4862                 6.7731
 IR Inten    --      4.3840                 0.3569                 5.0933

                     82                     83                     84
                      A                      A                      A
 Frequencies --   3251.0883              3466.8810              3531.6534
 Red. masses --      1.0989                 1.0518                 1.0945
 Frc consts  --      6.8432                 7.4486                 8.0431
 IR Inten    --      1.2553                80.6215                74.9784

                     85                     86                     87
                      A                      A                      A
 Frequencies --   3542.0101              3658.9970              3730.8331
 Red. masses --      1.0784                 1.0810                 1.0645
 Frc consts  --      7.9711                 8.5270                 8.7296
 IR Inten    --    138.5574                82.1301               139.0990

 - Thermochemistry -
 -------------------
 Temperature   298.150 Kelvin.  Pressure   1.00000 Atm.
 Atom     1 has atomic number  8 and mass  15.99491

 Molecular mass:   227.11442 amu.
 Principal axes and moments of inertia in atomic units:
                           1         2         3
     Eigenvalues --  2509.905955881.105228056.13889
           X            0.97705   0.20854  -0.04346
           Y            0.12105  -0.37568   0.91881
           Z           -0.17528   0.90298   0.39230
 This molecule is an asymmetric top.
 Rotational symmetry number  1.
 Warning -- assumption of classical behavior for rotation
           may cause significant error
 Rotational temperatures (Kelvin)      0.03451     0.01473     0.01075
 Rotational constants (GHZ):           0.71905     0.30687     0.22402
 Zero-point vibrational energy     679701.1 (Joules/Mol)
                                  162.45246 (Kcal/Mol)
 Warning -- explicit consideration of  22 degrees of freedom as
           vibrations may cause significant error
 Vibrational temperatures:     31.95    43.20    67.24    83.66   103.39
          (Kelvin)            140.10   165.01   187.80   272.14   296.74
                              378.29   417.12   467.06   500.28   561.81
                              574.14   586.15   652.73   784.97   795.27
                              848.89   871.21   924.14   958.09   967.34
                              979.31  1056.74  1064.29  1115.01  1187.03
                             1208.48  1227.56  1239.31  1278.36  1351.87
                             1366.24  1371.70  1437.81  1445.52  1474.62
                             1486.64  1581.99  1598.69  1625.50  1638.10
                             1653.22  1710.26  1717.42  1802.04  1822.36
                             1840.31  1859.28  1883.47  1906.84  1913.40
                             1955.84  1988.43  2005.47  2012.64  2053.62
                             2056.53  2103.45  2113.62  2128.26  2153.90
                             2175.66  2257.49  2310.05  2345.98  2415.12
                             2440.41  2600.80  3603.20  4373.99  4378.87
                             4428.06  4450.28  4477.18  4483.46  4529.72
                             4658.83  4677.59  4988.06  5081.26  5096.16
                             5264.47  5367.83

 Zero-point correction=                           0.258884 (Hartree/Particle)
 Thermal correction to Energy=                    0.274448
 Thermal correction to Enthalpy=                  0.275392
 Thermal correction to Gibbs Free Energy=         0.213237
 Sum of electronic and zero-point Energies=           -796.559021
 Sum of electronic and thermal Energies=              -796.543458
 Sum of electronic and thermal Enthalpies=            -796.542514
 Sum of electronic and thermal Free Energies=         -796.604669

                     E (Thermal)             CV                S
                      KCal/Mol        Cal/Mol-Kelvin    Cal/Mol-Kelvin
 Total                  172.219             57.587            130.816
 Electronic               0.000              0.000              0.000
 Translational            0.889              2.981             42.163
 Rotational               0.889              2.981             33.141
 Vibrational            170.441             51.626             55.512
 Vibration     1          0.593              1.985              6.427
 Vibration     2          0.594              1.984              5.828
 Vibration     3          0.595              1.979              4.951
 Vibration     4          0.596              1.974              4.519
 Vibration     5          0.598              1.967              4.102
 Vibration     6          0.603              1.951              3.506
 Vibration     7          0.608              1.937              3.188
 Vibration     8          0.612              1.923              2.938
 Vibration     9          0.633              1.855              2.236
 Vibration    10          0.641              1.831              2.077
 Vibration    11          0.670              1.741              1.642
 Vibration    12          0.686              1.692              1.474
 Vibration    13          0.709              1.626              1.287
 Vibration    14          0.725              1.580              1.177
 Vibration    15          0.758              1.491              0.998
 Vibration    16          0.765              1.472              0.966
 Vibration    17          0.772              1.454              0.936
 Vibration    18          0.812              1.353              0.785
 Vibration    19          0.901              1.149              0.553
 Vibration    20          0.908              1.134              0.539
 Vibration    21          0.947              1.053              0.467
 Vibration    22          0.964              1.020              0.440

 Normal termination of Gaussian 09 at Sat Jul 24 20:07:18 2021.
