 Gaussian 09, Revision D.01,
 Gaussian 09:  ES64L-G09RevD.01 24-Apr-2013

 ----------------------------------------------------------------------
 # B3LYP/6-311++G(2df,2pd) EmpiricalDispersion=GD3BJ guess=read geom=ch
 eckpoint opt=readfc freq=noraman nosymm integral(ultrafinegrid)
 ----------------------------------------------------------------------

 ------------------------------------------------------------
 Candidate Structure: Conf:885 OPT and FREQ calc in gas phase
 ------------------------------------------------------------
 Structure from the checkpoint file:  "conf-885.chk"
 Charge =  1 Multiplicity = 1

 SCF Done:  E(RB3LYP) =  -796.814122649     A.U. after   12 cycles
 SCF Done:  E(RB3LYP) =  -796.814855367     A.U. after   11 cycles
 SCF Done:  E(RB3LYP) =  -796.814865711     A.U. after   10 cycles
 SCF Done:  E(RB3LYP) =  -796.814856197     A.U. after   11 cycles
 SCF Done:  E(RB3LYP) =  -796.814866395     A.U. after   11 cycles
 SCF Done:  E(RB3LYP) =  -796.814866401     A.U. after    7 cycles
 Optimization completed.
    -- Stationary point found.
 Normal termination of Gaussian 09 at Thu Jul 29 04:46:05 2021.

 ----------------------------------------------------------------------
 #N Geom=AllCheck Guess=TCheck SCRF=Check GenChk RB3LYP/6-311++G(2df,2p
 d) Freq
 ----------------------------------------------------------------------

 Structure from the checkpoint file:  "conf-885.chk"
 ------------------------------------------------------------
 Candidate Structure: Conf:885 OPT and FREQ calc in gas phase
 ------------------------------------------------------------
 Charge =  1 Multiplicity = 1

                          Input orientation:
 ---------------------------------------------------------------------
 Center     Atomic      Atomic             Coordinates (Angstroms)
 Number     Number       Type             X           Y           Z
 ---------------------------------------------------------------------
      1          8           0       -1.428342   -0.113394   -1.391431
      2          6           0       -1.525450   -1.036278   -0.595293
      3          7           0       -0.524036   -1.445782    0.219506
      4          6           0        0.657303   -0.642412    0.502954
      5          6           0        0.254633    0.607658    1.285757
      6          8           0        1.284923    1.135724    1.917055
      7          8           0       -0.871721    1.066406    1.358295
      8          6           0        1.493142   -0.323425   -0.778458
      9          6           0        2.724766    0.466261   -0.543144
     10          6           0        3.000085    1.784860   -0.791910
     11          7           0        4.258333    2.113100   -0.352241
     12          6           0        4.753740    1.012870    0.156363
     13          7           0        3.863182   -0.019126    0.073061
     14          6           0       -2.894826   -1.653416   -0.366902
     15          6           0       -3.701551   -0.709346    0.542156
     16          7           0       -3.374500    0.737778    0.255424
     17          1           0       -0.721481   -2.201837    0.853632
     18          1           0        1.285363   -1.227039    1.173622
     19          1           0        1.023294    1.959569    2.358363
     20          1           0        1.712298   -1.291828   -1.233373
     21          1           0        0.859687    0.215872   -1.474470
     22          1           0        2.360555    2.509154   -1.268637
     23          1           0        5.735170    0.896243    0.584105
     24          1           0        4.042526   -0.970792    0.344158
     25          1           0       -3.376767   -1.746109   -1.337537
     26          1           0       -2.866345   -2.637481    0.097993
     27          1           0       -4.768959   -0.848876    0.398036
     28          1           0       -3.465963   -0.865347    1.591646
     29          1           0       -4.074890    1.365823    0.644173
     30          1           0       -2.436661    0.964508    0.660837
     31          1           0       -3.277420    0.896742   -0.751738
 ---------------------------------------------------------------------

 SCF Done:  E(RB3LYP) =  -796.814866401     A.U. after    1 cycles

 Alpha  occ. eigenvalues --  -19.32243 -19.27792 -19.24755 -14.58264 -14.50057
 Alpha  occ. eigenvalues --  -14.46280 -14.38035 -10.46573 -10.43326 -10.40429
 Alpha  occ. eigenvalues --  -10.38011 -10.34948 -10.31343 -10.31032 -10.30132
 Alpha  occ. eigenvalues --  -10.27385  -1.27220  -1.20695  -1.18099  -1.15626
 Alpha  occ. eigenvalues --   -1.11095  -1.09199  -0.96852  -0.95943  -0.92896
 Alpha  occ. eigenvalues --   -0.86655  -0.83324  -0.80382  -0.78012  -0.75360
 Alpha  occ. eigenvalues --   -0.74239  -0.73389  -0.71030  -0.69177  -0.68501
 Alpha  occ. eigenvalues --   -0.66831  -0.66203  -0.64183  -0.63277  -0.61639
 Alpha  occ. eigenvalues --   -0.61380  -0.60725  -0.58554  -0.57021  -0.56302
 Alpha  occ. eigenvalues --   -0.55516  -0.54194  -0.53773  -0.53414  -0.51698
 Alpha  occ. eigenvalues --   -0.51046  -0.50386  -0.49878  -0.48418  -0.45489
 Alpha  occ. eigenvalues --   -0.42827  -0.41517  -0.37905  -0.36004  -0.32611
 Alpha virt. eigenvalues --   -0.16874  -0.15853  -0.14603  -0.13602  -0.11696
 Alpha virt. eigenvalues --   -0.11252  -0.10397  -0.10000  -0.09106  -0.08702
 Alpha virt. eigenvalues --   -0.08090  -0.07079  -0.06672  -0.06272  -0.05624

 Mulliken charges:
               1
     1  O   -0.361848
     2  C    0.040637
     3  N    0.099162
     4  C    0.116799
     5  C    0.235220
     6  O   -0.144382
     7  O   -0.505509
     8  C   -0.072172
     9  C    0.130092
    10  C   -0.385603
    11  N   -0.252847
    12  C    0.134667
    13  N    0.039376
    14  C   -0.176726
    15  C   -0.114789
    16  N    0.081642
    17  H    0.153115
    18  H    0.113999
    19  H    0.252267
    20  H    0.084124
    21  H    0.121732
    22  H    0.086199
    23  H    0.114430
    24  H    0.132146
    25  H    0.111548
    26  H    0.058684
    27  H    0.105905
    28  H    0.097360
    29  H    0.152883
    30  H    0.380180
    31  H    0.171707
 Sum of Mulliken charges =   1.00000

 Dipole moment (field-independent basis, Debye):
    X=            -10.3272    Y=             -3.9927    Z=              4.8194  Tot=             12.0756
 Quadrupole moment (field-independent basis, Debye-Ang):
   XX=            -37.1827   YY=            -81.4300   ZZ=            -88.3408
   XY=            -14.2632   XZ=              1.9391   YZ=              2.0153

  Exact polarizability: 181.190  14.470 131.787   7.101  -1.069 111.489
 Approx polarizability: 231.256   5.222 215.037  18.466 -14.255 178.228

                      1                      2                      3
                      A                      A                      A
 Frequencies --     11.4348                37.0882                61.9960
 Red. masses --      5.2891                 4.1805                 4.9964
 Frc consts  --      0.0004                 0.0034                 0.0113
 IR Inten    --      2.4552                 3.4947                 1.9594

                      4                      5                      6
                      A                      A                      A
 Frequencies --     82.9263                90.3971               115.0106
 Red. masses --      4.2400                 6.0640                 3.7490
 Frc consts  --      0.0172                 0.0292                 0.0292
 IR Inten    --      3.8986                 7.9021                 2.5455

                      7                      8                      9
                      A                      A                      A
 Frequencies --    138.4543               168.6700               199.1120
 Red. masses --      5.1676                 4.6953                 3.5439
 Frc consts  --      0.0584                 0.0787                 0.0828
 IR Inten    --      9.3981                 8.9810                 7.7750

                     10                     11                     12
                      A                      A                      A
 Frequencies --    215.9204               245.8922               294.6480
 Red. masses --      4.2150                 3.2854                 4.8450
 Frc consts  --      0.1158                 0.1170                 0.2478
 IR Inten    --     12.3806                82.6682                 3.0703

                     13                     14                     15
                      A                      A                      A
 Frequencies --    316.6570               321.9332               333.4400
 Red. masses --      1.3109                 2.1918                 4.6956
 Frc consts  --      0.0774                 0.1338                 0.3076
 IR Inten    --      0.7657                 5.3219                 5.3180

                     16                     17                     18
                      A                      A                      A
 Frequencies --    374.4789               389.9925               444.6465
 Red. masses --      4.1863                 4.2195                 3.5336
 Frc consts  --      0.3459                 0.3781                 0.4116
 IR Inten    --      1.7544                10.4329                 4.0982

                     19                     20                     21
                      A                      A                      A
 Frequencies --    512.1172               519.4189               536.2950
 Red. masses --      2.0960                 1.3447                 1.6154
 Frc consts  --      0.3239                 0.2137                 0.2737
 IR Inten    --     42.4764                99.4563                38.9160

                     22                     23                     24
                      A                      A                      A
 Frequencies --    603.9433               613.4843               668.1763
 Red. masses --      1.5117                 2.4519                 2.6989
 Frc consts  --      0.3249                 0.5437                 0.7099
 IR Inten    --     80.2684                37.3189                26.2439

                     25                     26                     27
                      A                      A                      A
 Frequencies --    679.3259               708.0500               747.9922
 Red. masses --      3.1527                 4.0130                 3.4273
 Frc consts  --      0.8572                 1.1853                 1.1298
 IR Inten    --     18.0173                 1.6240                29.6799

                     28                     29                     30
                      A                      A                      A
 Frequencies --    763.1099               785.7403               791.9437
 Red. masses --      3.0759                 2.9818                 3.2255
 Frc consts  --      1.0554                 1.0846                 1.1919
 IR Inten    --      3.3239                26.6910                12.8122

                     31                     32                     33
                      A                      A                      A
 Frequencies --    840.7925               845.2802               866.9709
 Red. masses --      1.4159                 2.3322                 1.8900
 Frc consts  --      0.5898                 0.9818                 0.8370
 IR Inten    --     20.7173                11.0146                 3.2897

                     34                     35                     36
                      A                      A                      A
 Frequencies --    870.8565               923.7489               937.9533
 Red. masses --      1.9765                 2.1463                 5.7543
 Frc consts  --      0.8832                 1.0791                 2.9826
 IR Inten    --     22.9540                 8.5576                 9.6524

                     37                     38                     39
                      A                      A                      A
 Frequencies --    973.4370               982.8220              1008.5718
 Red. masses --      1.5036                 2.7176                 3.3972
 Frc consts  --      0.8395                 1.5466                 2.0361
 IR Inten    --     15.4969                 2.1254                 5.7231

                     40                     41                     42
                      A                      A                      A
 Frequencies --   1017.2756              1036.1417              1072.2239
 Red. masses --      3.6889                 3.5140                 1.8318
 Frc consts  --      2.2492                 2.2227                 1.2408
 IR Inten    --      4.3964                 3.9663                13.7315

                     43                     44                     45
                      A                      A                      A
 Frequencies --   1105.0898              1122.2117              1142.4951
 Red. masses --      1.6666                 1.4451                 1.7669
 Frc consts  --      1.1992                 1.0723                 1.3588
 IR Inten    --     19.9887                33.0480                 5.3119

                     46                     47                     48
                      A                      A                      A
 Frequencies --   1148.0896              1181.1859              1195.4853
 Red. masses --      2.1651                 1.4502                 2.0224
 Frc consts  --      1.6815                 1.1921                 1.7030
 IR Inten    --     22.9926                36.8099               123.7364

                     49                     50                     51
                      A                      A                      A
 Frequencies --   1241.5346              1264.9586              1282.6582
 Red. masses --      1.5540                 2.2515                 1.3677
 Frc consts  --      1.4113                 2.1226                 1.3258
 IR Inten    --     16.2469                15.3485                 1.8566

                     52                     53                     54
                      A                      A                      A
 Frequencies --   1311.0349              1317.3841              1324.0680
 Red. masses --      1.6126                 1.3756                 1.3685
 Frc consts  --      1.6331                 1.4066                 1.4136
 IR Inten    --     68.1025                 4.7613                18.8531

                     55                     56                     57
                      A                      A                      A
 Frequencies --   1330.9690              1354.5462              1367.7095
 Red. masses --      1.3482                 1.5277                 1.2708
 Frc consts  --      1.4071                 1.6515                 1.4006
 IR Inten    --     38.5338                17.4471                10.4614

                     58                     59                     60
                      A                      A                      A
 Frequencies --   1391.0599              1416.3815              1424.5229
 Red. masses --      3.3424                 1.3082                 2.6985
 Frc consts  --      3.8107                 1.5463                 3.2264
 IR Inten    --     19.3526                 3.8365                25.5934

                     61                     62                     63
                      A                      A                      A
 Frequencies --   1437.0031              1490.5314              1492.4729
 Red. masses --      2.3830                 2.0074                 1.0993
 Frc consts  --      2.8993                 2.6276                 1.4428
 IR Inten    --     27.9053                24.7795                16.3497

                     64                     65                     66
                      A                      A                      A
 Frequencies --   1503.8158              1511.4572              1550.1356
 Red. masses --      1.4497                 1.0805                 1.8243
 Frc consts  --      1.9316                 1.4544                 2.5828
 IR Inten    --      9.3152                10.4247               220.3511

                     67                     68                     69
                      A                      A                      A
 Frequencies --   1561.0333              1609.0645              1621.1448
 Red. masses --      1.1773                 4.4477                 1.1000
 Frc consts  --      1.6903                 6.7847                 1.7032
 IR Inten    --     96.3670                 3.8190                21.6898

                     70                     71                     72
                      A                      A                      A
 Frequencies --   1682.2184              1726.2446              1755.9342
 Red. masses --      1.1386                 5.4540                 5.4583
 Frc consts  --      1.8984                 9.5757                 9.9158
 IR Inten    --     85.8720               350.2387               380.2847

                     73                     74                     75
                      A                      A                      A
 Frequencies --   3017.8386              3044.2078              3078.9122
 Red. masses --      1.0778                 1.0717                 1.0600
 Frc consts  --      5.7833                 5.8517                 5.9204
 IR Inten    --    971.6038                16.9731                 1.1105

                     76                     77                     78
                      A                      A                      A
 Frequencies --   3087.9569              3096.3943              3128.0570
 Red. masses --      1.0849                 1.0607                 1.1064
 Frc consts  --      6.0950                 5.9916                 6.3782
 IR Inten    --      3.7073                 4.1806                 1.1292

                     79                     80                     81
                      A                      A                      A
 Frequencies --   3150.5904              3152.5841              3234.3927
 Red. masses --      1.0916                 1.1104                 1.0969
 Frc consts  --      6.3841                 6.5023                 6.7606
 IR Inten    --      2.4992                 0.3934                 3.6144

                     82                     83                     84
                      A                      A                      A
 Frequencies --   3251.0975              3407.8875              3514.5501
 Red. masses --      1.0989                 1.0599                 1.0865
 Frc consts  --      6.8432                 7.2523                 7.9071
 IR Inten    --      1.5350                59.6148               102.7136

                     85                     86                     87
                      A                      A                      A
 Frequencies --   3625.4635              3647.2116              3728.0001
 Red. masses --      1.0782                 1.0811                 1.0647
 Frc consts  --      8.3495                 8.4729                 8.7178
 IR Inten    --     42.9447                51.0654               120.0876

 - Thermochemistry -
 -------------------
 Temperature   298.150 Kelvin.  Pressure   1.00000 Atm.
 Atom     1 has atomic number  8 and mass  15.99491

 Molecular mass:   227.11442 amu.
 Principal axes and moments of inertia in atomic units:
                           1         2         3
     Eigenvalues --  1372.505416538.257066907.81745
           X            0.97098  -0.16238   0.17558
           Y            0.23854   0.70991  -0.66267
           Z           -0.01704   0.68532   0.72804
 This molecule is an asymmetric top.
 Rotational symmetry number  1.
 Warning -- assumption of classical behavior for rotation
           may cause significant error
 Rotational temperatures (Kelvin)      0.06311     0.01325     0.01254
 Rotational constants (GHZ):           1.31492     0.27603     0.26126
 Zero-point vibrational energy     682923.9 (Joules/Mol)
                                  163.22272 (Kcal/Mol)
 Warning -- explicit consideration of  23 degrees of freedom as
           vibrations may cause significant error
 Vibrational temperatures:     16.45    53.36    89.20   119.31   130.06
          (Kelvin)            165.47   199.20   242.68   286.48   310.66
                              353.78   423.93   455.60   463.19   479.75
                              538.79   561.11   639.75   736.82   747.33
                              771.61   868.94   882.67   961.36   977.40
                             1018.72  1076.19  1097.94  1130.50  1139.43
                             1209.71  1216.17  1247.38  1252.97  1329.07
                             1349.50  1400.56  1414.06  1451.11  1463.63
                             1490.77  1542.69  1589.98  1614.61  1643.79
                             1651.84  1699.46  1720.03  1786.29  1819.99
                             1845.46  1886.28  1895.42  1905.04  1914.97
                             1948.89  1967.83  2001.42  2037.85  2049.57
                             2067.52  2144.54  2147.33  2163.65  2174.65
                             2230.30  2245.98  2315.08  2332.46  2420.33
                             2483.68  2526.39  4341.99  4379.93  4429.86
                             4442.88  4455.02  4500.57  4532.99  4535.86
                             4653.56  4677.60  4903.18  5056.65  5216.23
                             5247.52  5363.75

 Zero-point correction=                           0.260112 (Hartree/Particle)
 Thermal correction to Energy=                    0.275640
 Thermal correction to Enthalpy=                  0.276585
 Thermal correction to Gibbs Free Energy=         0.215313
 Sum of electronic and zero-point Energies=           -796.554754
 Sum of electronic and thermal Energies=              -796.539226
 Sum of electronic and thermal Enthalpies=            -796.538282
 Sum of electronic and thermal Free Energies=         -796.599553

                     E (Thermal)             CV                S
                      KCal/Mol        Cal/Mol-Kelvin    Cal/Mol-Kelvin
 Total                  172.967             58.045            128.957
 Electronic               0.000              0.000              0.000
 Translational            0.889              2.981             42.163
 Rotational               0.889              2.981             32.494
 Vibrational            171.190             52.084             54.299
 Vibration     1          0.593              1.987              7.745
 Vibration     2          0.594              1.982              5.409
 Vibration     3          0.597              1.972              4.393
 Vibration     4          0.600              1.961              3.820
 Vibration     5          0.602              1.956              3.651
 Vibration     6          0.608              1.937              3.183
 Vibration     7          0.614              1.915              2.825
 Vibration     8          0.625              1.881              2.450
 Vibration     9          0.637              1.841              2.141
 Vibration    10          0.645              1.817              1.993
 Vibration    11          0.660              1.770              1.760
 Vibration    12          0.689              1.684              1.447
 Vibration    13          0.704              1.642              1.327
 Vibration    14          0.707              1.632              1.300
 Vibration    15          0.715              1.609              1.243
 Vibration    16          0.746              1.524              1.061
 Vibration    17          0.758              1.492              1.000
 Vibration    18          0.804              1.373              0.812
 Vibration    19          0.867              1.223              0.629
 Vibration    20          0.874              1.207              0.611
 Vibration    21          0.891              1.170              0.573
 Vibration    22          0.962              1.023              0.443
 Vibration    23          0.973              1.003              0.427

 Optimization completed.
    -- Stationary point found.
 Normal termination of Gaussian 09 at Thu Jul 29 12:11:30 2021.
