 Gaussian 09, Revision D.01,
 Gaussian 09:  ES64L-G09RevD.01 24-Apr-2013

 ----------------------------------------------------------------------
 # B3LYP/6-311G(d,p) opt=calcfc freq=noraman nosymm integral(ultrafineg
 rid)
 ----------------------------------------------------------------------

 ------------------------------------------------------------
 Candidate Structure: Conf:342 OPT and FREQ calc in gas phase
 ------------------------------------------------------------
 Symbolic Z-matrix:
 Charge =  1 Multiplicity = 1

 SCF Done:  E(RB3LYP) =  -796.663065523     A.U. after   17 cycles
 SCF Done:  E(RB3LYP) =  -796.668559727     A.U. after   12 cycles
 SCF Done:  E(RB3LYP) =  -796.669257911     A.U. after   12 cycles
 SCF Done:  E(RB3LYP) =  -796.669765139     A.U. after   12 cycles
 SCF Done:  E(RB3LYP) =  -796.670327878     A.U. after   12 cycles
 SCF Done:  E(RB3LYP) =  -796.671260747     A.U. after   14 cycles
 SCF Done:  E(RB3LYP) =  -796.669997743     A.U. after   12 cycles
 SCF Done:  E(RB3LYP) =  -796.671531042     A.U. after    9 cycles
 SCF Done:  E(RB3LYP) =  -796.671739845     A.U. after   11 cycles
 SCF Done:  E(RB3LYP) =  -796.671812594     A.U. after   11 cycles
 SCF Done:  E(RB3LYP) =  -796.671823518     A.U. after   10 cycles
 SCF Done:  E(RB3LYP) =  -796.671826169     A.U. after    9 cycles
 SCF Done:  E(RB3LYP) =  -796.671826447     A.U. after    7 cycles
 SCF Done:  E(RB3LYP) =  -796.671826530     A.U. after    7 cycles
 Optimization completed.
    -- Stationary point found.
 Normal termination of Gaussian 09 at Wed Jul 28 23:06:30 2021.

 ----------------------------------------------------------------------
 #N Geom=AllCheck Guess=TCheck SCRF=Check GenChk RB3LYP/6-311G(d,p) Fre
 q
 ----------------------------------------------------------------------

 Structure from the checkpoint file:  "conf-342.chk"
 ------------------------------------------------------------
 Candidate Structure: Conf:342 OPT and FREQ calc in gas phase
 ------------------------------------------------------------
 Charge =  1 Multiplicity = 1

                          Input orientation:
 ---------------------------------------------------------------------
 Center     Atomic      Atomic             Coordinates (Angstroms)
 Number     Number       Type             X           Y           Z
 ---------------------------------------------------------------------
      1          8           0        1.080221   -1.223542    0.124332
      2          6           0        1.422005   -0.094452   -0.199953
      3          7           0        0.580892    0.907421   -0.501113
      4          6           0       -0.856481    0.710243   -0.638213
      5          6           0       -1.363599    1.906156   -1.467995
      6          8           0       -2.670812    1.961094   -1.703603
      7          8           0       -0.604770    2.745394   -1.882413
      8          6           0       -1.570947    0.570163    0.739603
      9          6           0       -2.941724   -0.018179    0.643779
     10          6           0       -4.204907    0.529746    0.720269
     11          7           0       -5.170853   -0.436277    0.569422
     12          6           0       -4.518488   -1.560109    0.405679
     13          7           0       -3.164704   -1.369191    0.434187
     14          6           0        2.922924    0.260717   -0.299726
     15          6           0        3.694282   -0.682342    0.610730
     16          7           0        5.185521   -0.677229    0.284209
     17          1           0        0.908600    1.787289   -0.891104
     18          1           0       -1.033131   -0.205998   -1.212139
     19          1           0       -3.161085    1.269838   -1.219728
     20          1           0       -1.625162    1.547736    1.224131
     21          1           0       -0.939408   -0.066096    1.363966
     22          1           0       -4.466002    1.561832    0.904484
     23          1           0       -4.961845   -2.533653    0.260860
     24          1           0       -2.456325   -2.084985    0.369423
     25          1           0        3.098284    1.309267   -0.046192
     26          1           0        3.217354    0.113896   -1.346400
     27          1           0        3.338866   -1.703883    0.483222
     28          1           0        3.611726   -0.409206    1.662408
     29          1           0        5.352142   -0.971101   -0.683354
     30          1           0        5.595879    0.254814    0.396348
     31          1           0        5.701276   -1.318420    0.894869
 ---------------------------------------------------------------------

 SCF Done:  E(RB3LYP) =  -796.671826530     A.U. after    1 cycles

 Alpha  occ. eigenvalues --  -19.26264 -19.22797 -19.21222 -14.64373 -14.47046
 Alpha  occ. eigenvalues --  -14.46097 -14.37642 -10.41996 -10.41978 -10.41111
 Alpha  occ. eigenvalues --  -10.36035 -10.34894 -10.31290 -10.30604 -10.30209
 Alpha  occ. eigenvalues --  -10.27672  -1.21177  -1.20898  -1.18472  -1.13254
 Alpha  occ. eigenvalues --   -1.11054  -1.06510  -0.97097  -0.96625  -0.91396
 Alpha  occ. eigenvalues --   -0.86212  -0.83398  -0.79420  -0.79080  -0.77772
 Alpha  occ. eigenvalues --   -0.73363  -0.71346  -0.70755  -0.69691  -0.68745
 Alpha  occ. eigenvalues --   -0.67569  -0.65185  -0.63802  -0.61025  -0.60396
 Alpha  occ. eigenvalues --   -0.58632  -0.57660  -0.57046  -0.55301  -0.54962
 Alpha  occ. eigenvalues --   -0.54195  -0.53329  -0.52103  -0.50979  -0.50821
 Alpha  occ. eigenvalues --   -0.50109  -0.49079  -0.47725  -0.42499  -0.40702
 Alpha  occ. eigenvalues --   -0.39991  -0.38927  -0.37643  -0.35635  -0.32784
 Alpha virt. eigenvalues --   -0.19167  -0.13556  -0.12510  -0.11968  -0.10657
 Alpha virt. eigenvalues --   -0.09915  -0.08067  -0.07379  -0.06019  -0.04970
 Alpha virt. eigenvalues --   -0.04440  -0.04144  -0.02904  -0.02214  -0.01413

 Mulliken charges:
               1
     1  O   -0.385786
     2  C    0.396381
     3  N   -0.404280
     4  C   -0.145325
     5  C    0.423886
     6  O   -0.267160
     7  O   -0.328533
     8  C   -0.166932
     9  C   -0.003019
    10  C   -0.082178
    11  N   -0.268176
    12  C    0.171471
    13  N   -0.356912
    14  C   -0.284732
    15  C   -0.133496
    16  N   -0.332096
    17  H    0.252496
    18  H    0.176090
    19  H    0.270804
    20  H    0.153765
    21  H    0.159232
    22  H    0.130016
    23  H    0.132578
    24  H    0.242185
    25  H    0.162630
    26  H    0.163162
    27  H    0.211290
    28  H    0.192354
    29  H    0.304753
    30  H    0.303921
    31  H    0.311610
 Sum of Mulliken charges =   1.00000

 Dipole moment (field-independent basis, Debye):
    X=             21.7266    Y=             -4.4667    Z=              2.1598  Tot=             22.2859
 Quadrupole moment (field-independent basis, Debye-Ang):
   XX=             14.4857   YY=            -89.6959   ZZ=            -93.5357
   XY=             -4.2725   XZ=              5.4784   YZ=              6.9474

  Exact polarizability: 176.328   3.941 126.072  -2.660 -10.462  91.398
 Approx polarizability: 224.713   6.722 209.945  -4.013 -12.516 139.152

                      1                      2                      3
                      A                      A                      A
 Frequencies --     31.0831                33.7396                48.3609
 Red. masses --      4.5616                 3.6398                 2.0564
 Frc consts  --      0.0026                 0.0024                 0.0028
 IR Inten    --      1.8580                 2.9783                 9.9834

                      4                      5                      6
                      A                      A                      A
 Frequencies --     61.0467                72.2558                85.0296
 Red. masses --      4.8539                 4.3321                 5.6784
 Frc consts  --      0.0107                 0.0133                 0.0242
 IR Inten    --      1.8769                 4.3881                12.3870

                      7                      8                      9
                      A                      A                      A
 Frequencies --    100.6802               107.8071               147.3873
 Red. masses --      7.6142                 5.7530                 4.1861
 Frc consts  --      0.0455                 0.0394                 0.0536
 IR Inten    --      3.1269                11.2573                 9.0262

                     10                     11                     12
                      A                      A                      A
 Frequencies --    189.7481               213.0916               237.5942
 Red. masses --      4.9821                 2.6235                 1.3536
 Frc consts  --      0.1057                 0.0702                 0.0450
 IR Inten    --      1.4200                23.9933                 3.6609

                     13                     14                     15
                      A                      A                      A
 Frequencies --    271.2931               333.0901               335.1460
 Red. masses --      5.5280                 2.3218                 5.6226
 Frc consts  --      0.2397                 0.1518                 0.3721
 IR Inten    --     14.2664                 2.0355                 4.4666

                     16                     17                     18
                      A                      A                      A
 Frequencies --    347.1675               378.8622               384.6605
 Red. masses --      5.2999                 3.6144                 4.4471
 Frc consts  --      0.3764                 0.3057                 0.3877
 IR Inten    --      5.6497                19.9428                12.4930

                     19                     20                     21
                      A                      A                      A
 Frequencies --    545.1249               554.2025               589.1628
 Red. masses --      3.0984                 1.6725                 2.2146
 Frc consts  --      0.5425                 0.3027                 0.4529
 IR Inten    --     39.9790                33.2297                 4.8884

                     22                     23                     24
                      A                      A                      A
 Frequencies --    615.8014               651.0961               661.3472
 Red. masses --      2.7622                 1.6314                 1.8681
 Frc consts  --      0.6171                 0.4075                 0.4814
 IR Inten    --     72.0610                43.0610                55.1073

                     25                     26                     27
                      A                      A                      A
 Frequencies --    672.9983               683.6030               717.3357
 Red. masses --      2.3211                 2.6313                 2.4964
 Frc consts  --      0.6194                 0.7245                 0.7568
 IR Inten    --     16.7797                 1.4093                32.2951

                     28                     29                     30
                      A                      A                      A
 Frequencies --    741.0622               768.6671               797.9161
 Red. masses --      2.8655                 4.1707                 1.4055
 Frc consts  --      0.9272                 1.4519                 0.5272
 IR Inten    --      2.9613                 0.1190                 9.2488

                     31                     32                     33
                      A                      A                      A
 Frequencies --    821.8572               846.8725               869.1410
 Red. masses --      3.0726                 1.4058                 1.3284
 Frc consts  --      1.2228                 0.5940                 0.5912
 IR Inten    --      5.9448                18.1687                10.5694

                     34                     35                     36
                      A                      A                      A
 Frequencies --    883.2203               919.3316               929.6939
 Red. masses --      2.6739                 1.3170                 3.8234
 Frc consts  --      1.2290                 0.6558                 1.9471
 IR Inten    --     36.1209                 5.4567                 5.3508

                     37                     38                     39
                      A                      A                      A
 Frequencies --    933.9400               982.6048              1000.6811
 Red. masses --      4.8935                 2.1186                 3.5722
 Frc consts  --      2.5148                 1.2052                 2.1075
 IR Inten    --     34.7723                14.2492                35.7672

                     40                     41                     42
                      A                      A                      A
 Frequencies --   1022.3569              1028.2478              1093.0655
 Red. masses --      3.7253                 3.3561                 1.7740
 Frc consts  --      2.2941                 2.0907                 1.2488
 IR Inten    --      9.5574                 2.7749                17.8248

                     43                     44                     45
                      A                      A                      A
 Frequencies --   1102.7418              1114.4419              1148.9039
 Red. masses --      1.6956                 2.2127                 1.9886
 Frc consts  --      1.2148                 1.6192                 1.5465
 IR Inten    --     19.0553                31.1329                16.4197

                     46                     47                     48
                      A                      A                      A
 Frequencies --   1149.6702              1173.8689              1227.7252
 Red. masses --      2.5372                 1.3860                 1.9712
 Frc consts  --      1.9759                 1.1252                 1.7505
 IR Inten    --      4.8958                 3.0803                12.7037

                     49                     50                     51
                      A                      A                      A
 Frequencies --   1237.2925              1256.1789              1279.7381
 Red. masses --      1.5517                 2.3315                 1.3615
 Frc consts  --      1.3996                 2.1676                 1.3138
 IR Inten    --     19.5116                19.3565                 0.3065

                     52                     53                     54
                      A                      A                      A
 Frequencies --   1289.5149              1306.7115              1324.7944
 Red. masses --      1.2918                 1.3166                 1.3845
 Frc consts  --      1.2656                 1.3245                 1.4316
 IR Inten    --      1.4803                32.3278                23.5052

                     55                     56                     57
                      A                      A                      A
 Frequencies --   1327.7603              1348.0194              1358.2750
 Red. masses --      1.3120                 1.4374                 1.5696
 Frc consts  --      1.3628                 1.5389                 1.7061
 IR Inten    --      5.5761               121.6739                60.6964

                     58                     59                     60
                      A                      A                      A
 Frequencies --   1383.6979              1406.0239              1408.5076
 Red. masses --      2.2993                 1.3952                 2.1110
 Frc consts  --      2.5937                 1.6250                 2.4675
 IR Inten    --      1.9211                68.2698               157.0681

                     61                     62                     63
                      A                      A                      A
 Frequencies --   1428.5078              1479.7591              1486.1884
 Red. masses --      2.7350                 1.1158                 1.1060
 Frc consts  --      3.2883                 1.4396                 1.4393
 IR Inten    --     22.7105                 0.9587                14.1625

                     64                     65                     66
                      A                      A                      A
 Frequencies --   1499.3176              1507.8299              1518.4286
 Red. masses --      3.8782                 1.0740                 1.1926
 Frc consts  --      5.1366                 1.4386                 1.6200
 IR Inten    --     34.3674                16.0160               233.7672

                     67                     68                     69
                      A                      A                      A
 Frequencies --   1534.8354              1598.4893              1665.0443
 Red. masses --      2.3347                 4.1814                 1.0423
 Frc consts  --      3.2405                 6.2949                 1.7025
 IR Inten    --    280.2209                 7.9772                48.7304

                     70                     71                     72
                      A                      A                      A
 Frequencies --   1668.8831              1748.4227              1828.2028
 Red. masses --      1.0437                 9.8644                 9.4611
 Frc consts  --      1.7127                17.7669                18.6311
 IR Inten    --     39.0485               268.5228               313.5905

                     73                     74                     75
                      A                      A                      A
 Frequencies --   3022.7547              3036.2947              3055.4062
 Red. masses --      1.0646                 1.0823                 1.0608
 Frc consts  --      5.7312                 5.8786                 5.8347
 IR Inten    --      3.6994                 6.3749                12.9659

                     76                     77                     78
                      A                      A                      A
 Frequencies --   3084.5696              3096.8239              3099.5252
 Red. masses --      1.0990                 1.0596                 1.1050
 Frc consts  --      6.1610                 5.9872                 6.2545
 IR Inten    --      4.4813                 4.0698                 3.6256

                     79                     80                     81
                      A                      A                      A
 Frequencies --   3156.4801              3228.6113              3245.1425
 Red. masses --      1.1116                 1.0967                 1.0985
 Frc consts  --      6.5252                 6.7358                 6.8156
 IR Inten    --      2.8368                 2.4204                 0.9970

                     82                     83                     84
                      A                      A                      A
 Frequencies --   3396.7462              3474.2287              3476.0133
 Red. masses --      1.0301                 1.0932                 1.0934
 Frc consts  --      7.0023                 7.7741                 7.7838
 IR Inten    --     56.2042                89.1891                89.0710

                     85                     86                     87
                      A                      A                      A
 Frequencies --   3508.9085              3584.4774              3632.2305
 Red. masses --      1.0779                 1.0678                 1.0816
 Frc consts  --      7.8196                 8.0837                 8.4071
 IR Inten    --    136.8383               490.6426                57.3923

 - Thermochemistry -
 -------------------
 Temperature   298.150 Kelvin.  Pressure   1.00000 Atm.
 Atom     1 has atomic number  8 and mass  15.99491

 Molecular mass:   227.11442 amu.
 Principal axes and moments of inertia in atomic units:
                           1         2         3
     Eigenvalues --  1926.722047535.587449087.94240
           X            0.99918   0.02860   0.02865
           Y           -0.03957   0.83961   0.54174
           Z           -0.00855  -0.54243   0.84006
 This molecule is an asymmetric top.
 Rotational symmetry number  1.
 Warning -- assumption of classical behavior for rotation
           may cause significant error
 Rotational temperatures (Kelvin)      0.04495     0.01149     0.00953
 Rotational constants (GHZ):           0.93669     0.23950     0.19859
 Zero-point vibrational energy     679558.8 (Joules/Mol)
                                  162.41845 (Kcal/Mol)
 Warning -- explicit consideration of  22 degrees of freedom as
           vibrations may cause significant error
 Vibrational temperatures:     44.72    48.54    69.58    87.83   103.96
          (Kelvin)            122.34   144.86   155.11   212.06   273.00
                              306.59   341.84   390.33   479.24   482.20
                              499.50   545.10   553.44   784.31   797.37
                              847.67   886.00   936.78   951.53   968.29
                              983.55  1032.08  1066.22  1105.94  1148.02
                             1182.47  1218.46  1250.50  1270.76  1322.71
                             1337.62  1343.73  1413.75  1439.76  1470.94
                             1479.42  1572.68  1586.60  1603.43  1653.01
                             1654.12  1688.93  1766.42  1780.19  1807.36
                             1841.26  1855.32  1880.06  1906.08  1910.35
                             1939.50  1954.25  1990.83  2022.95  2026.53
                             2055.30  2129.04  2138.29  2157.18  2169.43
                             2184.68  2208.28  2299.87  2395.62  2401.15
                             2515.59  2630.37  4349.06  4368.55  4396.04
                             4438.00  4455.63  4459.52  4541.47  4645.25
                             4669.03  4887.15  4998.63  5001.20  5048.53
                             5157.26  5225.96

 Zero-point correction=                           0.258830 (Hartree/Particle)
 Thermal correction to Energy=                    0.275006
 Thermal correction to Enthalpy=                  0.275950
 Thermal correction to Gibbs Free Energy=         0.212606
 Sum of electronic and zero-point Energies=           -796.412996
 Sum of electronic and thermal Energies=              -796.396821
 Sum of electronic and thermal Enthalpies=            -796.395877
 Sum of electronic and thermal Free Energies=         -796.459221

                     E (Thermal)             CV                S
                      KCal/Mol        Cal/Mol-Kelvin    Cal/Mol-Kelvin
 Total                  172.569             58.637            133.319
 Electronic               0.000              0.000              0.000
 Translational            0.889              2.981             42.163
 Rotational               0.889              2.981             33.245
 Vibrational            170.791             52.676             57.911
 Vibration     1          0.594              1.983              5.759
 Vibration     2          0.594              1.983              5.596
 Vibration     3          0.595              1.978              4.883
 Vibration     4          0.597              1.973              4.423
 Vibration     5          0.598              1.967              4.091
 Vibration     6          0.601              1.960              3.771
 Vibration     7          0.604              1.949              3.441
 Vibration     8          0.606              1.943              3.308
 Vibration     9          0.617              1.906              2.706
 Vibration    10          0.633              1.854              2.230
 Vibration    11          0.644              1.821              2.017
 Vibration    12          0.656              1.783              1.821
 Vibration    13          0.675              1.726              1.588
 Vibration    14          0.715              1.609              1.245
 Vibration    15          0.716              1.605              1.235
 Vibration    16          0.725              1.581              1.179
 Vibration    17          0.749              1.515              1.044
 Vibration    18          0.754              1.503              1.021
 Vibration    19          0.900              1.150              0.554
 Vibration    20          0.910              1.131              0.536
 Vibration    21          0.946              1.055              0.469
 Vibration    22          0.975              0.998              0.423

 Normal termination of Gaussian 09 at Wed Jul 28 23:38:49 2021.
