 Gaussian 09, Revision D.01,
 Gaussian 09:  ES64L-G09RevD.01 24-Apr-2013

 ----------------------------------------------------------------------
 # B3LYP/6-311G(d,p) opt=calcfc freq=noraman nosymm integral(ultrafineg
 rid)
 ----------------------------------------------------------------------

 ------------------------------------------------------------
 Candidate Structure: Conf:628 OPT and FREQ calc in gas phase
 ------------------------------------------------------------
 Symbolic Z-matrix:
 Charge =  1 Multiplicity = 1

 SCF Done:  E(RB3LYP) =  -796.689558749     A.U. after   14 cycles
 SCF Done:  E(RB3LYP) =  -796.696237126     A.U. after   12 cycles
 SCF Done:  E(RB3LYP) =  -796.697631452     A.U. after   12 cycles
 SCF Done:  E(RB3LYP) =  -796.698247813     A.U. after   11 cycles
 SCF Done:  E(RB3LYP) =  -796.698450975     A.U. after   12 cycles
 SCF Done:  E(RB3LYP) =  -796.698475708     A.U. after    9 cycles
 SCF Done:  E(RB3LYP) =  -796.698480257     A.U. after    9 cycles
 SCF Done:  E(RB3LYP) =  -796.698481522     A.U. after    8 cycles
 SCF Done:  E(RB3LYP) =  -796.698481962     A.U. after    8 cycles
 SCF Done:  E(RB3LYP) =  -796.698482015     A.U. after    7 cycles
 Optimization completed.
    -- Stationary point found.
 Normal termination of Gaussian 09 at Wed Jul 28 22:55:31 2021.

 ----------------------------------------------------------------------
 #N Geom=AllCheck Guess=TCheck SCRF=Check GenChk RB3LYP/6-311G(d,p) Fre
 q
 ----------------------------------------------------------------------

 Structure from the checkpoint file:  "conf-628.chk"
 ------------------------------------------------------------
 Candidate Structure: Conf:628 OPT and FREQ calc in gas phase
 ------------------------------------------------------------
 Charge =  1 Multiplicity = 1

                          Input orientation:
 ---------------------------------------------------------------------
 Center     Atomic      Atomic             Coordinates (Angstroms)
 Number     Number       Type             X           Y           Z
 ---------------------------------------------------------------------
      1          8           0       -1.441860   -0.092907   -0.866978
      2          6           0       -1.544545   -0.205612    0.370984
      3          7           0       -0.489911   -0.344624    1.167871
      4          6           0        0.889375   -0.414135    0.677361
      5          6           0        1.687991   -1.017019    1.828789
      6          8           0        2.979209   -1.201105    1.519252
      7          8           0        1.213816   -1.279254    2.905108
      8          6           0        1.439816    0.978655    0.216545
      9          6           0        2.387505    0.931833   -0.935294
     10          6           0        2.215829    1.322089   -2.242322
     11          7           0        3.359290    1.120395   -2.972439
     12          6           0        4.224303    0.611029   -2.127485
     13          7           0        3.692799    0.478533   -0.876677
     14          6           0       -2.925653   -0.149111    1.027416
     15          6           0       -4.009078   -0.739646    0.118088
     16          7           0       -3.957620   -0.065850   -1.235899
     17          1           0       -0.602383   -0.522397    2.161315
     18          1           0        0.924943   -1.093702   -0.177780
     19          1           0        3.418261   -1.582780    2.297142
     20          1           0        0.579325    1.563652   -0.109040
     21          1           0        1.867188    1.502678    1.078218
     22          1           0        1.329267    1.746975   -2.689049
     23          1           0        5.238722    0.322526   -2.357386
     24          1           0        4.137052    0.069470   -0.069963
     25          1           0       -2.940169   -0.687548    1.976945
     26          1           0       -3.149732    0.898705    1.258759
     27          1           0       -3.829919   -1.799700   -0.062975
     28          1           0       -5.005005   -0.620499    0.542089
     29          1           0       -4.353694    0.875397   -1.215607
     30          1           0       -2.892602   -0.004918   -1.428445
     31          1           0       -4.442500   -0.600848   -1.957146
 ---------------------------------------------------------------------

 SCF Done:  E(RB3LYP) =  -796.698482015     A.U. after    1 cycles

 Alpha  occ. eigenvalues --  -19.30414 -19.26271 -19.24879 -14.58436 -14.49843
 Alpha  occ. eigenvalues --  -14.44673 -14.36400 -10.44532 -10.44283 -10.40916
 Alpha  occ. eigenvalues --  -10.36575 -10.36365 -10.30722 -10.29971 -10.29090
 Alpha  occ. eigenvalues --  -10.26206  -1.25158  -1.21674  -1.16431  -1.15692
 Alpha  occ. eigenvalues --   -1.09757  -1.09050  -0.96538  -0.95360  -0.92260
 Alpha  occ. eigenvalues --   -0.85941  -0.83342  -0.78758  -0.77499  -0.75508
 Alpha  occ. eigenvalues --   -0.74477  -0.72949  -0.69808  -0.68447  -0.67512
 Alpha  occ. eigenvalues --   -0.66314  -0.64647  -0.63116  -0.62362  -0.61615
 Alpha  occ. eigenvalues --   -0.60831  -0.59404  -0.58437  -0.56802  -0.56469
 Alpha  occ. eigenvalues --   -0.55455  -0.54749  -0.52932  -0.52065  -0.50704
 Alpha  occ. eigenvalues --   -0.49854  -0.49752  -0.48777  -0.46266  -0.43975
 Alpha  occ. eigenvalues --   -0.42624  -0.42168  -0.36390  -0.34570  -0.31291
 Alpha virt. eigenvalues --   -0.15926  -0.14523  -0.12966  -0.10226  -0.10020
 Alpha virt. eigenvalues --   -0.08351  -0.07519  -0.06675  -0.05301  -0.05018
 Alpha virt. eigenvalues --   -0.03656  -0.02671  -0.02244  -0.02014  -0.01747

 Mulliken charges:
               1
     1  O   -0.438384
     2  C    0.443049
     3  N   -0.394436
     4  C   -0.063393
     5  C    0.395902
     6  O   -0.325471
     7  O   -0.322940
     8  C   -0.191689
     9  C    0.086017
    10  C   -0.051685
    11  N   -0.284179
    12  C    0.162369
    13  N   -0.367745
    14  C   -0.296162
    15  C   -0.145334
    16  N   -0.347848
    17  H    0.261375
    18  H    0.197383
    19  H    0.288026
    20  H    0.149875
    21  H    0.149769
    22  H    0.095240
    23  H    0.124749
    24  H    0.234231
    25  H    0.180716
    26  H    0.181529
    27  H    0.189813
    28  H    0.191598
    29  H    0.284978
    30  H    0.317134
    31  H    0.295513
 Sum of Mulliken charges =   1.00000

 Dipole moment (field-independent basis, Debye):
    X=            -12.2057    Y=             -2.2919    Z=              2.7653  Tot=             12.7232
 Quadrupole moment (field-independent basis, Debye-Ang):
   XX=             -4.3111   YY=            -88.6067   ZZ=            -95.0734
   XY=             -5.9710   XZ=             25.2471   YZ=              2.7164

  Exact polarizability: 164.529  -4.212  89.686  -6.725 -15.853 136.896
 Approx polarizability: 208.898 -13.597 137.000  -5.935 -21.088 221.352

                      1                      2                      3
                      A                      A                      A
 Frequencies --     27.6163                32.9210                51.3858
 Red. masses --      4.8539                 4.0184                 4.9131
 Frc consts  --      0.0022                 0.0026                 0.0076
 IR Inten    --      3.7858                 8.5395                 2.2007

                      4                      5                      6
                      A                      A                      A
 Frequencies --     60.6673                74.1010                96.0447
 Red. masses --      5.1176                 5.6817                 4.9361
 Frc consts  --      0.0111                 0.0184                 0.0268
 IR Inten    --      6.7831                 3.5818                 7.0879

                      7                      8                      9
                      A                      A                      A
 Frequencies --    115.5089               132.2122               188.1940
 Red. masses --      5.0889                 5.4712                 5.0155
 Frc consts  --      0.0400                 0.0563                 0.1047
 IR Inten    --      2.2126                 0.4502                 8.5028

                     10                     11                     12
                      A                      A                      A
 Frequencies --    206.9044               260.9550               286.8845
 Red. masses --      2.1871                 5.1367                 4.0520
 Frc consts  --      0.0552                 0.2061                 0.1965
 IR Inten    --     29.1575                57.7086                 3.6649

                     13                     14                     15
                      A                      A                      A
 Frequencies --    319.9619               344.9669               385.0545
 Red. masses --      2.0852                 6.1785                 4.0585
 Frc consts  --      0.1258                 0.4332                 0.3545
 IR Inten    --     11.9306                 1.8573                74.1720

                     16                     17                     18
                      A                      A                      A
 Frequencies --    386.7992               403.9489               447.2342
 Red. masses --      2.9264                 1.5208                 2.2417
 Frc consts  --      0.2580                 0.1462                 0.2642
 IR Inten    --     76.2944                10.0826                 7.1814

                     19                     20                     21
                      A                      A                      A
 Frequencies --    541.3754               550.2107               587.5297
 Red. masses --      2.6894                 1.6066                 2.3515
 Frc consts  --      0.4644                 0.2866                 0.4782
 IR Inten    --     57.6259                61.7890                 8.0438

                     22                     23                     24
                      A                      A                      A
 Frequencies --    605.2761               643.8610               666.7946
 Red. masses --      2.2217                 2.9662                 2.1190
 Frc consts  --      0.4796                 0.7245                 0.5551
 IR Inten    --     30.4674                71.6916               107.3287

                     25                     26                     27
                      A                      A                      A
 Frequencies --    669.8306               680.5914               731.0371
 Red. masses --      1.2318                 2.6249                 3.1172
 Frc consts  --      0.3256                 0.7164                 0.9815
 IR Inten    --     29.2208                 1.5149                12.6083

                     28                     29                     30
                      A                      A                      A
 Frequencies --    737.8241               768.9794               817.2683
 Red. masses --      3.0492                 4.0247                 2.6196
 Frc consts  --      0.9780                 1.4022                 1.0309
 IR Inten    --     37.2071                 9.2989                 7.2974

                     31                     32                     33
                      A                      A                      A
 Frequencies --    834.3084               848.0987               856.0780
 Red. masses --      1.3967                 2.5561                 1.4604
 Frc consts  --      0.5728                 1.0832                 0.6306
 IR Inten    --     23.8859                34.5632                12.6889

                     34                     35                     36
                      A                      A                      A
 Frequencies --    883.9449               934.0201               944.9453
 Red. masses --      2.0258                 5.6556                 2.4257
 Frc consts  --      0.9326                 2.9070                 1.2761
 IR Inten    --     91.1956                14.3500                 2.5918

                     37                     38                     39
                      A                      A                      A
 Frequencies --    950.9903               996.2321              1003.2925
 Red. masses --      1.4041                 3.7499                 3.5857
 Frc consts  --      0.7482                 2.1927                 2.1266
 IR Inten    --      4.2902                 1.2969                 3.2666

                     40                     41                     42
                      A                      A                      A
 Frequencies --   1021.8348              1029.5298              1093.4567
 Red. masses --      3.7101                 3.3840                 3.2449
 Frc consts  --      2.2824                 2.1133                 2.2859
 IR Inten    --     30.1509                11.8930                13.9546

                     43                     44                     45
                      A                      A                      A
 Frequencies --   1110.9195              1126.4050              1137.3649
 Red. masses --      1.6427                 1.4118                 1.5273
 Frc consts  --      1.1944                 1.0554                 1.1641
 IR Inten    --     38.5014               152.3689                29.1649

                     46                     47                     48
                      A                      A                      A
 Frequencies --   1151.7820              1188.0990              1195.2017
 Red. masses --      1.9538                 1.3381                 2.4197
 Frc consts  --      1.5271                 1.1129                 2.0365
 IR Inten    --     20.0694                 2.9432               194.4112

                     49                     50                     51
                      A                      A                      A
 Frequencies --   1251.0610              1267.1468              1273.8639
 Red. masses --      1.5132                 2.2042                 1.3994
 Frc consts  --      1.3954                 2.0853                 1.3380
 IR Inten    --      9.2717                 8.4995                 2.1445

                     52                     53                     54
                      A                      A                      A
 Frequencies --   1291.2092              1309.1674              1325.3636
 Red. masses --      1.3086                 1.3025                 1.3342
 Frc consts  --      1.2855                 1.3153                 1.3809
 IR Inten    --     14.8994                 0.3916                 7.1775

                     55                     56                     57
                      A                      A                      A
 Frequencies --   1326.5076              1359.0379              1379.7745
 Red. masses --      1.2549                 1.4707                 1.6529
 Frc consts  --      1.3010                 1.6004                 1.8541
 IR Inten    --     77.0944                40.2872                 5.8945

                     58                     59                     60
                      A                      A                      A
 Frequencies --   1391.0321              1399.8467              1425.6456
 Red. masses --      3.2292                 1.2419                 2.2742
 Frc consts  --      3.6814                 1.4338                 2.7233
 IR Inten    --     38.0034               124.3094                73.6005

                     61                     62                     63
                      A                      A                      A
 Frequencies --   1433.8043              1458.9117              1466.6864
 Red. masses --      2.7637                 1.3007                 1.0814
 Frc consts  --      3.3475                 1.6311                 1.3706
 IR Inten    --     32.9721               489.0920                16.4792

                     64                     65                     66
                      A                      A                      A
 Frequencies --   1476.6862              1498.5528              1510.9595
 Red. masses --      1.1463                 3.3695                 1.0757
 Frc consts  --      1.4727                 4.4582                 1.4469
 IR Inten    --     10.8504                23.3095                29.8082

                     67                     68                     69
                      A                      A                      A
 Frequencies --   1568.1694              1603.7299              1632.2942
 Red. masses --      2.6370                 4.2867                 1.1535
 Frc consts  --      3.8207                 6.4958                 1.8108
 IR Inten    --    246.5447                 3.5270                29.3669

                     70                     71                     72
                      A                      A                      A
 Frequencies --   1680.1058              1702.9381              1819.4292
 Red. masses --      1.1140                 3.0051                 9.7242
 Frc consts  --      1.8527                 5.1345                18.9658
 IR Inten    --     85.4622               141.0949               305.4992

                     73                     74                     75
                      A                      A                      A
 Frequencies --   2531.1139              3032.1286              3038.7704
 Red. masses --      1.0922                 1.0698                 1.0684
 Frc consts  --      4.1225                 5.7950                 5.8129
 IR Inten    --   1192.6479                19.7026                 1.0303

                     76                     77                     78
                      A                      A                      A
 Frequencies --   3073.0356              3089.2872              3103.8913
 Red. masses --      1.0838                 1.0631                 1.0931
 Frc consts  --      6.0301                 5.9780                 6.2050
 IR Inten    --      3.8690                 1.9909                 0.7203

                     79                     80                     81
                      A                      A                      A
 Frequencies --   3108.0159              3144.9126              3229.6359
 Red. masses --      1.0939                 1.1111                 1.0964
 Frc consts  --      6.2258                 6.4750                 6.7377
 IR Inten    --      5.3066                 0.7202                 6.6125

                     82                     83                     84
                      A                      A                      A
 Frequencies --   3244.1305              3457.0666              3521.4917
 Red. masses --      1.0982                 1.0520                 1.0947
 Frc consts  --      6.8096                 7.4080                 7.9986
 IR Inten    --      0.5719                81.3402                74.4760

                     85                     86                     87
                      A                      A                      A
 Frequencies --   3532.1205              3653.2724              3731.6312
 Red. masses --      1.0785                 1.0811                 1.0645
 Frc consts  --      7.9275                 8.5013                 8.7337
 IR Inten    --    136.1576                81.1397               131.8793

 - Thermochemistry -
 -------------------
 Temperature   298.150 Kelvin.  Pressure   1.00000 Atm.
 Atom     1 has atomic number  8 and mass  15.99491

 Molecular mass:   227.11442 amu.
 Principal axes and moments of inertia in atomic units:
                           1         2         3
     Eigenvalues --  2466.777716081.245818221.69059
           X            0.97581   0.21418  -0.04380
           Y            0.12511  -0.38282   0.91531
           Z           -0.17928   0.89865   0.40035
 This molecule is an asymmetric top.
 Rotational symmetry number  1.
 Warning -- assumption of classical behavior for rotation
           may cause significant error
 Rotational temperatures (Kelvin)      0.03511     0.01424     0.01053
 Rotational constants (GHZ):           0.73162     0.29677     0.21951
 Zero-point vibrational energy     678706.5 (Joules/Mol)
                                  162.21475 (Kcal/Mol)
 Warning -- explicit consideration of  22 degrees of freedom as
           vibrations may cause significant error
 Vibrational temperatures:     39.73    47.37    73.93    87.29   106.61
          (Kelvin)            138.19   166.19   190.22   270.77   297.69
                              375.46   412.76   460.35   496.33   554.01
                              556.52   581.19   643.47   778.92   791.63
                              845.32   870.86   926.37   959.37   963.74
                              979.22  1051.80  1061.56  1106.39  1175.87
                             1200.38  1220.22  1231.70  1271.80  1343.84
                             1359.56  1368.26  1433.35  1443.51  1470.19
                             1481.26  1573.24  1598.36  1620.64  1636.41
                             1657.16  1709.41  1719.63  1800.00  1823.14
                             1832.80  1857.76  1883.60  1906.90  1908.55
                             1955.35  1985.19  2001.38  2014.06  2051.18
                             2062.92  2099.05  2110.23  2124.62  2156.08
                             2173.93  2256.24  2307.41  2348.50  2417.29
                             2450.15  2617.75  3641.70  4362.55  4372.11
                             4421.41  4444.79  4465.80  4471.74  4524.82
                             4646.72  4667.57  4973.94  5066.63  5081.93
                             5256.24  5368.98

 Zero-point correction=                           0.258506 (Hartree/Particle)
 Thermal correction to Energy=                    0.274093
 Thermal correction to Enthalpy=                  0.275037
 Thermal correction to Gibbs Free Energy=         0.213211
 Sum of electronic and zero-point Energies=           -796.439976
 Sum of electronic and thermal Energies=              -796.424389
 Sum of electronic and thermal Enthalpies=            -796.423445
 Sum of electronic and thermal Free Energies=         -796.485271

                     E (Thermal)             CV                S
                      KCal/Mol        Cal/Mol-Kelvin    Cal/Mol-Kelvin
 Total                  171.996             57.787            130.126
 Electronic               0.000              0.000              0.000
 Translational            0.889              2.981             42.163
 Rotational               0.889              2.981             33.178
 Vibrational            170.219             51.826             54.785
 Vibration     1          0.593              1.984              5.994
 Vibration     2          0.594              1.983              5.645
 Vibration     3          0.596              1.977              4.763
 Vibration     4          0.597              1.973              4.435
 Vibration     5          0.599              1.966              4.041
 Vibration     6          0.603              1.952              3.533
 Vibration     7          0.608              1.937              3.174
 Vibration     8          0.612              1.921              2.914
 Vibration     9          0.633              1.856              2.246
 Vibration    10          0.641              1.830              2.071
 Vibration    11          0.669              1.744              1.655
 Vibration    12          0.684              1.698              1.492
 Vibration    13          0.706              1.635              1.310
 Vibration    14          0.723              1.586              1.189
 Vibration    15          0.754              1.502              1.019
 Vibration    16          0.755              1.498              1.012
 Vibration    17          0.769              1.462              0.948
 Vibration    18          0.806              1.367              0.804
 Vibration    19          0.896              1.159              0.562
 Vibration    20          0.905              1.139              0.544
 Vibration    21          0.945              1.058              0.472
 Vibration    22          0.964              1.021              0.441

 Optimization completed.
    -- Stationary point found.
 Normal termination of Gaussian 09 at Wed Jul 28 23:28:42 2021.
