 Gaussian 09, Revision D.01,
 Gaussian 09:  ES64L-G09RevD.01 24-Apr-2013

 ----------------------------------------------------------------------
 # B3LYP/6-311G(d,p) opt=calcfc freq=noraman nosymm integral(ultrafineg
 rid)
 ----------------------------------------------------------------------

 ------------------------------------------------------------
 Candidate Structure: Conf:885 OPT and FREQ calc in gas phase
 ------------------------------------------------------------
 Symbolic Z-matrix:
 Charge =  1 Multiplicity = 1

 SCF Done:  E(RB3LYP) =  -796.681563574     A.U. after   14 cycles
 SCF Done:  E(RB3LYP) =  -796.687765708     A.U. after   12 cycles
 SCF Done:  E(RB3LYP) =  -796.689220751     A.U. after   13 cycles
 SCF Done:  E(RB3LYP) =  -796.690200208     A.U. after   13 cycles
 SCF Done:  E(RB3LYP) =  -796.690381016     A.U. after   12 cycles
 SCF Done:  E(RB3LYP) =  -796.690251646     A.U. after   11 cycles
 SCF Done:  E(RB3LYP) =  -796.689967767     A.U. after   14 cycles
 SCF Done:  E(RB3LYP) =  -796.690522086     A.U. after   13 cycles
 SCF Done:  E(RB3LYP) =  -796.690739781     A.U. after   12 cycles
 SCF Done:  E(RB3LYP) =  -796.690805473     A.U. after   13 cycles
 SCF Done:  E(RB3LYP) =  -796.690881971     A.U. after   11 cycles
 SCF Done:  E(RB3LYP) =  -796.690907020     A.U. after   12 cycles
 SCF Done:  E(RB3LYP) =  -796.690920144     A.U. after   11 cycles
 SCF Done:  E(RB3LYP) =  -796.690924253     A.U. after    9 cycles
 SCF Done:  E(RB3LYP) =  -796.690925905     A.U. after   10 cycles
 SCF Done:  E(RB3LYP) =  -796.690926161     A.U. after    8 cycles
 SCF Done:  E(RB3LYP) =  -796.690926174     A.U. after    7 cycles
 Optimization completed.
    -- Stationary point found.
 Normal termination of Gaussian 09 at Wed Jul 28 23:17:12 2021.

 ----------------------------------------------------------------------
 #N Geom=AllCheck Guess=TCheck SCRF=Check GenChk RB3LYP/6-311G(d,p) Fre
 q
 ----------------------------------------------------------------------

 Structure from the checkpoint file:  "conf-885.chk"
 ------------------------------------------------------------
 Candidate Structure: Conf:885 OPT and FREQ calc in gas phase
 ------------------------------------------------------------
 Charge =  1 Multiplicity = 1

                          Input orientation:
 ---------------------------------------------------------------------
 Center     Atomic      Atomic             Coordinates (Angstroms)
 Number     Number       Type             X           Y           Z
 ---------------------------------------------------------------------
      1          8           0       -1.537313    0.285371   -0.778005
      2          6           0       -1.515490   -0.805165   -0.185146
      3          7           0       -0.407536   -1.338523    0.347051
      4          6           0        0.817252   -0.573283    0.618857
      5          6           0        0.495885    0.467312    1.707539
      6          8           0        1.613833    0.983496    2.216525
      7          8           0       -0.618762    0.754223    2.068550
      8          6           0        1.457201    0.013478   -0.680691
      9          6           0        2.817709    0.598870   -0.520808
     10          6           0        3.249087    1.901648   -0.556272
     11          7           0        4.605017    1.981197   -0.359460
     12          6           0        5.007517    0.743550   -0.207185
     13          7           0        3.966882   -0.140627   -0.290671
     14          6           0       -2.823479   -1.582064   -0.039590
     15          6           0       -3.923315   -0.637330    0.468451
     16          7           0       -4.061554    0.533613   -0.481650
     17          1           0       -0.518908   -2.198910    0.862315
     18          1           0        1.526562   -1.278303    1.057406
     19          1           0        1.375086    1.650253    2.880279
     20          1           0        1.467986   -0.808643   -1.405425
     21          1           0        0.793572    0.775588   -1.084951
     22          1           0        2.650806    2.786703   -0.713945
     23          1           0        6.024711    0.423100   -0.040315
     24          1           0        4.045647   -1.145265   -0.265594
     25          1           0       -3.094445   -1.999583   -1.014981
     26          1           0       -2.742642   -2.416287    0.658923
     27          1           0       -4.885142   -1.139849    0.557709
     28          1           0       -3.645813   -0.216768    1.435129
     29          1           0       -4.605821    0.296142   -1.312601
     30          1           0       -4.491619    1.345273   -0.036897
     31          1           0       -3.042826    0.740859   -0.772548
 ---------------------------------------------------------------------

 SCF Done:  E(RB3LYP) =  -796.690926174     A.U. after    1 cycles

 Alpha  occ. eigenvalues --  -19.28618 -19.25846 -19.23381 -14.58271 -14.49984
 Alpha  occ. eigenvalues --  -14.45029 -14.36426 -10.44369 -10.42924 -10.40574
 Alpha  occ. eigenvalues --  -10.36690 -10.36011 -10.30270 -10.30079 -10.29065
 Alpha  occ. eigenvalues --  -10.26104  -1.23616  -1.21429  -1.15523  -1.14700
 Alpha  occ. eigenvalues --   -1.09824  -1.09058  -0.96255  -0.95451  -0.91869
 Alpha  occ. eigenvalues --   -0.85511  -0.82853  -0.78613  -0.77400  -0.75147
 Alpha  occ. eigenvalues --   -0.74071  -0.72194  -0.69871  -0.68413  -0.67375
 Alpha  occ. eigenvalues --   -0.66194  -0.64114  -0.62805  -0.62188  -0.60734
 Alpha  occ. eigenvalues --   -0.59864  -0.58587  -0.57845  -0.57049  -0.56071
 Alpha  occ. eigenvalues --   -0.54497  -0.53747  -0.52586  -0.52002  -0.51010
 Alpha  occ. eigenvalues --   -0.49650  -0.48983  -0.48532  -0.44794  -0.43352
 Alpha  occ. eigenvalues --   -0.42923  -0.40474  -0.36467  -0.34564  -0.31172
 Alpha virt. eigenvalues --   -0.15753  -0.14435  -0.12117  -0.10584  -0.09792
 Alpha virt. eigenvalues --   -0.08567  -0.07387  -0.05975  -0.05462  -0.05158
 Alpha virt. eigenvalues --   -0.03875  -0.03419  -0.02574  -0.01646  -0.01366

 Mulliken charges:
               1
     1  O   -0.438606
     2  C    0.455458
     3  N   -0.365708
     4  C   -0.099029
     5  C    0.406167
     6  O   -0.284319
     7  O   -0.344951
     8  C   -0.188796
     9  C    0.093250
    10  C   -0.048948
    11  N   -0.283340
    12  C    0.164425
    13  N   -0.379574
    14  C   -0.286086
    15  C   -0.149604
    16  N   -0.343352
    17  H    0.248339
    18  H    0.168890
    19  H    0.275622
    20  H    0.146335
    21  H    0.168192
    22  H    0.100456
    23  H    0.125923
    24  H    0.227795
    25  H    0.180726
    26  H    0.166093
    27  H    0.190238
    28  H    0.198474
    29  H    0.285341
    30  H    0.296318
    31  H    0.314270
 Sum of Mulliken charges =   1.00000

 Dipole moment (field-independent basis, Debye):
    X=            -13.2728    Y=             -5.2454    Z=              1.0867  Tot=             14.3130
 Quadrupole moment (field-independent basis, Debye-Ang):
   XX=            -22.6661   YY=            -80.8019   ZZ=            -86.0228
   XY=            -15.3226   XZ=              9.6798   YZ=              0.7198

  Exact polarizability: 175.512   8.934 119.259   3.895  -1.169  95.056
 Approx polarizability: 226.291   1.238 199.170   9.226  -7.610 143.487

                      1                      2                      3
                      A                      A                      A
 Frequencies --     18.1692                23.3818                44.1133
 Red. masses --      4.8899                 4.7164                 5.0023
 Frc consts  --      0.0010                 0.0015                 0.0057
 IR Inten    --      3.9300                12.2367                 0.4799

                      4                      5                      6
                      A                      A                      A
 Frequencies --     62.8401                70.6427                81.3316
 Red. masses --      5.7046                 4.1218                 4.6959
 Frc consts  --      0.0133                 0.0121                 0.0183
 IR Inten    --      4.7849                 2.2814                 6.9830

                      7                      8                      9
                      A                      A                      A
 Frequencies --    117.2779               148.2025               182.9997
 Red. masses --      5.3398                 5.9266                 3.2031
 Frc consts  --      0.0433                 0.0767                 0.0632
 IR Inten    --      2.5596                 5.1436                 3.8052

                     10                     11                     12
                      A                      A                      A
 Frequencies --    209.7383               277.6410               306.6858
 Red. masses --      3.6990                 4.6213                 3.9149
 Frc consts  --      0.0959                 0.2099                 0.2169
 IR Inten    --      6.7760                15.8155                65.2273

                     13                     14                     15
                      A                      A                      A
 Frequencies --    322.3511               350.0831               367.9897
 Red. masses --      2.1371                 3.0519                 4.2236
 Frc consts  --      0.1308                 0.2204                 0.3370
 IR Inten    --      3.1245                73.2226                31.5410

                     16                     17                     18
                      A                      A                      A
 Frequencies --    376.2626               392.6057               450.6832
 Red. masses --      2.0464                 1.8949                 3.2353
 Frc consts  --      0.1707                 0.1721                 0.3872
 IR Inten    --      5.3232                18.0148                12.9458

                     19                     20                     21
                      A                      A                      A
 Frequencies --    506.6946               519.8091               562.7435
 Red. masses --      1.4126                 2.7836                 1.8375
 Frc consts  --      0.2137                 0.4431                 0.3428
 IR Inten    --     82.2514                67.7713                15.4735

                     22                     23                     24
                      A                      A                      A
 Frequencies --    598.2562               614.3434               659.6992
 Red. masses --      1.7574                 1.4339                 2.6417
 Frc consts  --      0.3706                 0.3189                 0.6774
 IR Inten    --     63.0572                81.5273                40.1785

                     25                     26                     27
                      A                      A                      A
 Frequencies --    677.1582               696.6293               735.0739
 Red. masses --      3.0843                 4.3765                 3.7129
 Frc consts  --      0.8333                 1.2514                 1.1820
 IR Inten    --      9.3674                 6.8750                23.9759

                     28                     29                     30
                      A                      A                      A
 Frequencies --    745.0721               777.6561               786.9178
 Red. masses --      3.3471                 3.3488                 2.8772
 Frc consts  --      1.0947                 1.1932                 1.0497
 IR Inten    --     39.3996                 9.8525                20.9741

                     31                     32                     33
                      A                      A                      A
 Frequencies --    831.0240               843.2644               862.9108
 Red. masses --      1.4031                 2.6040                 1.4386
 Frc consts  --      0.5709                 1.0910                 0.6311
 IR Inten    --     20.5485                27.2848                13.9566

                     34                     35                     36
                      A                      A                      A
 Frequencies --    888.3585               928.5460               932.1486
 Red. masses --      2.5228                 2.1841                 4.5358
 Frc consts  --      1.1730                 1.1095                 2.3221
 IR Inten    --     42.4194                15.7964                14.2002

                     37                     38                     39
                      A                      A                      A
 Frequencies --    954.7809               981.9148               996.1489
 Red. masses --      1.4203                 2.6413                 3.0641
 Frc consts  --      0.7629                 1.5004                 1.7914
 IR Inten    --      3.9769                 2.5590                 6.1655

                     40                     41                     42
                      A                      A                      A
 Frequencies --   1018.5933              1037.7868              1078.5850
 Red. masses --      3.8037                 3.9852                 3.2663
 Frc consts  --      2.3252                 2.5288                 2.2388
 IR Inten    --     11.2009                 1.7143                12.7225

                     43                     44                     45
                      A                      A                      A
 Frequencies --   1104.1670              1125.7860              1135.2281
 Red. masses --      1.6869                 1.3602                 1.4964
 Frc consts  --      1.2117                 1.0157                 1.1362
 IR Inten    --     25.7352               121.8337                10.9528

                     46                     47                     48
                      A                      A                      A
 Frequencies --   1150.7758              1175.7434              1189.1748
 Red. masses --      1.9924                 1.9795                 1.5710
 Frc consts  --      1.5546                 1.6123                 1.3089
 IR Inten    --     20.4043               140.1984                68.5663

                     49                     50                     51
                      A                      A                      A
 Frequencies --   1258.0622              1263.8127              1276.9140
 Red. masses --      1.4917                 2.3201                 1.3370
 Frc consts  --      1.3910                 2.1834                 1.2845
 IR Inten    --      8.9441                13.5602                 2.1075

                     52                     53                     54
                      A                      A                      A
 Frequencies --   1303.5306              1314.3128              1326.7584
 Red. masses --      1.5253                 1.4081                 1.3308
 Frc consts  --      1.5271                 1.4332                 1.3803
 IR Inten    --     23.8712                11.2454                29.3736

                     55                     56                     57
                      A                      A                      A
 Frequencies --   1330.5698              1356.1166              1385.4576
 Red. masses --      1.2844                 1.5249                 1.6035
 Frc consts  --      1.3397                 1.6523                 1.8135
 IR Inten    --     51.8619                26.9690                20.2809

                     58                     59                     60
                      A                      A                      A
 Frequencies --   1387.1749              1406.1034              1417.7890
 Red. masses --      2.7446                 1.2175                 2.1846
 Frc consts  --      3.1116                 1.4182                 2.5873
 IR Inten    --     60.8946                76.7478                28.9613

                     61                     62                     63
                      A                      A                      A
 Frequencies --   1430.6151              1473.0734              1475.2378
 Red. masses --      2.7952                 1.1457                 1.2034
 Frc consts  --      3.3706                 1.4648                 1.5431
 IR Inten    --     27.0858               206.5141               290.1698

                     64                     65                     66
                      A                      A                      A
 Frequencies --   1491.9332              1500.9240              1509.2724
 Red. masses --      1.4230                 2.1182                 1.0754
 Frc consts  --      1.8662                 2.8114                 1.4433
 IR Inten    --      9.9183                16.9343                61.9476

                     67                     68                     69
                      A                      A                      A
 Frequencies --   1574.1494              1609.6418              1632.4999
 Red. masses --      2.1050                 4.4652                 1.1305
 Frc consts  --      3.0732                 6.8164                 1.7752
 IR Inten    --    148.0731                 4.8974                 3.0587

                     70                     71                     72
                      A                      A                      A
 Frequencies --   1675.8925              1708.0541              1810.8444
 Red. masses --      1.0443                 3.6872                10.3891
 Frc consts  --      1.7282                 6.3379                20.0719
 IR Inten    --     25.2251               125.5372               375.9810

                     73                     74                     75
                      A                      A                      A
 Frequencies --   2580.3495              3025.9101              3048.4065
 Red. masses --      1.0915                 1.0720                 1.0662
 Frc consts  --      4.2817                 5.7831                 5.8374
 IR Inten    --   1106.1777                21.1061                 1.2228

                     76                     77                     78
                      A                      A                      A
 Frequencies --   3080.6894              3089.6860              3110.2060
 Red. masses --      1.0851                 1.0614                 1.0975
 Frc consts  --      6.0676                 5.9696                 6.2551
 IR Inten    --      4.7034                 1.4145                 2.1058

                     79                     80                     81
                      A                      A                      A
 Frequencies --   3133.6803              3148.0175              3229.9702
 Red. masses --      1.0909                 1.1121                 1.0966
 Frc consts  --      6.3119                 6.4931                 6.7407
 IR Inten    --      0.9187                 0.5059                 5.4144

                     82                     83                     84
                      A                      A                      A
 Frequencies --   3243.7365              3457.9313              3522.4049
 Red. masses --      1.0982                 1.0521                 1.0948
 Frc consts  --      6.8081                 7.4119                 8.0029
 IR Inten    --      0.7143                83.0074                73.5150

                     85                     86                     87
                      A                      A                      A
 Frequencies --   3618.5880              3642.1259              3739.9399
 Red. masses --      1.0782                 1.0811                 1.0646
 Frc consts  --      8.3184                 8.4492                 8.7733
 IR Inten    --     49.7870                45.3800               102.5195

 - Thermochemistry -
 -------------------
 Temperature   298.150 Kelvin.  Pressure   1.00000 Atm.
 Atom     1 has atomic number  8 and mass  15.99491

 Molecular mass:   227.11442 amu.
 Principal axes and moments of inertia in atomic units:
                           1         2         3
     Eigenvalues --  1416.208687356.575197605.08188
           X            0.97961  -0.03474  -0.19790
           Y            0.19921   0.29643   0.93405
           Z           -0.02622   0.95442  -0.29730
 This molecule is an asymmetric top.
 Rotational symmetry number  1.
 Warning -- assumption of classical behavior for rotation
           may cause significant error
 Rotational temperatures (Kelvin)      0.06116     0.01177     0.01139
 Rotational constants (GHZ):           1.27435     0.24532     0.23731
 Zero-point vibrational energy     678930.8 (Joules/Mol)
                                  162.26836 (Kcal/Mol)
 Warning -- explicit consideration of  23 degrees of freedom as
           vibrations may cause significant error
 Vibrational temperatures:     26.14    33.64    63.47    90.41   101.64
          (Kelvin)            117.02   168.74   213.23   263.30   301.77
                              399.46   441.25   463.79   503.69   529.45
                              541.36   564.87   648.43   729.02   747.89
                              809.66   860.76   883.90   949.16   974.28
                             1002.29  1057.61  1071.99  1118.87  1132.20
                             1195.66  1213.27  1241.53  1278.15  1335.97
                             1341.15  1373.72  1412.75  1433.23  1465.53
                             1493.14  1551.84  1588.65  1619.75  1633.34
                             1655.71  1691.63  1710.96  1810.07  1818.34
                             1837.19  1875.49  1891.00  1908.91  1914.39
                             1951.15  1993.36  1995.83  2023.07  2039.88
                             2058.33  2119.42  2122.54  2146.56  2159.49
                             2171.50  2264.85  2315.91  2348.80  2411.23
                             2457.51  2605.40  3712.54  4353.60  4385.97
                             4432.42  4445.36  4474.89  4508.66  4529.29
                             4647.20  4667.01  4975.19  5067.95  5206.33
                             5240.20  5380.93

 Zero-point correction=                           0.258591 (Hartree/Particle)
 Thermal correction to Energy=                    0.274299
 Thermal correction to Enthalpy=                  0.275243
 Thermal correction to Gibbs Free Energy=         0.212636
 Sum of electronic and zero-point Energies=           -796.432335
 Sum of electronic and thermal Energies=              -796.416627
 Sum of electronic and thermal Enthalpies=            -796.415683
 Sum of electronic and thermal Free Energies=         -796.478290

                     E (Thermal)             CV                S
                      KCal/Mol        Cal/Mol-Kelvin    Cal/Mol-Kelvin
 Total                  172.125             58.081            131.767
 Electronic               0.000              0.000              0.000
 Translational            0.889              2.981             42.163
 Rotational               0.889              2.981             32.738
 Vibrational            170.348             52.119             56.866
 Vibration     1          0.593              1.986              6.825
 Vibration     2          0.593              1.985              6.324
 Vibration     3          0.595              1.980              5.065
 Vibration     4          0.597              1.972              4.366
 Vibration     5          0.598              1.968              4.135
 Vibration     6          0.600              1.962              3.858
 Vibration     7          0.608              1.935              3.145
 Vibration     8          0.618              1.905              2.695
 Vibration     9          0.630              1.863              2.298
 Vibration    10          0.642              1.826              2.046
 Vibration    11          0.679              1.715              1.548
 Vibration    12          0.697              1.661              1.380
 Vibration    13          0.707              1.631              1.298
 Vibration    14          0.727              1.575              1.166
 Vibration    15          0.741              1.538              1.088
 Vibration    16          0.747              1.521              1.054
 Vibration    17          0.760              1.486              0.990
 Vibration    18          0.809              1.359              0.794
 Vibration    19          0.862              1.235              0.642
 Vibration    20          0.875              1.206              0.610
 Vibration    21          0.918              1.112              0.518
 Vibration    22          0.956              1.035              0.453
 Vibration    23          0.974              1.002              0.426

 Optimization completed.
    -- Stationary point found.
 Normal termination of Gaussian 09 at Wed Jul 28 23:51:32 2021.
