 Gaussian 09, Revision D.01,
 Gaussian 09:  ES64L-G09RevD.01 24-Apr-2013

 ----------------------------------------------------------------------
 # B3LYP/6-311G(d,p) opt=calcfc freq=noraman nosymm integral(ultrafineg
 rid)
 ----------------------------------------------------------------------

 ------------------------------------------------------------
 Candidate Structure: Conf:318 OPT and FREQ calc in gas phase
 ------------------------------------------------------------
 Symbolic Z-matrix:
 Charge =  1 Multiplicity = 1

 SCF Done:  E(RB3LYP) =  -796.659537215     A.U. after   17 cycles
 SCF Done:  E(RB3LYP) =  -796.665125286     A.U. after   14 cycles
 SCF Done:  E(RB3LYP) =  -796.665225099     A.U. after   14 cycles
 SCF Done:  E(RB3LYP) =  -796.663718896     A.U. after   15 cycles
 SCF Done:  E(RB3LYP) =  -796.665473053     A.U. after   11 cycles
 SCF Done:  E(RB3LYP) =  -796.665742595     A.U. after   14 cycles
 SCF Done:  E(RB3LYP) =  -796.665920860     A.U. after   12 cycles
 SCF Done:  E(RB3LYP) =  -796.665951635     A.U. after   11 cycles
 SCF Done:  E(RB3LYP) =  -796.665967871     A.U. after   11 cycles
 SCF Done:  E(RB3LYP) =  -796.665973106     A.U. after   10 cycles
 SCF Done:  E(RB3LYP) =  -796.665973785     A.U. after    8 cycles
 SCF Done:  E(RB3LYP) =  -796.665973855     A.U. after    8 cycles
 SCF Done:  E(RB3LYP) =  -796.665973861     A.U. after    6 cycles
 SCF Done:  E(RB3LYP) =  -796.665973862     A.U. after    5 cycles
 Optimization completed.
    -- Stationary point found.
 Normal termination of Gaussian 09 at Wed Jul 28 23:08:00 2021.

 ----------------------------------------------------------------------
 #N Geom=AllCheck Guess=TCheck SCRF=Check GenChk RB3LYP/6-311G(d,p) Fre
 q
 ----------------------------------------------------------------------

 Structure from the checkpoint file:  "conf-318.chk"
 ------------------------------------------------------------
 Candidate Structure: Conf:318 OPT and FREQ calc in gas phase
 ------------------------------------------------------------
 Charge =  1 Multiplicity = 1

                          Input orientation:
 ---------------------------------------------------------------------
 Center     Atomic      Atomic             Coordinates (Angstroms)
 Number     Number       Type             X           Y           Z
 ---------------------------------------------------------------------
      1          8           0        1.125313    0.589511    1.577866
      2          6           0        1.093342   -0.225976    0.668695
      3          7           0        0.113706   -1.118402    0.457195
      4          6           0       -1.123984   -1.179310    1.220478
      5          6           0       -1.884623   -2.404942    0.675529
      6          8           0       -3.016254   -2.736027    1.306841
      7          8           0       -1.481031   -3.044088   -0.258649
      8          6           0       -1.947427    0.131313    1.183956
      9          6           0       -2.238846    0.665320   -0.185386
     10          6           0       -2.165149    0.148610   -1.458613
     11          7           0       -2.541404    1.085308   -2.393738
     12          6           0       -2.849285    2.158634   -1.709106
     13          7           0       -2.678797    1.964597   -0.366615
     14          6           0        2.225384   -0.263085   -0.383069
     15          6           0        3.461343    0.383829    0.221072
     16          7           0        4.466150    0.772857   -0.860247
     17          1           0        0.150056   -1.777169   -0.313789
     18          1           0       -0.887037   -1.379872    2.272375
     19          1           0       -3.208078   -2.142104    2.043567
     20          1           0       -2.878831   -0.035301    1.742056
     21          1           0       -1.382918    0.871729    1.757138
     22          1           0       -1.883841   -0.848464   -1.758147
     23          1           0       -3.199227    3.094429   -2.117728
     24          1           0       -2.867202    2.636821    0.361328
     25          1           0        1.867901    0.310050   -1.247654
     26          1           0        2.421542   -1.284802   -0.718581
     27          1           0        3.990406   -0.278356    0.905818
     28          1           0        3.189133    1.294356    0.753085
     29          1           0        4.781796   -0.041666   -1.395461
     30          1           0        5.295082    1.218207   -0.454941
     31          1           0        4.052734    1.434235   -1.525073
 ---------------------------------------------------------------------

 SCF Done:  E(RB3LYP) =  -796.665973862     A.U. after    1 cycles

 Alpha  occ. eigenvalues --  -19.27882 -19.22211 -19.22119 -14.63865 -14.46710
 Alpha  occ. eigenvalues --  -14.45503 -14.37163 -10.42013 -10.41483 -10.41401
 Alpha  occ. eigenvalues --  -10.35559 -10.35382 -10.30663 -10.30538 -10.29938
 Alpha  occ. eigenvalues --  -10.26800  -1.22348  -1.20395  -1.17958  -1.14373
 Alpha  occ. eigenvalues --   -1.10455  -1.06365  -0.96546  -0.96048  -0.91526
 Alpha  occ. eigenvalues --   -0.85646  -0.83115  -0.78973  -0.78892  -0.77802
 Alpha  occ. eigenvalues --   -0.74331  -0.71240  -0.70380  -0.69139  -0.68124
 Alpha  occ. eigenvalues --   -0.67564  -0.64834  -0.63789  -0.60501  -0.60192
 Alpha  occ. eigenvalues --   -0.58697  -0.57552  -0.56709  -0.55502  -0.54906
 Alpha  occ. eigenvalues --   -0.54316  -0.53406  -0.51996  -0.51085  -0.50171
 Alpha  occ. eigenvalues --   -0.49674  -0.49251  -0.49022  -0.43474  -0.40110
 Alpha  occ. eigenvalues --   -0.39575  -0.39466  -0.37062  -0.35341  -0.31835
 Alpha virt. eigenvalues --   -0.18688  -0.13014  -0.12050  -0.11623  -0.10757
 Alpha virt. eigenvalues --   -0.09757  -0.08803  -0.06980  -0.06263  -0.05437
 Alpha virt. eigenvalues --   -0.04922  -0.04036  -0.02430  -0.02151  -0.01635

 Mulliken charges:
               1
     1  O   -0.380446
     2  C    0.419866
     3  N   -0.403175
     4  C   -0.160780
     5  C    0.435685
     6  O   -0.262236
     7  O   -0.317742
     8  C   -0.192434
     9  C    0.099123
    10  C   -0.083665
    11  N   -0.289506
    12  C    0.157067
    13  N   -0.370511
    14  C   -0.298495
    15  C   -0.130838
    16  N   -0.332161
    17  H    0.252551
    18  H    0.183158
    19  H    0.260172
    20  H    0.124625
    21  H    0.167541
    22  H    0.107648
    23  H    0.126735
    24  H    0.236904
    25  H    0.167018
    26  H    0.162489
    27  H    0.192209
    28  H    0.210201
    29  H    0.303583
    30  H    0.310568
    31  H    0.304846
 Sum of Mulliken charges =   1.00000

 Dipole moment (field-independent basis, Debye):
    X=             15.8385    Y=              4.6084    Z=              0.9294  Tot=             16.5214
 Quadrupole moment (field-independent basis, Debye-Ang):
   XX=              2.3692   YY=            -85.6619   ZZ=            -90.2039
   XY=              1.6438   XZ=            -33.9256   YZ=             -8.1154

  Exact polarizability: 130.963   0.595 124.658  -5.335  -3.432 124.190
 Approx polarizability: 163.415  -3.898 194.273  -9.914  18.481 210.073

                      1                      2                      3
                      A                      A                      A
 Frequencies --     14.1893                38.0777                44.3508
 Red. masses --      5.2619                 3.7458                 2.0787
 Frc consts  --      0.0006                 0.0032                 0.0024
 IR Inten    --      8.1626                 7.0774                11.8256

                      4                      5                      6
                      A                      A                      A
 Frequencies --     53.9268                61.9461                84.2527
 Red. masses --      4.1579                 5.4791                 4.1531
 Frc consts  --      0.0071                 0.0124                 0.0174
 IR Inten    --      9.6986                 0.6340                10.4994

                      7                      8                      9
                      A                      A                      A
 Frequencies --     95.7442               103.3001               152.5706
 Red. masses --      9.5410                 4.1079                 5.3672
 Frc consts  --      0.0515                 0.0258                 0.0736
 IR Inten    --     13.8719                11.1428                 2.1809

                     10                     11                     12
                      A                      A                      A
 Frequencies --    200.5529               220.3673               241.6373
 Red. masses --      5.0123                 1.9671                 1.6602
 Frc consts  --      0.1188                 0.0563                 0.0571
 IR Inten    --     15.8117                 9.2523                 7.2466

                     13                     14                     15
                      A                      A                      A
 Frequencies --    268.0908               270.5297               330.2034
 Red. masses --      5.2722                 3.2692                 3.5615
 Frc consts  --      0.2233                 0.1410                 0.2288
 IR Inten    --     10.6458                 3.0424                 3.9861

                     16                     17                     18
                      A                      A                      A
 Frequencies --    339.4524               377.6069               447.3096
 Red. masses --      4.6862                 3.3308                 1.5751
 Frc consts  --      0.3181                 0.2798                 0.1857
 IR Inten    --      4.3009                24.8920                92.6859

                     19                     20                     21
                      A                      A                      A
 Frequencies --    506.2002               530.6878               560.5874
 Red. masses --      2.0870                 1.5008                 3.7562
 Frc consts  --      0.3151                 0.2490                 0.6955
 IR Inten    --     34.4543                69.2749                 1.8346

                     22                     23                     24
                      A                      A                      A
 Frequencies --    575.6578               617.8324               651.2127
 Red. masses --      2.5414                 5.8859                 2.3561
 Frc consts  --      0.4962                 1.3237                 0.5887
 IR Inten    --     49.6913                 6.2862                25.5058

                     25                     26                     27
                      A                      A                      A
 Frequencies --    658.9151               678.7878               681.3771
 Red. masses --      1.4751                 3.0311                 3.3418
 Frc consts  --      0.3773                 0.8228                 0.9141
 IR Inten    --     40.2422                10.8434                 4.6178

                     28                     29                     30
                      A                      A                      A
 Frequencies --    720.8314               779.6811               804.9820
 Red. masses --      3.7015                 2.7563                 1.6823
 Frc consts  --      1.1332                 0.9872                 0.6423
 IR Inten    --      2.1889                 9.7194                 5.3354

                     31                     32                     33
                      A                      A                      A
 Frequencies --    831.2413               850.3586               872.9625
 Red. masses --      1.3975                 2.4080                 1.6311
 Frc consts  --      0.5689                 1.0259                 0.7323
 IR Inten    --     17.6184                14.2770                21.5513

                     34                     35                     36
                      A                      A                      A
 Frequencies --    882.5380               918.9072               924.5659
 Red. masses --      2.6780                 1.3951                 3.8102
 Frc consts  --      1.2289                 0.6941                 1.9190
 IR Inten    --     28.5378                 3.4933                 5.9957

                     37                     38                     39
                      A                      A                      A
 Frequencies --    939.1460               954.4139               988.4572
 Red. masses --      3.3587                 4.3401                 2.0167
 Frc consts  --      1.7454                 2.3293                 1.1609
 IR Inten    --     23.4263                13.6435                23.3585

                     40                     41                     42
                      A                      A                      A
 Frequencies --   1021.6679              1040.4297              1095.4916
 Red. masses --      3.7912                 2.3432                 1.6366
 Frc consts  --      2.3316                 1.4945                 1.1572
 IR Inten    --      7.8388                12.0360                 5.8399

                     43                     44                     45
                      A                      A                      A
 Frequencies --   1111.1354              1116.8558              1150.9802
 Red. masses --      1.6570                 2.1900                 2.2900
 Frc consts  --      1.2054                 1.6095                 1.7874
 IR Inten    --     17.3172                32.7969                 7.4137

                     46                     47                     48
                      A                      A                      A
 Frequencies --   1154.5318              1190.9550              1210.9012
 Red. masses --      2.4868                 1.8289                 1.9073
 Frc consts  --      1.9530                 1.5284                 1.6478
 IR Inten    --     16.4761                12.4694                11.0637

                     49                     50                     51
                      A                      A                      A
 Frequencies --   1235.2718              1255.3201              1273.6626
 Red. masses --      1.3477                 1.3527                 1.8098
 Frc consts  --      1.2116                 1.2559                 1.7298
 IR Inten    --      6.3972                35.0363                35.6801

                     52                     53                     54
                      A                      A                      A
 Frequencies --   1286.6931              1290.1844              1308.4645
 Red. masses --      1.4319                 1.3069                 1.6405
 Frc consts  --      1.3967                 1.2817                 1.6548
 IR Inten    --     31.9120                 4.8603               246.4004

                     55                     56                     57
                      A                      A                      A
 Frequencies --   1320.9778              1347.0902              1362.7926
 Red. masses --      1.3342                 1.3316                 2.3868
 Frc consts  --      1.3717                 1.4237                 2.6117
 IR Inten    --     25.7317                59.3724                46.4992

                     58                     59                     60
                      A                      A                      A
 Frequencies --   1393.7691              1405.3975              1420.7713
 Red. masses --      1.9134                 1.3284                 1.9704
 Frc consts  --      2.1900                 1.5458                 2.3435
 IR Inten    --    166.0520                15.0500                19.7569

                     61                     62                     63
                      A                      A                      A
 Frequencies --   1430.0367              1480.7866              1487.2140
 Red. masses --      2.5997                 1.1195                 1.3765
 Frc consts  --      3.1323                 1.4463                 1.7938
 IR Inten    --     24.2719                 0.6088                29.5720

                     64                     65                     66
                      A                      A                      A
 Frequencies --   1504.7584              1507.8213              1518.1811
 Red. masses --      2.3673                 1.0732                 1.1780
 Frc consts  --      3.1581                 1.4375                 1.5998
 IR Inten    --      3.8726                16.1194               182.1935

                     67                     68                     69
                      A                      A                      A
 Frequencies --   1546.6511              1605.0258              1664.7026
 Red. masses --      2.2690                 4.0677                 1.0423
 Frc consts  --      3.1980                 6.1740                 1.7018
 IR Inten    --    302.2962                11.1551                47.3563

                     70                     71                     72
                      A                      A                      A
 Frequencies --   1669.1865              1757.6544              1839.8335
 Red. masses --      1.0438                 9.8597                 9.7133
 Frc consts  --      1.7134                17.9466                19.3720
 IR Inten    --     39.1930               283.0452               163.1577

                     73                     74                     75
                      A                      A                      A
 Frequencies --   2994.2079              3023.2090              3025.2245
 Red. masses --      1.0722                 1.0646                 1.0831
 Frc consts  --      5.6638                 5.7330                 5.8404
 IR Inten    --     38.9722                 1.2963                21.5765

                     76                     77                     78
                      A                      A                      A
 Frequencies --   3067.5940              3082.3191              3097.3414
 Red. masses --      1.0883                 1.0996                 1.0595
 Frc consts  --      6.0341                 6.1549                 5.9885
 IR Inten    --      2.6078                 4.4144                 4.2481

                     79                     80                     81
                      A                      A                      A
 Frequencies --   3156.4001              3242.8869              3247.5207
 Red. masses --      1.1116                 1.0958                 1.0988
 Frc consts  --      6.5250                 6.7896                 6.8276
 IR Inten    --      2.5219                 0.9578                 2.5953

                     82                     83                     84
                      A                      A                      A
 Frequencies --   3397.1414              3474.3158              3477.2964
 Red. masses --      1.0301                 1.0932                 1.0934
 Frc consts  --      7.0039                 7.7744                 7.7895
 IR Inten    --     48.8999                87.5698                88.7900

                     85                     86                     87
                      A                      A                      A
 Frequencies --   3534.1209              3637.5596              3798.3659
 Red. masses --      1.0781                 1.0814                 1.0662
 Frc consts  --      7.9335                 8.4304                 9.0636
 IR Inten    --    129.8481                57.7881                55.0322

 - Thermochemistry -
 -------------------
 Temperature   298.150 Kelvin.  Pressure   1.00000 Atm.
 Atom     1 has atomic number  8 and mass  15.99491

 Molecular mass:   227.11442 amu.
 Principal axes and moments of inertia in atomic units:
                           1         2         3
     Eigenvalues --  2979.854615360.194716947.99685
           X            0.99119  -0.10276  -0.08361
           Y            0.13062   0.86338   0.48736
           Z            0.02211  -0.49398   0.86919
 This molecule is an asymmetric top.
 Rotational symmetry number  1.
 Warning -- assumption of classical behavior for rotation
           may cause significant error
 Rotational temperatures (Kelvin)      0.02907     0.01616     0.01247
 Rotational constants (GHZ):           0.60565     0.33669     0.25975
 Zero-point vibrational energy     679085.0 (Joules/Mol)
                                  162.30522 (Kcal/Mol)
 Warning -- explicit consideration of  23 degrees of freedom as
           vibrations may cause significant error
 Vibrational temperatures:     20.42    54.79    63.81    77.59    89.13
          (Kelvin)            121.22   137.75   148.63   219.51   288.55
                              317.06   347.66   385.72   389.23   475.09
                              488.40   543.29   643.58   728.31   763.54
                              806.56   828.24   888.92   936.95   948.03
                              976.62   980.35  1037.11  1121.79  1158.19
                             1195.97  1223.47  1256.00  1269.77  1322.10
                             1330.24  1351.22  1373.19  1422.17  1469.95
                             1496.94  1576.17  1598.67  1606.90  1656.00
                             1661.11  1713.52  1742.21  1777.28  1806.12
                             1832.51  1851.26  1856.29  1882.59  1900.59
                             1938.16  1960.75  2005.32  2022.05  2044.17
                             2057.50  2130.52  2139.77  2165.01  2169.42
                             2184.32  2225.28  2309.27  2395.13  2401.58
                             2528.87  2647.11  4307.99  4349.72  4352.62
                             4413.58  4434.76  4456.38  4541.35  4665.79
                             4672.45  4887.72  4998.76  5003.05  5084.81
                             5233.63  5464.99

 Zero-point correction=                           0.258650 (Hartree/Particle)
 Thermal correction to Energy=                    0.275040
 Thermal correction to Enthalpy=                  0.275985
 Thermal correction to Gibbs Free Energy=         0.211490
 Sum of electronic and zero-point Energies=           -796.407324
 Sum of electronic and thermal Energies=              -796.390933
 Sum of electronic and thermal Enthalpies=            -796.389989
 Sum of electronic and thermal Free Energies=         -796.454483

                     E (Thermal)             CV                S
                      KCal/Mol        Cal/Mol-Kelvin    Cal/Mol-Kelvin
 Total                  172.590             59.122            135.739
 Electronic               0.000              0.000              0.000
 Translational            0.889              2.981             42.163
 Rotational               0.889              2.981             33.073
 Vibrational            170.813             53.161             60.503
 Vibration     1          0.593              1.986              7.316
 Vibration     2          0.594              1.982              5.357
 Vibration     3          0.595              1.980              5.055
 Vibration     4          0.596              1.976              4.668
 Vibration     5          0.597              1.972              4.394
 Vibration     6          0.601              1.960              3.789
 Vibration     7          0.603              1.952              3.539
 Vibration     8          0.605              1.947              3.391
 Vibration     9          0.619              1.900              2.640
 Vibration    10          0.638              1.839              2.128
 Vibration    11          0.647              1.810              1.956
 Vibration    12          0.658              1.777              1.791
 Vibration    13          0.673              1.732              1.608
 Vibration    14          0.674              1.727              1.593
 Vibration    15          0.713              1.615              1.259
 Vibration    16          0.719              1.597              1.215
 Vibration    17          0.748              1.518              1.049
 Vibration    18          0.806              1.367              0.804
 Vibration    19          0.861              1.236              0.643
 Vibration    20          0.886              1.182              0.586
 Vibration    21          0.916              1.117              0.523
 Vibration    22          0.932              1.084              0.493
 Vibration    23          0.978              0.994              0.420

 Optimization completed.
    -- Stationary point found.
 Normal termination of Gaussian 09 at Wed Jul 28 23:42:41 2021.
