 Gaussian 09, Revision D.01,
 Gaussian 09:  ES64L-G09RevD.01 24-Apr-2013

 ----------------------------------------------------------------------
 # B3LYP/6-311G(d,p) opt=calcfc freq=noraman nosymm integral(ultrafineg
 rid)
 ----------------------------------------------------------------------

 ------------------------------------------------------------
 Candidate Structure: Conf:301 OPT and FREQ calc in gas phase
 ------------------------------------------------------------
 Symbolic Z-matrix:
 Charge =  1 Multiplicity = 1

 SCF Done:  E(RB3LYP) =  -796.701813553     A.U. after   14 cycles
 SCF Done:  E(RB3LYP) =  -794.371709523     A.U. after   18 cycles
 SCF Done:  E(RB3LYP) =  -796.667078211     A.U. after   14 cycles
 SCF Done:  E(RB3LYP) =  -796.706619000     A.U. after   12 cycles
 SCF Done:  E(RB3LYP) =  -796.710413868     A.U. after   12 cycles
 SCF Done:  E(RB3LYP) =  -796.701113974     A.U. after   13 cycles
 SCF Done:  E(RB3LYP) =  -796.710457755     A.U. after    9 cycles
 SCF Done:  E(RB3LYP) =  -796.712795997     A.U. after   12 cycles
 SCF Done:  E(RB3LYP) =  -796.713504055     A.U. after   11 cycles
 SCF Done:  E(RB3LYP) =  -796.713712657     A.U. after   11 cycles
 SCF Done:  E(RB3LYP) =  -796.713776490     A.U. after   11 cycles
 SCF Done:  E(RB3LYP) =  -796.713847507     A.U. after   11 cycles
 SCF Done:  E(RB3LYP) =  -796.713869058     A.U. after   10 cycles
 SCF Done:  E(RB3LYP) =  -796.713879308     A.U. after    9 cycles
 SCF Done:  E(RB3LYP) =  -796.713881807     A.U. after    8 cycles
 SCF Done:  E(RB3LYP) =  -796.713882344     A.U. after    7 cycles
 Optimization completed.
    -- Stationary point found.
 Normal termination of Gaussian 09 at Wed Jul 28 23:28:13 2021.

 ----------------------------------------------------------------------
 #N Geom=AllCheck Guess=TCheck SCRF=Check GenChk RB3LYP/6-311G(d,p) Fre
 q
 ----------------------------------------------------------------------

 Structure from the checkpoint file:  "conf-301.chk"
 ------------------------------------------------------------
 Candidate Structure: Conf:301 OPT and FREQ calc in gas phase
 ------------------------------------------------------------
 Charge =  1 Multiplicity = 1

                          Input orientation:
 ---------------------------------------------------------------------
 Center     Atomic      Atomic             Coordinates (Angstroms)
 Number     Number       Type             X           Y           Z
 ---------------------------------------------------------------------
      1          8           0       -0.023660   -0.216367   -1.688543
      2          6           0        0.418479    0.719338   -1.014253
      3          7           0       -0.357340    1.487794   -0.227797
      4          6           0       -1.724640    1.138791    0.115249
      5          6           0       -2.478159    2.433017    0.397670
      6          8           0       -3.799447    2.226667    0.433258
      7          8           0       -1.935747    3.486466    0.606914
      8          6           0       -1.785444    0.215770    1.391543
      9          6           0       -0.878065   -0.960637    1.270869
     10          6           0        0.476070   -1.061779    1.479488
     11          7           0        0.965346   -2.246404    0.972433
     12          6           0       -0.090202   -2.883826    0.497453
     13          7           0       -1.220310   -2.147806    0.655279
     14          6           0        1.919487    1.025155   -0.967491
     15          6           0        2.770682    0.000794   -1.724113
     16          7           0        2.299829   -1.412792   -1.474704
     17          1           0        0.011363    2.320912    0.214726
     18          1           0       -2.177865    0.622762   -0.730986
     19          1           0       -4.234898    3.065129    0.656759
     20          1           0       -1.484805    0.808247    2.259420
     21          1           0       -2.825177   -0.079805    1.549246
     22          1           0        1.120760   -0.350370    1.972357
     23          1           0       -0.091225   -3.868455    0.055664
     24          1           0       -2.148835   -2.424068    0.371185
     25          1           0        2.232011    1.081298    0.078207
     26          1           0        2.112888    2.010448   -1.402607
     27          1           0        2.698004    0.149615   -2.801289
     28          1           0        3.816930    0.073933   -1.430816
     29          1           0        2.866611   -2.094422   -1.979535
     30          1           0        1.312973   -1.419231   -1.807454
     31          1           0        2.234579   -1.700587   -0.472457
 ---------------------------------------------------------------------

 SCF Done:  E(RB3LYP) =  -796.713882344     A.U. after    1 cycles

 Alpha  occ. eigenvalues --  -19.29064 -19.24129 -19.23628 -14.56404 -14.50096
 Alpha  occ. eigenvalues --  -14.48150 -14.43301 -10.43113 -10.42909 -10.38997
 Alpha  occ. eigenvalues --  -10.36368 -10.35935 -10.34482 -10.33909 -10.32403
 Alpha  occ. eigenvalues --  -10.31419  -1.23844  -1.19694  -1.15363  -1.15200
 Alpha  occ. eigenvalues --   -1.13842  -1.07718  -1.01025  -0.95028  -0.92849
 Alpha  occ. eigenvalues --   -0.88281  -0.82784  -0.80640  -0.75802  -0.75123
 Alpha  occ. eigenvalues --   -0.73639  -0.72836  -0.72556  -0.71647  -0.68009
 Alpha  occ. eigenvalues --   -0.66276  -0.64235  -0.63142  -0.61825  -0.61142
 Alpha  occ. eigenvalues --   -0.60225  -0.59205  -0.58561  -0.57218  -0.56179
 Alpha  occ. eigenvalues --   -0.55574  -0.54889  -0.54418  -0.54106  -0.53426
 Alpha  occ. eigenvalues --   -0.52797  -0.50907  -0.50224  -0.44989  -0.43164
 Alpha  occ. eigenvalues --   -0.42069  -0.41586  -0.40936  -0.40638  -0.36316
 Alpha virt. eigenvalues --   -0.13950  -0.13123  -0.12500  -0.11000  -0.09409
 Alpha virt. eigenvalues --   -0.08717  -0.07581  -0.06918  -0.06459  -0.05867
 Alpha virt. eigenvalues --   -0.04410  -0.03368  -0.03111  -0.02249  -0.01654

 Mulliken charges:
               1
     1  O   -0.431127
     2  C    0.422321
     3  N   -0.385009
     4  C   -0.080674
     5  C    0.380196
     6  O   -0.310226
     7  O   -0.315560
     8  C   -0.171436
     9  C    0.122096
    10  C   -0.085262
    11  N   -0.368522
    12  C    0.165514
    13  N   -0.333318
    14  C   -0.294927
    15  C   -0.119897
    16  N   -0.339253
    17  H    0.255573
    18  H    0.184054
    19  H    0.283302
    20  H    0.155047
    21  H    0.165830
    22  H    0.121650
    23  H    0.141352
    24  H    0.253017
    25  H    0.164304
    26  H    0.190068
    27  H    0.181739
    28  H    0.182308
    29  H    0.283285
    30  H    0.300852
    31  H    0.282705
 Sum of Mulliken charges =   1.00000

 Dipole moment (field-independent basis, Debye):
    X=              2.8723    Y=             -2.2613    Z=             -3.3245  Tot=              4.9412
 Quadrupole moment (field-independent basis, Debye-Ang):
   XX=            -48.8176   YY=            -73.4972   ZZ=            -83.8446
   XY=             -6.0200   XZ=            -20.2110   YZ=              8.4593

  Exact polarizability: 142.726 -13.214 138.425 -14.610  10.406  98.798
 Approx polarizability: 210.755  -2.176 209.201  -2.548  29.441 154.999

                      1                      2                      3
                      A                      A                      A
 Frequencies --     57.3644                70.3297                97.6448
 Red. masses --     10.8741                 4.8106                 4.8992
 Frc consts  --      0.0211                 0.0140                 0.0275
 IR Inten    --      1.5230                 0.4046                 4.8340

                      4                      5                      6
                      A                      A                      A
 Frequencies --    108.6696               111.5611               119.6114
 Red. masses --      3.9605                 4.7971                 3.7165
 Frc consts  --      0.0276                 0.0352                 0.0313
 IR Inten    --      6.0557                 3.4798                14.9627

                      7                      8                      9
                      A                      A                      A
 Frequencies --    144.1246               155.8898               166.3031
 Red. masses --      4.0257                 4.1635                 5.0641
 Frc consts  --      0.0493                 0.0596                 0.0825
 IR Inten    --     12.1796                 6.8391                 6.5636

                     10                     11                     12
                      A                      A                      A
 Frequencies --    200.5186               259.8292               306.9075
 Red. masses --      2.4389                 4.5118                 5.6643
 Frc consts  --      0.0578                 0.1795                 0.3144
 IR Inten    --     28.2675                45.4782                 0.8321

                     13                     14                     15
                      A                      A                      A
 Frequencies --    313.4520               344.1741               354.7865
 Red. masses --      3.8799                 2.8526                 2.5954
 Frc consts  --      0.2246                 0.1991                 0.1925
 IR Inten    --      2.0162                 6.8886                36.3328

                     16                     17                     18
                      A                      A                      A
 Frequencies --    392.3614               420.7777               444.4676
 Red. masses --      1.9445                 2.5121                 2.1416
 Frc consts  --      0.1764                 0.2621                 0.2493
 IR Inten    --     17.0941                 5.5923                 2.5575

                     19                     20                     21
                      A                      A                      A
 Frequencies --    538.1485               550.0135               596.6484
 Red. masses --      1.9458                 3.6760                 1.6612
 Frc consts  --      0.3320                 0.6552                 0.3484
 IR Inten    --     56.1643                18.0935               146.5371

                     22                     23                     24
                      A                      A                      A
 Frequencies --    611.7713               621.4896               637.8264
 Red. masses --      1.3629                 1.4947                 3.9278
 Frc consts  --      0.3005                 0.3402                 0.9415
 IR Inten    --     13.2305                10.0484                80.4782

                     25                     26                     27
                      A                      A                      A
 Frequencies --    678.3422               688.5649               693.8059
 Red. masses --      2.4344                 2.8719                 3.0589
 Frc consts  --      0.6600                 0.8022                 0.8675
 IR Inten    --     84.7098                10.5213                 1.9258

                     28                     29                     30
                      A                      A                      A
 Frequencies --    721.0148               769.5465               832.8090
 Red. masses --      3.3955                 4.1581                 1.4145
 Frc consts  --      1.0400                 1.4508                 0.5780
 IR Inten    --      2.2649                16.7874                11.1118

                     31                     32                     33
                      A                      A                      A
 Frequencies --    841.9401               847.5526               861.9067
 Red. masses --      1.6979                 2.1494                 2.0563
 Frc consts  --      0.7091                 0.9097                 0.9000
 IR Inten    --     28.6456                11.2708                26.1425

                     34                     35                     36
                      A                      A                      A
 Frequencies --    877.0035               919.1435               941.8902
 Red. masses --      2.1639                 2.6690                 5.6227
 Frc consts  --      0.9806                 1.3285                 2.9390
 IR Inten    --      1.8126                15.3457                12.6279

                     37                     38                     39
                      A                      A                      A
 Frequencies --    964.3139               974.9107              1001.3716
 Red. masses --      1.5903                 2.9478                 3.1820
 Frc consts  --      0.8713                 1.6508                 1.8799
 IR Inten    --      9.2459                 6.5042                10.1297

                     40                     41                     42
                      A                      A                      A
 Frequencies --   1028.3786              1040.3830              1094.6713
 Red. masses --      3.6873                 3.0046                 2.3079
 Frc consts  --      2.2975                 1.9161                 1.6294
 IR Inten    --      3.0002                16.9978                 8.5151

                     43                     44                     45
                      A                      A                      A
 Frequencies --   1123.7597              1130.4359              1132.5893
 Red. masses --      1.4186                 1.5690                 1.8247
 Frc consts  --      1.0555                 1.1813                 1.3790
 IR Inten    --     73.9363                16.6720                60.4186

                     46                     47                     48
                      A                      A                      A
 Frequencies --   1144.9378              1171.2989              1206.3313
 Red. masses --      1.7226                 2.0120                 1.8026
 Frc consts  --      1.3305                 1.6263                 1.5455
 IR Inten    --      3.7518               211.0260                 9.1161

                     49                     50                     51
                      A                      A                      A
 Frequencies --   1249.3121              1257.8782              1278.2072
 Red. masses --      1.6200                 1.6675                 1.6704
 Frc consts  --      1.4898                 1.5545                 1.6080
 IR Inten    --      5.3120                36.5729                 2.2569

                     52                     53                     54
                      A                      A                      A
 Frequencies --   1283.7912              1284.9280              1332.9538
 Red. masses --      1.4263                 1.4304                 1.3805
 Frc consts  --      1.3850                 1.3915                 1.4452
 IR Inten    --      2.4735                12.8291                13.5171

                     55                     56                     57
                      A                      A                      A
 Frequencies --   1342.7332              1352.4414              1384.4134
 Red. masses --      1.3655                 1.2658                 1.6519
 Frc consts  --      1.4505                 1.3641                 1.8654
 IR Inten    --     32.8672                 7.9720                51.1009

                     58                     59                     60
                      A                      A                      A
 Frequencies --   1391.0589              1415.0816              1426.8383
 Red. masses --      2.9144                 2.3529                 1.3248
 Frc consts  --      3.3227                 2.7760                 1.5891
 IR Inten    --      6.2613               139.3165                 7.9969

                     61                     62                     63
                      A                      A                      A
 Frequencies --   1436.4819              1467.9409              1486.3400
 Red. masses --      2.7197                 1.0946                 1.2229
 Frc consts  --      3.3065                 1.3897                 1.5918
 IR Inten    --     26.0347                25.9510                62.6496

                     64                     65                     66
                      A                      A                      A
 Frequencies --   1492.8402              1502.8339              1509.2892
 Red. masses --      1.3000                 2.1322                 1.1188
 Frc consts  --      1.7069                 2.8373                 1.5015
 IR Inten    --    108.6687                57.5542                28.2998

                     67                     68                     69
                      A                      A                      A
 Frequencies --   1560.1250              1608.6748              1638.8674
 Red. masses --      2.2126                 4.1062                 1.1335
 Frc consts  --      3.1731                 6.2607                 1.7937
 IR Inten    --    212.2446                 7.6061               126.7727

                     70                     71                     72
                      A                      A                      A
 Frequencies --   1691.7021              1713.2255              1830.0816
 Red. masses --      1.1316                 3.5236                10.2594
 Frc consts  --      1.9081                 6.0936                20.2448
 IR Inten    --    186.0867                88.5498               268.0551

                     73                     74                     75
                      A                      A                      A
 Frequencies --   3053.8325              3056.0436              3085.8034
 Red. masses --      1.0614                 1.0607                 1.0808
 Frc consts  --      5.8321                 5.8367                 6.0636
 IR Inten    --      1.4936                 7.6088                50.4479

                     76                     77                     78
                      A                      A                      A
 Frequencies --   3094.9687              3098.7869              3103.2974
 Red. masses --      1.0835                 1.0994                 1.0784
 Frc consts  --      6.1147                 6.2201                 6.1192
 IR Inten    --     52.2052                 1.4551               356.9400

                     79                     80                     81
                      A                      A                      A
 Frequencies --   3114.5113              3144.0978              3160.2682
 Red. masses --      1.0902                 1.1039                 1.0699
 Frc consts  --      6.2306                 6.4293                 6.2956
 IR Inten    --      6.2524                42.9462               242.7347

                     82                     83                     84
                      A                      A                      A
 Frequencies --   3238.2141              3249.5761              3502.5785
 Red. masses --      1.0967                 1.0991                 1.0787
 Frc consts  --      6.7754                 6.8382                 7.7972
 IR Inten    --      2.0247                 2.3852               104.9184

                     85                     86                     87
                      A                      A                      A
 Frequencies --   3573.5630              3632.6860              3738.1838
 Red. masses --      1.0780                 1.0821                 1.0646
 Frc consts  --      8.1107                 8.4131                 8.7649
 IR Inten    --     93.0643                88.9222               133.2119

 - Thermochemistry -
 -------------------
 Temperature   298.150 Kelvin.  Pressure   1.00000 Atm.
 Atom     1 has atomic number  8 and mass  15.99491

 Molecular mass:   227.11442 amu.
 Principal axes and moments of inertia in atomic units:
                           1         2         3
     Eigenvalues --  2243.758314480.230375936.69693
           X            0.73294   0.47188   0.49003
           Y           -0.65046   0.69707   0.30164
           Z           -0.19924  -0.53983   0.81786
 This molecule is an asymmetric top.
 Rotational symmetry number  1.
 Warning -- assumption of classical behavior for rotation
           may cause significant error
 Rotational temperatures (Kelvin)      0.03860     0.01933     0.01459
 Rotational constants (GHZ):           0.80434     0.40282     0.30400
 Zero-point vibrational energy     682445.8 (Joules/Mol)
                                  163.10845 (Kcal/Mol)
 Warning -- explicit consideration of  22 degrees of freedom as
           vibrations may cause significant error
 Vibrational temperatures:     82.53   101.19   140.49   156.35   160.51
          (Kelvin)            172.09   207.36   224.29   239.27   288.50
                              373.84   441.57   450.99   495.19   510.46
                              564.52   605.40   639.49   774.27   791.35
                              858.44   880.20   894.18   917.69   975.98
                              990.69   998.23  1037.38  1107.20  1198.22
                             1211.36  1219.44  1240.09  1261.81  1322.44
                             1355.17  1387.43  1402.68  1440.75  1479.61
                             1496.88  1574.99  1616.84  1626.44  1629.54
                             1647.31  1685.24  1735.64  1797.48  1809.80
                             1839.05  1847.09  1848.72  1917.82  1931.89
                             1945.86  1991.86  2001.42  2035.98  2052.90
                             2066.77  2112.04  2138.51  2147.86  2162.24
                             2171.53  2244.67  2314.52  2357.96  2433.98
                             2464.95  2633.08  4393.78  4396.96  4439.78
                             4452.96  4458.46  4464.95  4481.08  4523.65
                             4546.92  4659.06  4675.41  5039.42  5141.55
                             5226.62  5378.41

 Zero-point correction=                           0.259930 (Hartree/Particle)
 Thermal correction to Energy=                    0.275049
 Thermal correction to Enthalpy=                  0.275993
 Thermal correction to Gibbs Free Energy=         0.217818
 Sum of electronic and zero-point Energies=           -796.453952
 Sum of electronic and thermal Energies=              -796.438833
 Sum of electronic and thermal Enthalpies=            -796.437889
 Sum of electronic and thermal Free Energies=         -796.496064

                     E (Thermal)             CV                S
                      KCal/Mol        Cal/Mol-Kelvin    Cal/Mol-Kelvin
 Total                  172.596             57.756            122.439
 Electronic               0.000              0.000              0.000
 Translational            0.889              2.981             42.163
 Rotational               0.889              2.981             32.456
 Vibrational            170.818             51.794             47.820
 Vibration     1          0.596              1.975              4.546
 Vibration     2          0.598              1.968              4.144
 Vibration     3          0.603              1.951              3.501
 Vibration     4          0.606              1.942              3.293
 Vibration     5          0.607              1.940              3.242
 Vibration     6          0.609              1.933              3.107
 Vibration     7          0.616              1.909              2.748
 Vibration     8          0.620              1.896              2.599
 Vibration     9          0.624              1.884              2.477
 Vibration    10          0.638              1.839              2.128
 Vibration    11          0.668              1.746              1.663
 Vibration    12          0.697              1.661              1.379
 Vibration    13          0.701              1.648              1.344
 Vibration    14          0.723              1.587              1.193
 Vibration    15          0.731              1.565              1.145
 Vibration    16          0.760              1.487              0.991
 Vibration    17          0.783              1.425              0.889
 Vibration    18          0.804              1.373              0.813
 Vibration    19          0.893              1.166              0.569
 Vibration    20          0.905              1.140              0.544
 Vibration    21          0.954              1.039              0.455
 Vibration    22          0.971              1.007              0.430

 Optimization completed.
    -- Stationary point found.
 Normal termination of Gaussian 09 at Thu Jul 29 00:07:21 2021.
