 Gaussian 09, Revision D.01,
 Gaussian 09:  ES64L-G09RevD.01 24-Apr-2013

 ----------------------------------------------------------------------
 # B3LYP/6-311G(d,p) opt=calcfc freq=noraman nosymm integral(ultrafineg
 rid)
 ----------------------------------------------------------------------

 -----------------------------------------------------------
 Candidate Structure: Conf:55 OPT and FREQ calc in gas phase
 -----------------------------------------------------------
 Symbolic Z-matrix:
 Charge =  1 Multiplicity = 1

 SCF Done:  E(RB3LYP) =  -796.662495717     A.U. after   17 cycles
 SCF Done:  E(RB3LYP) =  -796.668795258     A.U. after   14 cycles
 SCF Done:  E(RB3LYP) =  -796.669764371     A.U. after   14 cycles
 SCF Done:  E(RB3LYP) =  -796.668663654     A.U. after   14 cycles
 SCF Done:  E(RB3LYP) =  -796.669878942     A.U. after   11 cycles
 SCF Done:  E(RB3LYP) =  -796.666710675     A.U. after   14 cycles
 SCF Done:  E(RB3LYP) =  -796.670307946     A.U. after   10 cycles
 SCF Done:  E(RB3LYP) =  -796.670464329     A.U. after   11 cycles
 SCF Done:  E(RB3LYP) =  -796.670662744     A.U. after   12 cycles
 SCF Done:  E(RB3LYP) =  -796.670775700     A.U. after   11 cycles
 SCF Done:  E(RB3LYP) =  -796.670916212     A.U. after   12 cycles
 SCF Done:  E(RB3LYP) =  -796.670976871     A.U. after   11 cycles
 SCF Done:  E(RB3LYP) =  -796.670991415     A.U. after    9 cycles
 SCF Done:  E(RB3LYP) =  -796.670995826     A.U. after    9 cycles
 SCF Done:  E(RB3LYP) =  -796.670996295     A.U. after    8 cycles
 SCF Done:  E(RB3LYP) =  -796.670996426     A.U. after    7 cycles
 SCF Done:  E(RB3LYP) =  -796.670996483     A.U. after    7 cycles
 SCF Done:  E(RB3LYP) =  -796.670996507     A.U. after    6 cycles
 Optimization completed.
    -- Stationary point found.
 Normal termination of Gaussian 09 at Wed Jul 28 23:14:23 2021.

 ----------------------------------------------------------------------
 #N Geom=AllCheck Guess=TCheck SCRF=Check GenChk RB3LYP/6-311G(d,p) Fre
 q
 ----------------------------------------------------------------------

 Structure from the checkpoint file:  "conf-55.chk"
 -----------------------------------------------------------
 Candidate Structure: Conf:55 OPT and FREQ calc in gas phase
 -----------------------------------------------------------
 Charge =  1 Multiplicity = 1

                          Input orientation:
 ---------------------------------------------------------------------
 Center     Atomic      Atomic             Coordinates (Angstroms)
 Number     Number       Type             X           Y           Z
 ---------------------------------------------------------------------
      1          8           0        1.448019    0.650392    1.104512
      2          6           0        1.541305    0.091549    0.022558
      3          7           0        0.529279   -0.510599   -0.624227
      4          6           0       -0.802122   -0.655141   -0.049854
      5          6           0       -1.454349   -1.834002   -0.798150
      6          8           0       -2.638088   -2.245213   -0.349999
      7          8           0       -0.916784   -2.349943   -1.745155
      8          6           0       -1.627520    0.657938   -0.155167
      9          6           0       -2.957035    0.572436    0.532789
     10          6           0       -3.313476    0.223895    1.819384
     11          7           0       -4.676408    0.290030    1.987634
     12          6           0       -5.152872    0.675643    0.829473
     13          7           0       -4.157609    0.856424   -0.089989
     14          6           0        2.899363    0.070877   -0.718261
     15          6           0        3.997613    0.158537    0.330872
     16          7           0        5.338524    0.541222   -0.290151
     17          1           0        0.675262   -1.067668   -1.460859
     18          1           0       -0.701087   -0.911917    1.009083
     19          1           0       -2.951203   -1.686093    0.384698
     20          1           0       -1.757799    0.907026   -1.212572
     21          1           0       -1.020109    1.449158    0.291502
     22          1           0       -2.662648   -0.040173    2.640167
     23          1           0       -6.193806    0.835453    0.593482
     24          1           0       -4.277798    1.141830   -1.050089
     25          1           0        3.001312   -0.818916   -1.344840
     26          1           0        2.920586    0.949516   -1.374485
     27          1           0        3.751973    0.922973    1.066874
     28          1           0        4.159889   -0.788029    0.845871
     29          1           0        5.644220   -0.144237   -0.987427
     30          1           0        5.281759    1.451160   -0.757986
     31          1           0        6.071448    0.605872    0.423082
 ---------------------------------------------------------------------

 SCF Done:  E(RB3LYP) =  -796.670996507     A.U. after    1 cycles

 Alpha  occ. eigenvalues --  -19.26345 -19.22312 -19.21258 -14.64097 -14.46803
 Alpha  occ. eigenvalues --  -14.46049 -14.37588 -10.41632 -10.41623 -10.41098
 Alpha  occ. eigenvalues --  -10.35748 -10.34789 -10.31011 -10.30580 -10.30240
 Alpha  occ. eigenvalues --  -10.27512  -1.21216  -1.20622  -1.18110  -1.13292
 Alpha  occ. eigenvalues --   -1.10984  -1.06254  -0.96779  -0.96480  -0.91404
 Alpha  occ. eigenvalues --   -0.85898  -0.83092  -0.79155  -0.78857  -0.77621
 Alpha  occ. eigenvalues --   -0.73196  -0.71399  -0.70801  -0.69419  -0.68236
 Alpha  occ. eigenvalues --   -0.67406  -0.65132  -0.63456  -0.60623  -0.60345
 Alpha  occ. eigenvalues --   -0.58447  -0.57563  -0.56501  -0.55466  -0.54444
 Alpha  occ. eigenvalues --   -0.53976  -0.53104  -0.52306  -0.51056  -0.50831
 Alpha  occ. eigenvalues --   -0.49956  -0.48745  -0.48021  -0.42565  -0.40268
 Alpha  occ. eigenvalues --   -0.39602  -0.38822  -0.37650  -0.35573  -0.32474
 Alpha virt. eigenvalues --   -0.18921  -0.13354  -0.12244  -0.11775  -0.10199
 Alpha virt. eigenvalues --   -0.09926  -0.07401  -0.07085  -0.05540  -0.05325
 Alpha virt. eigenvalues --   -0.04531  -0.04167  -0.03158  -0.02200  -0.01403

 Mulliken charges:
               1
     1  O   -0.374001
     2  C    0.393954
     3  N   -0.411314
     4  C   -0.161861
     5  C    0.417204
     6  O   -0.264814
     7  O   -0.331088
     8  C   -0.106086
     9  C   -0.025581
    10  C   -0.084951
    11  N   -0.267343
    12  C    0.166153
    13  N   -0.347410
    14  C   -0.281748
    15  C   -0.134803
    16  N   -0.332242
    17  H    0.250330
    18  H    0.182258
    19  H    0.274162
    20  H    0.128542
    21  H    0.171851
    22  H    0.118900
    23  H    0.134029
    24  H    0.240252
    25  H    0.159690
    26  H    0.160609
    27  H    0.213297
    28  H    0.193093
    29  H    0.303333
    30  H    0.303948
    31  H    0.311636
 Sum of Mulliken charges =   1.00000

 Dipole moment (field-independent basis, Debye):
    X=             19.9001    Y=              4.0177    Z=             -4.0093  Tot=             20.6938
 Quadrupole moment (field-independent basis, Debye-Ang):
   XX=             41.5556   YY=            -95.5877   ZZ=            -96.7286
   XY=              0.8191   XZ=              2.2050   YZ=            -11.1126

  Exact polarizability: 177.901   0.170  97.513 -11.821   5.446 117.059
 Approx polarizability: 214.774   0.357 150.565 -13.560   7.941 205.710

                      1                      2                      3
                      A                      A                      A
 Frequencies --     25.7134                33.9848                44.7043
 Red. masses --      4.3763                 4.3420                 3.3690
 Frc consts  --      0.0017                 0.0030                 0.0040
 IR Inten    --      7.6349                 6.6856                 1.6504

                      4                      5                      6
                      A                      A                      A
 Frequencies --     49.2434                66.8726                81.1539
 Red. masses --      2.2155                 6.3286                 5.1066
 Frc consts  --      0.0032                 0.0167                 0.0198
 IR Inten    --      9.9306                11.9663                 7.2751

                      7                      8                      9
                      A                      A                      A
 Frequencies --     91.2569               113.3655               120.3402
 Red. masses --      5.5925                 4.9776                 4.6448
 Frc consts  --      0.0274                 0.0377                 0.0396
 IR Inten    --      4.5677                 5.9707                 8.0767

                     10                     11                     12
                      A                      A                      A
 Frequencies --    192.2922               221.7962               244.2973
 Red. masses --      5.2049                 1.6281                 1.9160
 Frc consts  --      0.1134                 0.0472                 0.0674
 IR Inten    --      5.0997                17.2519                14.4710

                     13                     14                     15
                      A                      A                      A
 Frequencies --    268.7011               320.6871               327.2429
 Red. masses --      5.3666                 2.3303                 7.0555
 Frc consts  --      0.2283                 0.1412                 0.4452
 IR Inten    --      8.8988                 5.5852                 0.6419

                     16                     17                     18
                      A                      A                      A
 Frequencies --    347.2744               377.2228               398.5990
 Red. masses --      5.4110                 3.6316                 4.3949
 Frc consts  --      0.3845                 0.3045                 0.4114
 IR Inten    --     13.4548                12.7514                16.8137

                     19                     20                     21
                      A                      A                      A
 Frequencies --    545.2959               551.8453               581.5923
 Red. masses --      3.5623                 1.4484                 2.3072
 Frc consts  --      0.6241                 0.2599                 0.4598
 IR Inten    --     12.7725                83.8393                43.9201

                     22                     23                     24
                      A                      A                      A
 Frequencies --    612.6177               643.6859               665.9928
 Red. masses --      2.0695                 1.9540                 2.8872
 Frc consts  --      0.4576                 0.4770                 0.7545
 IR Inten    --     44.4620                 7.0576                19.8116

                     25                     26                     27
                      A                      A                      A
 Frequencies --    672.4779               680.7072               715.7243
 Red. masses --      1.4112                 2.5777                 3.8583
 Frc consts  --      0.3760                 0.7037                 1.1645
 IR Inten    --     38.3858                24.8317                 5.1054

                     28                     29                     30
                      A                      A                      A
 Frequencies --    739.9617               758.3889               796.3980
 Red. masses --      3.3132                 3.4707                 1.4156
 Frc consts  --      1.0688                 1.1761                 0.5290
 IR Inten    --      0.7989                 0.4935                12.7237

                     31                     32                     33
                      A                      A                      A
 Frequencies --    818.4122               842.7224               862.3911
 Red. masses --      2.8167                 1.3923                 1.4057
 Frc consts  --      1.1116                 0.5826                 0.6160
 IR Inten    --      1.7984                27.9468                24.3225

                     34                     35                     36
                      A                      A                      A
 Frequencies --    883.2664               918.8825               932.8700
 Red. masses --      2.6821                 1.3051                 3.6867
 Frc consts  --      1.2329                 0.6493                 1.8903
 IR Inten    --     33.6241                 4.5437                43.9812

                     37                     38                     39
                      A                      A                      A
 Frequencies --    935.2292               982.4178              1011.0747
 Red. masses --      5.4964                 2.1300                 3.0486
 Frc consts  --      2.8325                 1.2112                 1.8362
 IR Inten    --      9.4042                30.0297                 5.7033

                     40                     41                     42
                      A                      A                      A
 Frequencies --   1023.1382              1031.7184              1087.6712
 Red. masses --      3.3188                 4.0599                 1.7616
 Frc consts  --      2.0469                 2.5462                 1.2279
 IR Inten    --     13.8926                 3.6506                15.8917

                     43                     44                     45
                      A                      A                      A
 Frequencies --   1106.9656              1113.6441              1148.0201
 Red. masses --      1.6888                 2.2298                 2.4568
 Frc consts  --      1.2193                 1.6293                 1.9077
 IR Inten    --     17.7693                41.2074                10.2030

                     46                     47                     48
                      A                      A                      A
 Frequencies --   1149.7267              1171.1935              1224.5601
 Red. masses --      2.1803                 1.3825                 1.9656
 Frc consts  --      1.6981                 1.1173                 1.7366
 IR Inten    --      8.7849                 0.7890                15.0299

                     49                     50                     51
                      A                      A                      A
 Frequencies --   1234.4261              1253.4114              1277.5901
 Red. masses --      1.6364                 1.9692                 1.4367
 Frc consts  --      1.4691                 1.8227                 1.3816
 IR Inten    --      9.0313                15.0354                 0.3623

                     52                     53                     54
                      A                      A                      A
 Frequencies --   1287.4009              1308.4542              1325.9591
 Red. masses --      1.2942                 1.3581                 1.3697
 Frc consts  --      1.2638                 1.3700                 1.4188
 IR Inten    --      1.0005                13.8739                17.5876

                     55                     56                     57
                      A                      A                      A
 Frequencies --   1328.8279              1352.7185              1362.9036
 Red. masses --      1.3891                 1.3118                 1.4324
 Frc consts  --      1.4451                 1.4143                 1.5676
 IR Inten    --     53.1073                20.4693               116.7974

                     58                     59                     60
                      A                      A                      A
 Frequencies --   1397.1272              1406.5670              1411.8227
 Red. masses --      2.6246                 1.3406                 2.1123
 Frc consts  --      3.0185                 1.5627                 2.4807
 IR Inten    --    112.9924                29.1182               144.4620

                     61                     62                     63
                      A                      A                      A
 Frequencies --   1432.4624              1479.0499              1482.8385
 Red. masses --      3.1295                 1.1135                 1.8166
 Frc consts  --      3.7835                 1.4352                 2.3534
 IR Inten    --     22.4496                 1.9514                16.7413

                     64                     65                     66
                      A                      A                      A
 Frequencies --   1493.6846              1507.9025              1517.4782
 Red. masses --      1.6870                 1.0732                 1.1868
 Frc consts  --      2.2176                 1.4378                 1.6101
 IR Inten    --     16.7901                17.6599               220.2994

                     67                     68                     69
                      A                      A                      A
 Frequencies --   1535.9907              1593.5285              1665.1239
 Red. masses --      2.2986                 3.9541                 1.0424
 Frc consts  --      3.1952                 5.9158                 1.7028
 IR Inten    --    305.1275                10.6394                48.1278

                     70                     71                     72
                      A                      A                      A
 Frequencies --   1668.8027              1755.2891              1829.5573
 Red. masses --      1.0436                 9.9970                 9.2909
 Frc consts  --      1.7124                18.1475                18.3231
 IR Inten    --     39.2975               291.9588               293.4631

                     73                     74                     75
                      A                      A                      A
 Frequencies --   3024.9782              3040.1744              3054.9108
 Red. masses --      1.0636                 1.0623                 1.0813
 Frc consts  --      5.7344                 5.7846                 5.9454
 IR Inten    --      4.0858                 7.4891                12.2931

                     76                     77                     78
                      A                      A                      A
 Frequencies --   3083.3976              3084.7701              3095.8697
 Red. masses --      1.1001                 1.1044                 1.0596
 Frc consts  --      6.1623                 6.1920                 5.9834
 IR Inten    --      5.3232                 4.3950                 4.6746

                     79                     80                     81
                      A                      A                      A
 Frequencies --   3155.6372              3226.6109              3248.2601
 Red. masses --      1.1117                 1.0963                 1.0985
 Frc consts  --      6.5225                 6.7249                 6.8287
 IR Inten    --      3.1009                 4.2059                 1.0924

                     82                     83                     84
                      A                      A                      A
 Frequencies --   3397.1582              3475.1143              3476.5039
 Red. masses --      1.0300                 1.0932                 1.0934
 Frc consts  --      7.0036                 7.7780                 7.7860
 IR Inten    --     54.8157                89.8584                87.3280

                     85                     86                     87
                      A                      A                      A
 Frequencies --   3523.0857              3608.2693              3637.2526
 Red. masses --      1.0780                 1.0673                 1.0816
 Frc consts  --      7.8831                 8.1872                 8.4308
 IR Inten    --    132.5033               372.3536                66.0205

 - Thermochemistry -
 -------------------
 Temperature   298.150 Kelvin.  Pressure   1.00000 Atm.
 Atom     1 has atomic number  8 and mass  15.99491

 Molecular mass:   227.11442 amu.
 Principal axes and moments of inertia in atomic units:
                           1         2         3
     Eigenvalues --  1627.228408191.909009204.30805
           X            0.99379   0.05214   0.09831
           Y            0.01955   0.78789  -0.61550
           Z           -0.10955   0.61360   0.78198
 This molecule is an asymmetric top.
 Rotational symmetry number  1.
 Warning -- assumption of classical behavior for rotation
           may cause significant error
 Rotational temperatures (Kelvin)      0.05323     0.01057     0.00941
 Rotational constants (GHZ):           1.10909     0.22031     0.19608
 Zero-point vibrational energy     679324.9 (Joules/Mol)
                                  162.36254 (Kcal/Mol)
 Warning -- explicit consideration of  22 degrees of freedom as
           vibrations may cause significant error
 Vibrational temperatures:     37.00    48.90    64.32    70.85    96.21
          (Kelvin)            116.76   131.30   163.11   173.14   276.67
                              319.11   351.49   386.60   461.40   470.83
                              499.65   542.74   573.49   784.56   793.98
                              836.78   881.42   926.12   958.21   967.54
                              979.38  1029.77  1064.64  1091.15  1145.84
                             1177.51  1212.49  1240.79  1270.82  1322.07
                             1342.19  1345.58  1413.48  1454.71  1472.07
                             1484.41  1564.91  1592.67  1602.28  1651.74
                             1654.20  1685.08  1761.87  1776.06  1803.38
                             1838.16  1852.28  1882.57  1907.76  1911.88
                             1946.26  1960.91  2010.15  2023.73  2031.30
                             2060.99  2128.02  2133.47  2149.08  2169.53
                             2183.31  2209.95  2292.73  2395.74  2401.03
                             2525.47  2632.32  4352.26  4374.13  4395.33
                             4436.32  4438.29  4454.26  4540.25  4642.37
                             4673.52  4887.75  4999.91  5001.91  5068.93
                             5191.49  5233.19

 Zero-point correction=                           0.258741 (Hartree/Particle)
 Thermal correction to Energy=                    0.275039
 Thermal correction to Enthalpy=                  0.275983
 Thermal correction to Gibbs Free Energy=         0.211894
 Sum of electronic and zero-point Energies=           -796.412255
 Sum of electronic and thermal Energies=              -796.395958
 Sum of electronic and thermal Enthalpies=            -796.395013
 Sum of electronic and thermal Free Energies=         -796.459103

                     E (Thermal)             CV                S
                      KCal/Mol        Cal/Mol-Kelvin    Cal/Mol-Kelvin
 Total                  172.590             58.738            134.888
 Electronic               0.000              0.000              0.000
 Translational            0.889              2.981             42.163
 Rotational               0.889              2.981             33.173
 Vibrational            170.812             52.776             59.552
 Vibration     1          0.593              1.985              6.135
 Vibration     2          0.594              1.983              5.582
 Vibration     3          0.595              1.980              5.039
 Vibration     4          0.595              1.978              4.848
 Vibration     5          0.598              1.970              4.243
 Vibration     6          0.600              1.962              3.863
 Vibration     7          0.602              1.955              3.633
 Vibration     8          0.607              1.938              3.210
 Vibration     9          0.609              1.932              3.095
 Vibration    10          0.634              1.851              2.206
 Vibration    11          0.648              1.808              1.944
 Vibration    12          0.660              1.772              1.771
 Vibration    13          0.673              1.731              1.605
 Vibration    14          0.706              1.634              1.307
 Vibration    15          0.711              1.621              1.274
 Vibration    16          0.725              1.581              1.179
 Vibration    17          0.748              1.519              1.050
 Vibration    18          0.765              1.473              0.968
 Vibration    19          0.900              1.150              0.554
 Vibration    20          0.907              1.136              0.540
 Vibration    21          0.938              1.071              0.482
 Vibration    22          0.972              1.005              0.428

 Optimization completed.
    -- Stationary point found.
 Normal termination of Gaussian 09 at Wed Jul 28 23:46:19 2021.
