 Gaussian 09, Revision D.01,
 Gaussian 09:  ES64L-G09RevD.01 24-Apr-2013

 ----------------------------------------------------------------------
 # B3LYP/6-311G(d,p) opt=calcfc freq=noraman nosymm integral(ultrafineg
 rid)
 ----------------------------------------------------------------------

 ------------------------------------------------------------
 Candidate Structure: Conf:862 OPT and FREQ calc in gas phase
 ------------------------------------------------------------
 Symbolic Z-matrix:
 Charge =  1 Multiplicity = 1

 SCF Done:  E(RB3LYP) =  -796.698673047     A.U. after   14 cycles
 SCF Done:  E(RB3LYP) =  -796.660726967     A.U. after   15 cycles
 SCF Done:  E(RB3LYP) =  -796.704333582     A.U. after   12 cycles
 SCF Done:  E(RB3LYP) =  -796.706909376     A.U. after   12 cycles
 SCF Done:  E(RB3LYP) =  -796.698942463     A.U. after   14 cycles
 SCF Done:  E(RB3LYP) =  -796.707772916     A.U. after   11 cycles
 SCF Done:  E(RB3LYP) =  -796.708462588     A.U. after   12 cycles
 SCF Done:  E(RB3LYP) =  -796.708069443     A.U. after   12 cycles
 SCF Done:  E(RB3LYP) =  -796.708528294     A.U. after    7 cycles
 SCF Done:  E(RB3LYP) =  -796.709551613     A.U. after   12 cycles
 SCF Done:  E(RB3LYP) =  -796.709686993     A.U. after   11 cycles
 SCF Done:  E(RB3LYP) =  -796.709714036     A.U. after   10 cycles
 SCF Done:  E(RB3LYP) =  -796.709722977     A.U. after    9 cycles
 SCF Done:  E(RB3LYP) =  -796.709725087     A.U. after    8 cycles
 SCF Done:  E(RB3LYP) =  -796.709726781     A.U. after    8 cycles
 SCF Done:  E(RB3LYP) =  -796.709727536     A.U. after    8 cycles
 SCF Done:  E(RB3LYP) =  -796.709727704     A.U. after    8 cycles
 Optimization completed.
    -- Stationary point found.
 Normal termination of Gaussian 09 at Wed Jul 28 23:31:05 2021.

 ----------------------------------------------------------------------
 #N Geom=AllCheck Guess=TCheck SCRF=Check GenChk RB3LYP/6-311G(d,p) Fre
 q
 ----------------------------------------------------------------------

 Structure from the checkpoint file:  "conf-862.chk"
 ------------------------------------------------------------
 Candidate Structure: Conf:862 OPT and FREQ calc in gas phase
 ------------------------------------------------------------
 Charge =  1 Multiplicity = 1

                          Input orientation:
 ---------------------------------------------------------------------
 Center     Atomic      Atomic             Coordinates (Angstroms)
 Number     Number       Type             X           Y           Z
 ---------------------------------------------------------------------
      1          8           0       -0.704490    1.806597   -0.144027
      2          6           0        0.353596    1.267371    0.185522
      3          7           0        0.503406    0.566467    1.328261
      4          6           0       -0.621471    0.157600    2.153672
      5          6           0       -0.190368    0.217887    3.612740
      6          8           0       -1.246846    0.200150    4.432159
      7          8           0        0.960731    0.222060    3.965003
      8          6           0       -1.109728   -1.311690    1.816301
      9          6           0       -0.896297   -1.642881    0.373539
     10          6           0       -1.404342   -1.084971   -0.769909
     11          7           0       -0.670415   -1.469816   -1.874527
     12          6           0        0.243760   -2.307318   -1.417425
     13          7           0        0.151903   -2.434576   -0.068591
     14          6           0        1.560644    1.265829   -0.758605
     15          6           0        1.220457    1.794486   -2.156207
     16          7           0       -0.091717    1.241209   -2.662937
     17          1           0        1.421646    0.275438    1.638501
     18          1           0       -1.438119    0.855020    1.974331
     19          1           0       -0.925407    0.190781    5.348260
     20          1           0       -2.160699   -1.392874    2.097724
     21          1           0       -0.562923   -2.026334    2.438097
     22          1           0       -2.225862   -0.391245   -0.848593
     23          1           0        0.968435   -2.842261   -2.011531
     24          1           0        0.707806   -3.052606    0.505058
     25          1           0        1.958020    0.249631   -0.821564
     26          1           0        2.359885    1.890413   -0.347745
     27          1           0        2.000846    1.530091   -2.868468
     28          1           0        1.105023    2.877840   -2.148371
     29          1           0       -0.165643    0.190828   -2.638476
     30          1           0       -0.301494    1.570819   -3.605419
     31          1           0       -0.800233    1.586264   -1.988576
 ---------------------------------------------------------------------

 SCF Done:  E(RB3LYP) =  -796.709727704     A.U. after    1 cycles

 Alpha  occ. eigenvalues --  -19.28876 -19.23947 -19.23419 -14.56238 -14.50733
 Alpha  occ. eigenvalues --  -14.48192 -14.44017 -10.42928 -10.42793 -10.38912
 Alpha  occ. eigenvalues --  -10.36531 -10.36220 -10.34454 -10.34261 -10.32574
 Alpha  occ. eigenvalues --  -10.31698  -1.23659  -1.19594  -1.15913  -1.14989
 Alpha  occ. eigenvalues --   -1.13668  -1.07633  -1.01549  -0.94976  -0.92819
 Alpha  occ. eigenvalues --   -0.88414  -0.82738  -0.80746  -0.75997  -0.75355
 Alpha  occ. eigenvalues --   -0.73827  -0.73113  -0.72261  -0.71525  -0.68162
 Alpha  occ. eigenvalues --   -0.66375  -0.64138  -0.62945  -0.62060  -0.61168
 Alpha  occ. eigenvalues --   -0.59952  -0.59126  -0.58775  -0.57669  -0.56254
 Alpha  occ. eigenvalues --   -0.55585  -0.55033  -0.54370  -0.54250  -0.53483
 Alpha  occ. eigenvalues --   -0.52640  -0.50729  -0.50238  -0.44835  -0.43609
 Alpha  occ. eigenvalues --   -0.42346  -0.41927  -0.40841  -0.40629  -0.36561
 Alpha virt. eigenvalues --   -0.14133  -0.13180  -0.12385  -0.11434  -0.09340
 Alpha virt. eigenvalues --   -0.08885  -0.07979  -0.06642  -0.06296  -0.05959
 Alpha virt. eigenvalues --   -0.04897  -0.04042  -0.03051  -0.02357  -0.01737

 Mulliken charges:
               1
     1  O   -0.420993
     2  C    0.418048
     3  N   -0.389255
     4  C   -0.076007
     5  C    0.370519
     6  O   -0.303893
     7  O   -0.319177
     8  C   -0.153223
     9  C    0.088543
    10  C   -0.053520
    11  N   -0.380421
    12  C    0.173516
    13  N   -0.350665
    14  C   -0.285877
    15  C   -0.123894
    16  N   -0.341399
    17  H    0.249371
    18  H    0.191544
    19  H    0.281215
    20  H    0.182437
    21  H    0.136302
    22  H    0.130162
    23  H    0.145137
    24  H    0.254360
    25  H    0.159054
    26  H    0.190003
    27  H    0.178894
    28  H    0.183939
    29  H    0.282699
    30  H    0.285370
    31  H    0.297212
 Sum of Mulliken charges =   1.00000

 Dipole moment (field-independent basis, Debye):
    X=              2.5704    Y=              0.3015    Z=             -3.3153  Tot=              4.2059
 Quadrupole moment (field-independent basis, Debye-Ang):
   XX=            -85.0487   YY=            -73.6913   ZZ=            -51.2756
   XY=             -0.4411   XZ=            -11.5108   YZ=            -16.4999

  Exact polarizability: 112.576  -3.234 109.872  -8.061  -7.942 154.883
 Approx polarizability: 195.403 -23.888 163.376   0.352 -15.151 214.000

                      1                      2                      3
                      A                      A                      A
 Frequencies --     43.1751                55.2180                82.6563
 Red. masses --      5.3160                 7.5036                 3.9865
 Frc consts  --      0.0058                 0.0135                 0.0160
 IR Inten    --      2.9123                 1.0925                 0.5078

                      4                      5                      6
                      A                      A                      A
 Frequencies --    108.1490               109.3270               121.3760
 Red. masses --      4.9360                 5.0872                 3.9749
 Frc consts  --      0.0340                 0.0358                 0.0345
 IR Inten    --      4.2693                11.5899                 6.0551

                      7                      8                      9
                      A                      A                      A
 Frequencies --    139.4543               154.4558               173.1488
 Red. masses --      3.8719                 4.8688                 4.6162
 Frc consts  --      0.0444                 0.0684                 0.0815
 IR Inten    --     20.8150                 6.4664                11.7718

                     10                     11                     12
                      A                      A                      A
 Frequencies --    200.9979               259.8533               305.7332
 Red. masses --      2.3423                 4.4602                 5.7175
 Frc consts  --      0.0558                 0.1774                 0.3149
 IR Inten    --     25.9815                39.9403                 1.1760

                     13                     14                     15
                      A                      A                      A
 Frequencies --    314.2758               332.3113               351.4229
 Red. masses --      2.7231                 3.5871                 3.9872
 Frc consts  --      0.1585                 0.2334                 0.2901
 IR Inten    --      5.5276                 7.7772                37.5193

                     16                     17                     18
                      A                      A                      A
 Frequencies --    407.8726               435.8408               457.9170
 Red. masses --      3.0218                 1.9814                 1.5169
 Frc consts  --      0.2962                 0.2218                 0.1874
 IR Inten    --      8.5094                13.7340                 1.3003

                     19                     20                     21
                      A                      A                      A
 Frequencies --    525.3774               549.1974               598.4828
 Red. masses --      1.8097                 3.7123                 1.8034
 Frc consts  --      0.2943                 0.6597                 0.3806
 IR Inten    --     78.1371                21.0703               106.2827

                     22                     23                     24
                      A                      A                      A
 Frequencies --    621.5532               623.9807               637.9634
 Red. masses --      1.7286                 1.3704                 3.4450
 Frc consts  --      0.3935                 0.3144                 0.8261
 IR Inten    --      6.7952                52.0493                81.1660

                     25                     26                     27
                      A                      A                      A
 Frequencies --    680.3588               689.4577               690.1383
 Red. masses --      2.8251                 2.4396                 2.8677
 Frc consts  --      0.7705                 0.6833                 0.8047
 IR Inten    --     62.9370                 4.8995                 1.4183

                     28                     29                     30
                      A                      A                      A
 Frequencies --    718.0382               769.8325               828.0054
 Red. masses --      3.0647                 4.1392                 1.4903
 Frc consts  --      0.9310                 1.4453                 0.6020
 IR Inten    --     10.1651                24.4084                 8.5526

                     31                     32                     33
                      A                      A                      A
 Frequencies --    839.4911               851.2491               864.3047
 Red. masses --      2.2211                 1.9930                 1.7357
 Frc consts  --      0.9223                 0.8509                 0.7639
 IR Inten    --     15.8563                18.7589                17.9636

                     34                     35                     36
                      A                      A                      A
 Frequencies --    877.2593               926.2312               944.2541
 Red. masses --      2.1525                 2.7183                 5.2959
 Frc consts  --      0.9760                 1.3740                 2.7821
 IR Inten    --      4.7150                13.5909                10.7302

                     37                     38                     39
                      A                      A                      A
 Frequencies --    958.3194               978.6453               998.1553
 Red. masses --      3.5174                 1.5462                 3.1653
 Frc consts  --      1.9032                 0.8725                 1.8580
 IR Inten    --      1.0108                 2.7987                15.3483

                     40                     41                     42
                      A                      A                      A
 Frequencies --   1029.2126              1038.7525              1099.5252
 Red. masses --      3.5198                 3.1623                 2.5718
 Frc consts  --      2.1967                 2.0104                 1.8319
 IR Inten    --      5.0751                 9.9451                21.0171

                     43                     44                     45
                      A                      A                      A
 Frequencies --   1124.4574              1131.3753              1135.0809
 Red. masses --      1.4217                 1.8424                 1.8280
 Frc consts  --      1.0591                 1.3894                 1.3876
 IR Inten    --     93.0712                19.4568                14.7411

                     46                     47                     48
                      A                      A                      A
 Frequencies --   1145.1810              1166.4064              1205.2598
 Red. masses --      1.4333                 1.8497                 1.9043
 Frc consts  --      1.1075                 1.4827                 1.6299
 IR Inten    --     37.4253               149.0952                60.7178

                     49                     50                     51
                      A                      A                      A
 Frequencies --   1246.4289              1252.8964              1279.3171
 Red. masses --      1.6863                 1.8928                 1.3950
 Frc consts  --      1.5436                 1.7506                 1.3451
 IR Inten    --      3.7803                11.7876                 9.5901

                     52                     53                     54
                      A                      A                      A
 Frequencies --   1282.0256              1296.1915              1335.6207
 Red. masses --      1.3224                 1.5419                 1.6874
 Frc consts  --      1.2806                 1.5263                 1.7735
 IR Inten    --     16.4423                10.3494                 2.1147

                     55                     56                     57
                      A                      A                      A
 Frequencies --   1342.2221              1354.5519              1386.6510
 Red. masses --      1.2817                 1.2369                 1.5664
 Frc consts  --      1.3605                 1.3372                 1.7746
 IR Inten    --      9.8737                16.0816                48.4328

                     58                     59                     60
                      A                      A                      A
 Frequencies --   1392.8580              1416.8123              1425.9229
 Red. masses --      2.4222                 2.3404                 1.3333
 Frc consts  --      2.7687                 2.7680                 1.5973
 IR Inten    --      2.7329               160.1703                 8.7270

                     61                     62                     63
                      A                      A                      A
 Frequencies --   1439.1510              1466.5391              1486.4466
 Red. masses --      2.6676                 1.0944                 1.2831
 Frc consts  --      3.2552                 1.3868                 1.6703
 IR Inten    --     20.8870                22.4130                19.3044

                     64                     65                     66
                      A                      A                      A
 Frequencies --   1497.6072              1505.2952              1511.8916
 Red. masses --      2.0857                 1.1223                 1.2517
 Frc consts  --      2.7561                 1.4984                 1.6858
 IR Inten    --      7.1245                39.1456               196.1202

                     67                     68                     69
                      A                      A                      A
 Frequencies --   1556.6740              1613.4446              1642.7315
 Red. masses --      2.1145                 4.1019                 1.1147
 Frc consts  --      3.0190                 6.2913                 1.7723
 IR Inten    --    196.7038                15.7502                57.8511

                     70                     71                     72
                      A                      A                      A
 Frequencies --   1700.8373              1718.2723              1827.6795
 Red. masses --      1.2108                 3.0555                10.2651
 Frc consts  --      2.0638                 5.3152                20.2029
 IR Inten    --    232.9141                61.9062               263.4889

                     73                     74                     75
                      A                      A                      A
 Frequencies --   2946.0611              3051.8767              3052.1644
 Red. masses --      1.0809                 1.0655                 1.0610
 Frc consts  --      5.5274                 5.8469                 5.8237
 IR Inten    --    784.6458                11.0273                 4.0414

                     76                     77                     78
                      A                      A                      A
 Frequencies --   3087.7254              3096.1098              3104.4798
 Red. masses --      1.0906                 1.0716                 1.0979
 Frc consts  --      6.1261                 6.0522                 6.2342
 IR Inten    --      2.5988                 3.9296                 1.7588

                     79                     80                     81
                      A                      A                      A
 Frequencies --   3125.9148              3146.2148              3224.7752
 Red. masses --      1.0872                 1.1103                 1.0681
 Frc consts  --      6.2593                 6.4754                 6.5444
 IR Inten    --      3.0909                 2.9462               196.9681

                     82                     83                     84
                      A                      A                      A
 Frequencies --   3250.4110              3253.9302              3501.7202
 Red. masses --      1.0958                 1.1008                 1.0786
 Frc consts  --      6.8214                 6.8673                 7.7927
 IR Inten    --      0.7680                 3.9235               108.7602

                     85                     86                     87
                      A                      A                      A
 Frequencies --   3585.1643              3626.7243              3736.9835
 Red. masses --      1.0778                 1.0820                 1.0645
 Frc consts  --      8.1619                 8.3847                 8.7589
 IR Inten    --     72.1067                86.0982               128.1561

 - Thermochemistry -
 -------------------
 Temperature   298.150 Kelvin.  Pressure   1.00000 Atm.
 Atom     1 has atomic number  8 and mass  15.99491

 Molecular mass:   227.11442 amu.
 Principal axes and moments of inertia in atomic units:
                           1         2         3
     Eigenvalues --  2233.552434543.657465708.33338
           X           -0.09903   0.30436   0.94739
           Y           -0.03466   0.95044  -0.30896
           Z            0.99448   0.06343   0.08358
 This molecule is an asymmetric top.
 Rotational symmetry number  1.
 Warning -- assumption of classical behavior for rotation
           may cause significant error
 Rotational temperatures (Kelvin)      0.03878     0.01906     0.01517
 Rotational constants (GHZ):           0.80801     0.39720     0.31616
 Zero-point vibrational energy     682272.5 (Joules/Mol)
                                  163.06704 (Kcal/Mol)
 Warning -- explicit consideration of  21 degrees of freedom as
           vibrations may cause significant error
 Vibrational temperatures:     62.12    79.45   118.92   155.60   157.30
          (Kelvin)            174.63   200.64   222.23   249.12   289.19
                              373.87   439.88   452.17   478.12   505.62
                              586.84   627.08   658.84   755.90   790.17
                              861.08   894.28   897.77   917.89   978.88
                              991.97   992.95  1033.10  1107.62  1191.31
                             1207.84  1224.76  1243.54  1262.18  1332.64
                             1358.57  1378.81  1408.05  1436.12  1480.81
                             1494.53  1581.97  1617.84  1627.79  1633.13
                             1647.66  1678.20  1734.10  1793.33  1802.64
                             1840.65  1844.55  1864.93  1921.66  1931.16
                             1948.90  1995.08  2004.01  2038.47  2051.58
                             2070.61  2110.02  2138.66  2154.72  2165.78
                             2175.27  2239.70  2321.38  2363.52  2447.12
                             2472.21  2629.62  4238.72  4390.96  4391.38
                             4442.54  4454.61  4466.65  4497.49  4526.70
                             4639.73  4676.61  4681.67  5038.19  5158.25
                             5218.04  5376.68

 Zero-point correction=                           0.259864 (Hartree/Particle)
 Thermal correction to Energy=                    0.275052
 Thermal correction to Enthalpy=                  0.275996
 Thermal correction to Gibbs Free Energy=         0.217209
 Sum of electronic and zero-point Energies=           -796.449864
 Sum of electronic and thermal Energies=              -796.434675
 Sum of electronic and thermal Enthalpies=            -796.433731
 Sum of electronic and thermal Free Energies=         -796.492518

                     E (Thermal)             CV                S
                      KCal/Mol        Cal/Mol-Kelvin    Cal/Mol-Kelvin
 Total                  172.598             57.702            123.728
 Electronic               0.000              0.000              0.000
 Translational            0.889              2.981             42.163
 Rotational               0.889              2.981             32.427
 Vibrational            170.820             51.740             49.138
 Vibration     1          0.595              1.980              5.108
 Vibration     2          0.596              1.975              4.621
 Vibration     3          0.600              1.961              3.827
 Vibration     4          0.606              1.943              3.302
 Vibration     5          0.606              1.942              3.281
 Vibration     6          0.609              1.931              3.078
 Vibration     7          0.615              1.914              2.811
 Vibration     8          0.620              1.898              2.617
 Vibration     9          0.627              1.876              2.401
 Vibration    10          0.638              1.838              2.124
 Vibration    11          0.668              1.746              1.663
 Vibration    12          0.696              1.663              1.385
 Vibration    13          0.702              1.646              1.340
 Vibration    14          0.714              1.611              1.249
 Vibration    15          0.728              1.572              1.160
 Vibration    16          0.772              1.453              0.934
 Vibration    17          0.796              1.392              0.840
 Vibration    18          0.816              1.343              0.772
 Vibration    19          0.880              1.194              0.598
 Vibration    20          0.904              1.141              0.546
 Vibration    21          0.956              1.035              0.452

 Optimization completed.
    -- Stationary point found.
 Normal termination of Gaussian 09 at Thu Jul 29 00:10:46 2021.
