 Gaussian 09, Revision D.01,
 Gaussian 09:  ES64L-G09RevD.01 24-Apr-2013

 ----------------------------------------------------------------------
 # B3LYP/6-311G(d,p) opt=calcfc freq=noraman nosymm integral(ultrafineg
 rid)
 ----------------------------------------------------------------------

 ------------------------------------------------------------
 Candidate Structure: Conf:661 OPT and FREQ calc in gas phase
 ------------------------------------------------------------
 Symbolic Z-matrix:
 Charge =  1 Multiplicity = 1

 SCF Done:  E(RB3LYP) =  -796.670982189     A.U. after   14 cycles
 SCF Done:  E(RB3LYP) =  -796.663592473     A.U. after   15 cycles
 SCF Done:  E(RB3LYP) =  -796.678770792     A.U. after   11 cycles
 SCF Done:  E(RB3LYP) =  -796.683650327     A.U. after   13 cycles
 SCF Done:  E(RB3LYP) =  -796.683070282     A.U. after   14 cycles
 SCF Done:  E(RB3LYP) =  -796.685034266     A.U. after   11 cycles
 SCF Done:  E(RB3LYP) =  -796.685707825     A.U. after   12 cycles
 SCF Done:  E(RB3LYP) =  -796.687785745     A.U. after   12 cycles
 SCF Done:  E(RB3LYP) =  -796.688296503     A.U. after   12 cycles
 SCF Done:  E(RB3LYP) =  -796.688405697     A.U. after   12 cycles
 SCF Done:  E(RB3LYP) =  -796.688558192     A.U. after   11 cycles
 SCF Done:  E(RB3LYP) =  -796.688643021     A.U. after   10 cycles
 SCF Done:  E(RB3LYP) =  -796.688726074     A.U. after   11 cycles
 SCF Done:  E(RB3LYP) =  -796.688744212     A.U. after    9 cycles
 SCF Done:  E(RB3LYP) =  -796.688768748     A.U. after   10 cycles
 SCF Done:  E(RB3LYP) =  -796.688770850     A.U. after    9 cycles
 SCF Done:  E(RB3LYP) =  -796.688771251     A.U. after    8 cycles
 SCF Done:  E(RB3LYP) =  -796.688771295     A.U. after    7 cycles
 Optimization completed.
    -- Stationary point found.
 Normal termination of Gaussian 09 at Wed Jul 28 23:24:40 2021.

 ----------------------------------------------------------------------
 #N Geom=AllCheck Guess=TCheck SCRF=Check GenChk RB3LYP/6-311G(d,p) Fre
 q
 ----------------------------------------------------------------------

 Structure from the checkpoint file:  "conf-661.chk"
 ------------------------------------------------------------
 Candidate Structure: Conf:661 OPT and FREQ calc in gas phase
 ------------------------------------------------------------
 Charge =  1 Multiplicity = 1

                          Input orientation:
 ---------------------------------------------------------------------
 Center     Atomic      Atomic             Coordinates (Angstroms)
 Number     Number       Type             X           Y           Z
 ---------------------------------------------------------------------
      1          8           0        2.090839    1.173937    0.868889
      2          6           0        1.396551    0.945624   -0.105508
      3          7           0        0.173681    0.353953   -0.006064
      4          6           0       -0.270146   -0.154523    1.271669
      5          6           0        0.735126   -1.220342    1.748050
      6          8           0        0.705864   -1.545505    3.033960
      7          8           0        1.488125   -1.810687    1.000392
      8          6           0       -1.682513   -0.808936    1.133555
      9          6           0       -2.654670    0.029416    0.374727
     10          6           0       -3.099716   -0.072584   -0.924383
     11          7           0       -3.953845    0.955585   -1.235874
     12          6           0       -4.037568    1.679898   -0.147338
     13          7           0       -3.263873    1.172643    0.860759
     14          6           0        1.961416    1.091197   -1.516726
     15          6           0        3.198235    0.194064   -1.594174
     16          7           0        2.843846   -1.259399   -1.317849
     17          1           0       -0.484520    0.346657   -0.775489
     18          1           0       -0.295679    0.653519    2.011469
     19          1           0        0.117707   -0.972064    3.543402
     20          1           0       -2.053231   -1.052145    2.133906
     21          1           0       -1.576195   -1.758676    0.602677
     22          1           0       -2.879190   -0.855572   -1.636087
     23          1           0       -4.635830    2.569729   -0.022752
     24          1           0       -3.206389    1.536506    1.799831
     25          1           0        2.291652    2.120391   -1.672481
     26          1           0        1.235828    0.847452   -2.297780
     27          1           0        3.908804    0.484882   -0.822114
     28          1           0        3.678201    0.230964   -2.571553
     29          1           0        3.689621   -1.829834   -1.247978
     30          1           0        2.302430   -1.393968   -0.418026
     31          1           0        2.275035   -1.652073   -2.071105
 ---------------------------------------------------------------------

 SCF Done:  E(RB3LYP) =  -796.688771295     A.U. after    1 cycles

 Alpha  occ. eigenvalues --  -19.31663 -19.26407 -19.23310 -14.58912 -14.48644
 Alpha  occ. eigenvalues --  -14.48092 -14.39546 -10.46148 -10.42130 -10.39819
 Alpha  occ. eigenvalues --  -10.38006 -10.34529 -10.33568 -10.33146 -10.32605
 Alpha  occ. eigenvalues --  -10.29652  -1.26343  -1.19627  -1.17856  -1.15860
 Alpha  occ. eigenvalues --   -1.13008  -1.08128  -0.98619  -0.95664  -0.93287
 Alpha  occ. eigenvalues --   -0.87355  -0.82913  -0.80136  -0.78004  -0.75393
 Alpha  occ. eigenvalues --   -0.74397  -0.73842  -0.72856  -0.71008  -0.68720
 Alpha  occ. eigenvalues --   -0.66458  -0.66063  -0.65106  -0.64816  -0.61176
 Alpha  occ. eigenvalues --   -0.60094  -0.59060  -0.58113  -0.57318  -0.56441
 Alpha  occ. eigenvalues --   -0.55760  -0.54401  -0.53836  -0.53067  -0.52530
 Alpha  occ. eigenvalues --   -0.52266  -0.51920  -0.50531  -0.47477  -0.44354
 Alpha  occ. eigenvalues --   -0.41463  -0.40867  -0.39666  -0.37591  -0.34699
 Alpha virt. eigenvalues --   -0.15561  -0.14719  -0.13834  -0.11404  -0.10053
 Alpha virt. eigenvalues --   -0.08793  -0.08431  -0.07418  -0.07022  -0.05558
 Alpha virt. eigenvalues --   -0.04339  -0.04032  -0.03036  -0.02491  -0.02021

 Mulliken charges:
               1
     1  O   -0.349309
     2  C    0.308836
     3  N   -0.398253
     4  C   -0.128530
     5  C    0.470625
     6  O   -0.251177
     7  O   -0.396829
     8  C   -0.185230
     9  C    0.062786
    10  C   -0.076751
    11  N   -0.270656
    12  C    0.172073
    13  N   -0.368465
    14  C   -0.230563
    15  C   -0.150947
    16  N   -0.348107
    17  H    0.255774
    18  H    0.175809
    19  H    0.274432
    20  H    0.150611
    21  H    0.159432
    22  H    0.112856
    23  H    0.138057
    24  H    0.240483
    25  H    0.193493
    26  H    0.144658
    27  H    0.201605
    28  H    0.182473
    29  H    0.296813
    30  H    0.334734
    31  H    0.279264
 Sum of Mulliken charges =   1.00000

 Dipole moment (field-independent basis, Debye):
    X=              5.5510    Y=             -1.7566    Z=             -1.4693  Tot=              6.0048
 Quadrupole moment (field-independent basis, Debye-Ang):
   XX=            -61.8886   YY=            -83.1837   ZZ=            -68.0843
   XY=            -13.4768   XZ=            -37.8443   YZ=              9.2124

  Exact polarizability: 145.823 -16.216 111.088  -1.677  -3.139 130.709
 Approx polarizability: 191.659 -19.379 171.092  10.727   7.909 212.758

                      1                      2                      3
                      A                      A                      A
 Frequencies --     31.9849                38.3102                60.1909
 Red. masses --      3.9403                 4.3013                 7.0679
 Frc consts  --      0.0024                 0.0037                 0.0151
 IR Inten    --     12.6810                 1.0624                12.0563

                      4                      5                      6
                      A                      A                      A
 Frequencies --     66.7532                81.2152               111.9932
 Red. masses --      4.2007                 5.5526                 4.7334
 Frc consts  --      0.0110                 0.0216                 0.0350
 IR Inten    --      3.8567                 6.6858                 5.0542

                      7                      8                      9
                      A                      A                      A
 Frequencies --    148.4603               159.3047               177.0406
 Red. masses --      5.4311                 6.0421                 6.6133
 Frc consts  --      0.0705                 0.0903                 0.1221
 IR Inten    --     21.6918                 4.5182                11.9612

                     10                     11                     12
                      A                      A                      A
 Frequencies --    220.9255               249.0954               276.4323
 Red. masses --      3.8576                 2.7016                 5.6262
 Frc consts  --      0.1109                 0.0988                 0.2533
 IR Inten    --     72.8482                11.7623                10.6446

                     13                     14                     15
                      A                      A                      A
 Frequencies --    318.9374               327.2603               345.1842
 Red. masses --      2.7562                 1.1893                 3.2628
 Frc consts  --      0.1652                 0.0750                 0.2291
 IR Inten    --      8.2820                 0.9463                 5.1307

                     16                     17                     18
                      A                      A                      A
 Frequencies --    379.7549               420.9887               436.3451
 Red. masses --      3.4500                 3.9005                 2.5473
 Frc consts  --      0.2931                 0.4073                 0.2858
 IR Inten    --     13.0553                37.0404                 4.8026

                     19                     20                     21
                      A                      A                      A
 Frequencies --    485.8309               507.5988               531.5033
 Red. masses --      1.1582                 1.2246                 2.0815
 Frc consts  --      0.1611                 0.1859                 0.3464
 IR Inten    --     51.8560                53.5599                33.8703

                     22                     23                     24
                      A                      A                      A
 Frequencies --    545.9723               629.3460               650.3570
 Red. masses --      1.8262                 4.4093                 3.1139
 Frc consts  --      0.3207                 1.0290                 0.7760
 IR Inten    --     75.0292                 5.8212                 8.5625

                     25                     26                     27
                      A                      A                      A
 Frequencies --    677.5278               696.5539               707.7826
 Red. masses --      3.0112                 3.7600                 4.4151
 Frc consts  --      0.8144                 1.0749                 1.3031
 IR Inten    --      5.2085                 7.4344                18.9996

                     28                     29                     30
                      A                      A                      A
 Frequencies --    737.9314               778.4442               836.4816
 Red. masses --      2.5050                 5.7414                 3.1997
 Frc consts  --      0.8037                 2.0499                 1.3191
 IR Inten    --      1.6180                 1.9200                 1.5827

                     31                     32                     33
                      A                      A                      A
 Frequencies --    846.2116               848.7001               867.9805
 Red. masses --      1.4393                 1.6975                 1.8219
 Frc consts  --      0.6072                 0.7204                 0.8087
 IR Inten    --     36.2900                 2.3256                 6.7923

                     34                     35                     36
                      A                      A                      A
 Frequencies --    873.8413               929.7605               931.0904
 Red. masses --      2.1515                 2.6322                 5.8080
 Frc consts  --      0.9679                 1.3406                 2.9666
 IR Inten    --     15.4591                 5.4614                10.9700

                     37                     38                     39
                      A                      A                      A
 Frequencies --    948.6350               954.8110              1001.0756
 Red. masses --      1.3486                 3.2926                 2.8158
 Frc consts  --      0.7151                 1.7686                 1.6626
 IR Inten    --      9.2764                 5.2679                10.2996

                     40                     41                     42
                      A                      A                      A
 Frequencies --   1011.8586              1041.6565              1091.9145
 Red. masses --      3.6950                 2.9678                 1.5942
 Frc consts  --      2.2290                 1.8973                 1.1199
 IR Inten    --     15.0528                 3.8434                 4.7555

                     43                     44                     45
                      A                      A                      A
 Frequencies --   1104.4933              1117.3588              1139.8992
 Red. masses --      1.7342                 1.3507                 1.9660
 Frc consts  --      1.2465                 0.9936                 1.5051
 IR Inten    --     23.4745                 5.1258                27.9640

                     46                     47                     48
                      A                      A                      A
 Frequencies --   1152.0677              1192.6095              1206.2011
 Red. masses --      2.0518                 1.5710                 1.6581
 Frc consts  --      1.6045                 1.3165                 1.4213
 IR Inten    --     12.2565                10.5235                25.1516

                     49                     50                     51
                      A                      A                      A
 Frequencies --   1237.2862              1260.9181              1272.2106
 Red. masses --      1.7134                 2.1285                 1.4307
 Frc consts  --      1.5454                 1.9939                 1.3643
 IR Inten    --     96.6845                 4.7302                 4.7705

                     52                     53                     54
                      A                      A                      A
 Frequencies --   1279.4822              1304.2899              1329.2440
 Red. masses --      1.4880                 1.4006                 1.6929
 Frc consts  --      1.4352                 1.4038                 1.7624
 IR Inten    --     51.6011                74.2110               234.0051

                     55                     56                     57
                      A                      A                      A
 Frequencies --   1341.3689              1353.9261              1383.6277
 Red. masses --      1.4448                 1.4707                 1.3851
 Frc consts  --      1.5316                 1.5884                 1.5623
 IR Inten    --     36.7929                13.3663                 5.8478

                     58                     59                     60
                      A                      A                      A
 Frequencies --   1390.7450              1400.4280              1411.9722
 Red. masses --      3.1673                 1.8071                 1.2907
 Frc consts  --      3.6094                 2.0881                 1.5161
 IR Inten    --      8.6389               115.2116                 2.5704

                     61                     62                     63
                      A                      A                      A
 Frequencies --   1429.1999              1477.1608              1479.1872
 Red. masses --      2.7516                 1.0994                 1.1988
 Frc consts  --      3.3115                 1.4134                 1.5454
 IR Inten    --     27.7206                15.9652                19.0053

                     64                     65                     66
                      A                      A                      A
 Frequencies --   1498.6722              1500.4702              1518.8644
 Red. masses --      1.0793                 3.0917                 2.1376
 Frc consts  --      1.4283                 4.1011                 2.9055
 IR Inten    --     20.8582                37.9979               321.7306

                     67                     68                     69
                      A                      A                      A
 Frequencies --   1579.7600              1600.5084              1672.8152
 Red. masses --      1.1556                 4.1999                 1.0502
 Frc consts  --      1.6992                 6.3388                 1.7316
 IR Inten    --    105.4018                 6.7807                62.9850

                     70                     71                     72
                      A                      A                      A
 Frequencies --   1682.1902              1755.6380              1783.3850
 Red. masses --      1.0469                 8.2161                 9.0324
 Frc consts  --      1.7455                14.9207                16.9257
 IR Inten    --     24.2907               232.8807               420.2204

                     73                     74                     75
                      A                      A                      A
 Frequencies --   2867.2835              3029.2904              3041.4342
 Red. masses --      1.0849                 1.0848                 1.0619
 Frc consts  --      5.2549                 5.8652                 5.7874
 IR Inten    --   1159.8690                 8.5351                15.1793

                     76                     77                     78
                      A                      A                      A
 Frequencies --   3054.7234              3086.5596              3094.5639
 Red. masses --      1.0632                 1.1020                 1.0617
 Frc consts  --      5.8453                 6.1858                 5.9905
 IR Inten    --      7.2504                 7.2769                 2.2203

                     79                     80                     81
                      A                      A                      A
 Frequencies --   3110.0015              3155.7396              3220.4772
 Red. masses --      1.1001                 1.1115                 1.0965
 Frc consts  --      6.2693                 6.5218                 6.7006
 IR Inten    --      2.6462                 0.1854                 4.2156

                     82                     83                     84
                      A                      A                      A
 Frequencies --   3246.9264              3447.1589              3502.4039
 Red. masses --      1.0986                 1.0533                 1.0926
 Frc consts  --      6.8239                 7.3746                 7.8968
 IR Inten    --      1.2518                78.7648                68.2410

                     85                     86                     87
                      A                      A                      A
 Frequencies --   3556.1818              3636.8664              3789.9381
 Red. masses --      1.0793                 1.0815                 1.0664
 Frc consts  --      8.0423                 8.4281                 9.0252
 IR Inten    --    153.7956                59.3223                79.6440

 - Thermochemistry -
 -------------------
 Temperature   298.150 Kelvin.  Pressure   1.00000 Atm.
 Atom     1 has atomic number  8 and mass  15.99491

 Molecular mass:   227.11442 amu.
 Principal axes and moments of inertia in atomic units:
                           1         2         3
     Eigenvalues --  2321.339305460.554126634.66480
           X            0.98094  -0.08028   0.17693
           Y           -0.19351  -0.48514   0.85276
           Z           -0.01738   0.87075   0.49143
 This molecule is an asymmetric top.
 Rotational symmetry number  1.
 Warning -- assumption of classical behavior for rotation
           may cause significant error
 Rotational temperatures (Kelvin)      0.03731     0.01586     0.01305
 Rotational constants (GHZ):           0.77746     0.33051     0.27202
 Zero-point vibrational energy     679948.8 (Joules/Mol)
                                  162.51167 (Kcal/Mol)
 Warning -- explicit consideration of  22 degrees of freedom as
           vibrations may cause significant error
 Vibrational temperatures:     46.02    55.12    86.60    96.04   116.85
          (Kelvin)            161.13   213.60   229.20   254.72   317.86
                              358.39   397.72   458.88   470.85   496.64
                              546.38   605.71   627.80   699.00   730.32
                              764.71   785.53   905.49   935.72   974.81
                             1002.18  1018.34  1061.72  1120.01  1203.51
                             1217.51  1221.09  1248.83  1257.26  1337.72
                             1339.63  1364.87  1373.76  1440.32  1455.84
                             1498.71  1571.02  1589.12  1607.63  1640.06
                             1657.57  1715.90  1735.45  1780.18  1814.18
                             1830.42  1840.89  1876.58  1912.48  1929.93
                             1948.00  1990.73  2000.97  2014.90  2031.51
                             2056.30  2125.30  2128.22  2156.25  2158.84
                             2185.30  2272.92  2302.77  2406.80  2420.29
                             2525.97  2565.89  4125.38  4358.47  4375.94
                             4395.06  4440.87  4452.38  4474.59  4540.40
                             4633.54  4671.60  4959.69  5039.17  5116.55
                             5232.63  5452.87

 Zero-point correction=                           0.258979 (Hartree/Particle)
 Thermal correction to Energy=                    0.274605
 Thermal correction to Enthalpy=                  0.275549
 Thermal correction to Gibbs Free Energy=         0.214627
 Sum of electronic and zero-point Energies=           -796.429792
 Sum of electronic and thermal Energies=              -796.414166
 Sum of electronic and thermal Enthalpies=            -796.413222
 Sum of electronic and thermal Free Energies=         -796.474144

                     E (Thermal)             CV                S
                      KCal/Mol        Cal/Mol-Kelvin    Cal/Mol-Kelvin
 Total                  172.317             58.378            128.222
 Electronic               0.000              0.000              0.000
 Translational            0.889              2.981             42.163
 Rotational               0.889              2.981             32.797
 Vibrational            170.540             52.417             53.262
 Vibration     1          0.594              1.983              5.702
 Vibration     2          0.594              1.982              5.345
 Vibration     3          0.597              1.973              4.451
 Vibration     4          0.598              1.970              4.247
 Vibration     5          0.600              1.962              3.861
 Vibration     6          0.607              1.940              3.234
 Vibration     7          0.618              1.904              2.692
 Vibration     8          0.621              1.892              2.558
 Vibration     9          0.628              1.871              2.359
 Vibration    10          0.648              1.809              1.951
 Vibration    11          0.662              1.764              1.737
 Vibration    12          0.678              1.717              1.556
 Vibration    13          0.705              1.637              1.316
 Vibration    14          0.711              1.621              1.274
 Vibration    15          0.724              1.585              1.188
 Vibration    16          0.750              1.513              1.040
 Vibration    17          0.783              1.425              0.889
 Vibration    18          0.797              1.391              0.838
 Vibration    19          0.842              1.281              0.695
 Vibration    20          0.863              1.233              0.639
 Vibration    21          0.886              1.180              0.584
 Vibration    22          0.901              1.149              0.553

 Optimization completed.
    -- Stationary point found.
 Normal termination of Gaussian 09 at Thu Jul 29 00:01:17 2021.
