 Gaussian 09, Revision D.01,
 Gaussian 09:  ES64L-G09RevD.01 24-Apr-2013

 ----------------------------------------------------------------------
 # B3LYP/6-311G(d,p) opt=calcfc freq=noraman nosymm integral(ultrafineg
 rid)
 ----------------------------------------------------------------------

 ------------------------------------------------------------
 Candidate Structure: Conf:214 OPT and FREQ calc in gas phase
 ------------------------------------------------------------
 Symbolic Z-matrix:
 Charge =  1 Multiplicity = 1

 SCF Done:  E(RB3LYP) =  -796.659678046     A.U. after   16 cycles
 SCF Done:  E(RB3LYP) =  -796.664892352     A.U. after   12 cycles
 SCF Done:  E(RB3LYP) =  -796.665666422     A.U. after   12 cycles
 SCF Done:  E(RB3LYP) =  -796.665805447     A.U. after   12 cycles
 SCF Done:  E(RB3LYP) =  -796.665847621     A.U. after   12 cycles
 SCF Done:  E(RB3LYP) =  -796.665881838     A.U. after   10 cycles
 SCF Done:  E(RB3LYP) =  -796.665890461     A.U. after   10 cycles
 SCF Done:  E(RB3LYP) =  -796.665891295     A.U. after    9 cycles
 SCF Done:  E(RB3LYP) =  -796.665891488     A.U. after    8 cycles
 SCF Done:  E(RB3LYP) =  -796.665891506     A.U. after    7 cycles
 SCF Done:  E(RB3LYP) =  -796.665891513     A.U. after    6 cycles
 Optimization completed.
    -- Stationary point found.
 Normal termination of Gaussian 09 at Wed Jul 28 22:57:27 2021.

 ----------------------------------------------------------------------
 #N Geom=AllCheck Guess=TCheck SCRF=Check GenChk RB3LYP/6-311G(d,p) Fre
 q
 ----------------------------------------------------------------------

 Structure from the checkpoint file:  "conf-214.chk"
 ------------------------------------------------------------
 Candidate Structure: Conf:214 OPT and FREQ calc in gas phase
 ------------------------------------------------------------
 Charge =  1 Multiplicity = 1

                          Input orientation:
 ---------------------------------------------------------------------
 Center     Atomic      Atomic             Coordinates (Angstroms)
 Number     Number       Type             X           Y           Z
 ---------------------------------------------------------------------
      1          8           0       -1.165847   -0.810365   -1.133494
      2          6           0       -1.072989   -0.414967    0.016538
      3          7           0       -0.029855   -0.650912    0.838467
      4          6           0        1.089926   -1.501569    0.462265
      5          6           0        1.194390   -2.615635    1.519236
      6          8           0        1.934814   -3.687156    1.193093
      7          8           0        0.684313   -2.513255    2.600619
      8          6           0        2.431476   -0.727913    0.404445
      9          6           0        2.434868    0.417710   -0.560071
     10          6           0        1.700531    0.717528   -1.683048
     11          7           0        2.114938    1.906821   -2.239100
     12          6           0        3.095361    2.325988   -1.477540
     13          7           0        3.329479    1.466209   -0.440808
     14          6           0       -2.170512    0.496664    0.608619
     15          6           0       -3.447858    0.286204   -0.191698
     16          7           0       -4.384687    1.485285   -0.078512
     17          1           0       -0.128276   -0.494441    1.833722
     18          1           0        0.857676   -1.921828   -0.519087
     19          1           0        2.226561   -3.657514    0.273018
     20          1           0        2.656258   -0.365381    1.414869
     21          1           0        3.226202   -1.443460    0.158844
     22          1           0        0.893136    0.149811   -2.117843
     23          1           0        3.668499    3.229755   -1.618470
     24          1           0        4.045965    1.562904    0.262482
     25          1           0       -1.805592    1.525209    0.496189
     26          1           0       -2.317615    0.309916    1.675436
     27          1           0       -4.017420   -0.580271    0.142941
     28          1           0       -3.206653    0.166326   -1.247462
     29          1           0       -3.933637    2.336351   -0.428876
     30          1           0       -5.237652    1.340326   -0.627500
     31          1           0       -4.665815    1.661772    0.890532
 ---------------------------------------------------------------------

 SCF Done:  E(RB3LYP) =  -796.665891513     A.U. after    1 cycles

 Alpha  occ. eigenvalues --  -19.27567 -19.22512 -19.21674 -14.63808 -14.47081
 Alpha  occ. eigenvalues --  -14.45389 -14.37042 -10.41729 -10.41519 -10.41303
 Alpha  occ. eigenvalues --  -10.35593 -10.35107 -10.30599 -10.30516 -10.29744
 Alpha  occ. eigenvalues --  -10.26466  -1.21882  -1.20343  -1.18312  -1.13939
 Alpha  occ. eigenvalues --   -1.10298  -1.06567  -0.96556  -0.95897  -0.91548
 Alpha  occ. eigenvalues --   -0.85542  -0.83077  -0.78864  -0.78600  -0.77186
 Alpha  occ. eigenvalues --   -0.73937  -0.72222  -0.70258  -0.69138  -0.67950
 Alpha  occ. eigenvalues --   -0.67615  -0.65015  -0.62843  -0.60865  -0.60358
 Alpha  occ. eigenvalues --   -0.58907  -0.56926  -0.56603  -0.55545  -0.54999
 Alpha  occ. eigenvalues --   -0.53867  -0.52636  -0.52286  -0.51522  -0.50267
 Alpha  occ. eigenvalues --   -0.49670  -0.49104  -0.48320  -0.43234  -0.40519
 Alpha  occ. eigenvalues --   -0.40010  -0.38752  -0.36968  -0.35251  -0.31681
 Alpha virt. eigenvalues --   -0.18604  -0.13124  -0.11946  -0.11489  -0.10584
 Alpha virt. eigenvalues --   -0.09969  -0.08328  -0.06953  -0.06491  -0.05847
 Alpha virt. eigenvalues --   -0.04933  -0.03864  -0.02650  -0.02410  -0.00930

 Mulliken charges:
               1
     1  O   -0.375626
     2  C    0.422372
     3  N   -0.374435
     4  C   -0.205848
     5  C    0.421950
     6  O   -0.272182
     7  O   -0.313191
     8  C   -0.121564
     9  C    0.078340
    10  C   -0.083036
    11  N   -0.293524
    12  C    0.156228
    13  N   -0.373405
    14  C   -0.295195
    15  C   -0.133023
    16  N   -0.331886
    17  H    0.241791
    18  H    0.178606
    19  H    0.262552
    20  H    0.134708
    21  H    0.139651
    22  H    0.117924
    23  H    0.125662
    24  H    0.236787
    25  H    0.164904
    26  H    0.163291
    27  H    0.192961
    28  H    0.215318
    29  H    0.306036
    30  H    0.311320
    31  H    0.302514
 Sum of Mulliken charges =   1.00000

 Dipole moment (field-independent basis, Debye):
    X=            -13.2590    Y=              5.9108    Z=              2.2483  Tot=             14.6899
 Quadrupole moment (field-independent basis, Debye-Ang):
   XX=             13.6475   YY=            -79.4844   ZZ=           -106.1401
   XY=            -26.4968   XZ=              2.1202   YZ=             13.6032

  Exact polarizability: 138.709  -2.016 126.205   3.952 -15.557 118.212
 Approx polarizability: 182.507   1.342 179.433  16.054  -9.140 205.625

                      1                      2                      3
                      A                      A                      A
 Frequencies --     18.6943                36.8830                46.7836
 Red. masses --      4.3772                 2.1542                 3.3357
 Frc consts  --      0.0009                 0.0017                 0.0043
 IR Inten    --     15.3674                 6.8805                 5.6141

                      4                      5                      6
                      A                      A                      A
 Frequencies --     53.6721                62.5031                81.6079
 Red. masses --      4.7607                 5.8650                 5.2259
 Frc consts  --      0.0081                 0.0135                 0.0205
 IR Inten    --      4.4379                 8.3574                25.5510

                      7                      8                      9
                      A                      A                      A
 Frequencies --     94.5715                98.5173               124.1005
 Red. masses --      5.2686                 4.1139                 4.4933
 Frc consts  --      0.0278                 0.0235                 0.0408
 IR Inten    --      2.4959                 4.1473                14.2307

                     10                     11                     12
                      A                      A                      A
 Frequencies --    172.7371               221.0130               246.8136
 Red. masses --      6.8861                 1.6682                 3.1047
 Frc consts  --      0.1211                 0.0480                 0.1114
 IR Inten    --      4.0866                13.1756                 4.5803

                     13                     14                     15
                      A                      A                      A
 Frequencies --    251.5210               282.9901               321.7950
 Red. masses --      2.3204                 2.9880                 3.9065
 Frc consts  --      0.0865                 0.1410                 0.2383
 IR Inten    --      4.7843                 8.7466                12.7709

                     16                     17                     18
                      A                      A                      A
 Frequencies --    345.3254               380.2831               440.1561
 Red. masses --      4.3165                 3.3386                 2.5718
 Frc consts  --      0.3033                 0.2845                 0.2936
 IR Inten    --     14.1527                 7.3122                45.0321

                     19                     20                     21
                      A                      A                      A
 Frequencies --    485.7185               526.4069               529.5503
 Red. masses --      1.3131                 1.8748                 1.6002
 Frc consts  --      0.1825                 0.3061                 0.2644
 IR Inten    --     80.5310                64.3548                60.7857

                     22                     23                     24
                      A                      A                      A
 Frequencies --    542.4286               613.6705               652.7059
 Red. masses --      2.5586                 2.1355                 2.4888
 Frc consts  --      0.4436                 0.4738                 0.6247
 IR Inten    --     24.7077                 6.1867                21.0024

                     25                     26                     27
                      A                      A                      A
 Frequencies --    660.2435               679.9693               685.0953
 Red. masses --      6.1879                 3.2193                 4.4468
 Frc consts  --      1.5893                 0.8770                 1.2297
 IR Inten    --      8.7213                 3.6411                14.9640

                     28                     29                     30
                      A                      A                      A
 Frequencies --    710.6016               781.3180               796.8909
 Red. masses --      4.1232                 5.1825                 1.4098
 Frc consts  --      1.2267                 1.8640                 0.5275
 IR Inten    --      5.5980                 4.6176                17.0361

                     31                     32                     33
                      A                      A                      A
 Frequencies --    830.3833               866.0742               882.1765
 Red. masses --      1.3966                 1.5468                 1.8410
 Frc consts  --      0.5674                 0.6836                 0.8441
 IR Inten    --     17.8081                19.4339                38.7526

                     34                     35                     36
                      A                      A                      A
 Frequencies --    897.3315               905.3765               919.9481
 Red. masses --      3.1467                 3.1089                 1.3350
 Frc consts  --      1.4928                 1.5015                 0.6657
 IR Inten    --     10.7248                 7.6783                 3.8077

                     37                     38                     39
                      A                      A                      A
 Frequencies --    937.0378               967.2312               994.1032
 Red. masses --      5.6718                 3.1739                 2.2985
 Frc consts  --      2.9342                 1.7495                 1.3383
 IR Inten    --     14.5275                14.5802                17.8867

                     40                     41                     42
                      A                      A                      A
 Frequencies --   1024.6274              1048.2033              1090.5421
 Red. masses --      3.8108                 3.1801                 1.7929
 Frc consts  --      2.3572                 2.0586                 1.2563
 IR Inten    --     11.1671                13.6081                13.3964

                     43                     44                     45
                      A                      A                      A
 Frequencies --   1108.3060              1112.5926              1144.6468
 Red. masses --      1.9544                 1.8314                 2.2548
 Frc consts  --      1.4144                 1.3357                 1.7406
 IR Inten    --     14.8551                37.6196                 5.2259

                     46                     47                     48
                      A                      A                      A
 Frequencies --   1149.9291              1173.4680              1207.7275
 Red. masses --      2.2869                 1.7622                 1.7773
 Frc consts  --      1.7817                 1.4297                 1.5274
 IR Inten    --     20.6697                 6.3172                 7.2127

                     49                     50                     51
                      A                      A                      A
 Frequencies --   1242.7439              1249.7521              1284.0540
 Red. masses --      1.5903                 1.5762                 1.3732
 Frc consts  --      1.4471                 1.4504                 1.3339
 IR Inten    --      5.1822               114.6871                66.3284

                     52                     53                     54
                      A                      A                      A
 Frequencies --   1286.5954              1292.0797              1323.6528
 Red. masses --      1.2787                 1.4503                 1.5625
 Frc consts  --      1.2471                 1.4265                 1.6130
 IR Inten    --      3.0881                30.5335               163.0176

                     55                     56                     57
                      A                      A                      A
 Frequencies --   1324.5903              1353.0376              1356.1968
 Red. masses --      1.6141                 1.4823                 1.6888
 Frc consts  --      1.6686                 1.5989                 1.8301
 IR Inten    --     98.5052                27.9292                15.3157

                     58                     59                     60
                      A                      A                      A
 Frequencies --   1389.2340              1406.4545              1411.9607
 Red. masses --      1.7056                 1.3271                 2.2266
 Frc consts  --      1.9394                 1.5467                 2.6154
 IR Inten    --    169.1655                15.4873                17.7769

                     61                     62                     63
                      A                      A                      A
 Frequencies --   1431.8005              1478.0917              1483.5995
 Red. masses --      2.7358                 1.1174                 1.2592
 Frc consts  --      3.3044                 1.4383                 1.6329
 IR Inten    --     19.8428                 1.3191                28.4162

                     64                     65                     66
                      A                      A                      A
 Frequencies --   1501.4133              1509.9551              1518.5762
 Red. masses --      2.8244                 1.0714                 1.1737
 Frc consts  --      3.7512                 1.4392                 1.5947
 IR Inten    --      8.4675                18.0808               156.6724

                     67                     68                     69
                      A                      A                      A
 Frequencies --   1558.5065              1605.5343              1665.7506
 Red. masses --      1.9200                 4.0917                 1.0426
 Frc consts  --      2.7477                 6.2143                 1.7045
 IR Inten    --    239.5200                 9.5331                46.5654

                     70                     71                     72
                      A                      A                      A
 Frequencies --   1668.7933              1759.4500              1847.6971
 Red. masses --      1.0432                 9.5056                10.0916
 Frc consts  --      1.7116                17.3374                20.2989
 IR Inten    --     38.7150               243.1568               224.8670

                     73                     74                     75
                      A                      A                      A
 Frequencies --   3005.6147              3023.5912              3033.5069
 Red. masses --      1.0601                 1.0645                 1.1008
 Frc consts  --      5.6426                 5.7337                 5.9683
 IR Inten    --     30.2605                 2.8877                10.3183

                     76                     77                     78
                      A                      A                      A
 Frequencies --   3082.1957              3083.6976              3094.1331
 Red. masses --      1.0855                 1.0988                 1.0593
 Frc consts  --      6.0758                 6.1563                 5.9751
 IR Inten    --      8.0621                 4.2859                 6.6501

                     79                     80                     81
                      A                      A                      A
 Frequencies --   3153.4668              3242.8637              3247.5901
 Red. masses --      1.1119                 1.0959                 1.0989
 Frc consts  --      6.5147                 6.7900                 6.8286
 IR Inten    --      3.9072                 0.4761                 1.4674

                     82                     83                     84
                      A                      A                      A
 Frequencies --   3396.9573              3473.7560              3477.8033
 Red. masses --      1.0301                 1.0931                 1.0934
 Frc consts  --      7.0033                 7.7717                 7.7921
 IR Inten    --     49.9296                91.0108                88.1669

                     85                     86                     87
                      A                      A                      A
 Frequencies --   3578.8915              3637.1843              3797.9050
 Red. masses --      1.0771                 1.0814                 1.0665
 Frc consts  --      8.1281                 8.4290                 9.0635
 IR Inten    --     67.7778                60.3724                63.1730

 - Thermochemistry -
 -------------------
 Temperature   298.150 Kelvin.  Pressure   1.00000 Atm.
 Atom     1 has atomic number  8 and mass  15.99491

 Molecular mass:   227.11442 amu.
 Principal axes and moments of inertia in atomic units:
                           1         2         3
     Eigenvalues --  3620.172594825.324897651.71197
           X            0.99369   0.06322   0.09265
           Y           -0.10379   0.83145   0.54583
           Z           -0.04253  -0.55200   0.83276
 This molecule is an asymmetric top.
 Rotational symmetry number  1.
 Warning -- assumption of classical behavior for rotation
           may cause significant error
 Rotational temperatures (Kelvin)      0.02393     0.01795     0.01132
 Rotational constants (GHZ):           0.49852     0.37401     0.23586
 Zero-point vibrational energy     678778.8 (Joules/Mol)
                                  162.23202 (Kcal/Mol)
 Warning -- explicit consideration of  23 degrees of freedom as
           vibrations may cause significant error
 Vibrational temperatures:     26.90    53.07    67.31    77.22    89.93
          (Kelvin)            117.42   136.07   141.74   178.55   248.53
                              317.99   355.11   361.88   407.16   462.99
                              496.85   547.14   633.29   698.84   757.38
                              761.90   780.43   882.93   939.10   949.94
                              978.32   985.70  1022.40  1124.14  1146.55
                             1194.73  1246.09  1269.25  1291.06  1302.63
                             1323.60  1348.19  1391.63  1430.29  1474.21
                             1508.13  1569.04  1594.60  1600.77  1646.89
                             1654.49  1688.36  1737.65  1788.03  1798.11
                             1847.47  1851.12  1859.01  1904.44  1905.79
                             1946.72  1951.26  1998.80  2023.57  2031.49
                             2060.04  2126.64  2134.57  2160.20  2172.49
                             2184.89  2242.34  2310.00  2396.64  2401.02
                             2531.45  2658.42  4324.40  4350.27  4364.53
                             4434.59  4436.75  4451.76  4537.13  4665.75
                             4672.55  4887.46  4997.95  5003.78  5149.22
                             5233.09  5464.33

 Zero-point correction=                           0.258533 (Hartree/Particle)
 Thermal correction to Energy=                    0.275084
 Thermal correction to Enthalpy=                  0.276028
 Thermal correction to Gibbs Free Energy=         0.211228
 Sum of electronic and zero-point Energies=           -796.407358
 Sum of electronic and thermal Energies=              -796.390807
 Sum of electronic and thermal Enthalpies=            -796.389863
 Sum of electronic and thermal Free Energies=         -796.454663

                     E (Thermal)             CV                S
                      KCal/Mol        Cal/Mol-Kelvin    Cal/Mol-Kelvin
 Total                  172.618             59.380            136.383
 Electronic               0.000              0.000              0.000
 Translational            0.889              2.981             42.163
 Rotational               0.889              2.981             33.258
 Vibrational            170.840             53.418             60.962
 Vibration     1          0.593              1.986              6.768
 Vibration     2          0.594              1.982              5.420
 Vibration     3          0.595              1.979              4.949
 Vibration     4          0.596              1.976              4.677
 Vibration     5          0.597              1.972              4.377
 Vibration     6          0.600              1.962              3.852
 Vibration     7          0.603              1.953              3.563
 Vibration     8          0.604              1.950              3.483
 Vibration     9          0.610              1.929              3.036
 Vibration    10          0.626              1.876              2.405
 Vibration    11          0.648              1.809              1.951
 Vibration    12          0.661              1.768              1.753
 Vibration    13          0.663              1.760              1.720
 Vibration    14          0.682              1.705              1.516
 Vibration    15          0.707              1.632              1.301
 Vibration    16          0.724              1.585              1.187
 Vibration    17          0.750              1.512              1.038
 Vibration    18          0.800              1.383              0.826
 Vibration    19          0.842              1.282              0.695
 Vibration    20          0.881              1.192              0.595
 Vibration    21          0.885              1.185              0.588
 Vibration    22          0.898              1.156              0.560
 Vibration    23          0.973              1.003              0.427

 Optimization completed.
    -- Stationary point found.
 Normal termination of Gaussian 09 at Wed Jul 28 23:31:10 2021.
