 Gaussian 09, Revision D.01,
 Gaussian 09:  ES64L-G09RevD.01 24-Apr-2013

 ----------------------------------------------------------------------
 # B3LYP/6-311G(d,p) opt=calcfc freq=noraman nosymm integral(ultrafineg
 rid)
 ----------------------------------------------------------------------

 ------------------------------------------------------------
 Candidate Structure: Conf:719 OPT and FREQ calc in gas phase
 ------------------------------------------------------------
 Symbolic Z-matrix:
 Charge =  1 Multiplicity = 1

 SCF Done:  E(RB3LYP) =  -796.663443812     A.U. after   17 cycles
 SCF Done:  E(RB3LYP) =  -796.671981932     A.U. after   14 cycles
 SCF Done:  E(RB3LYP) =  -796.673385518     A.U. after   14 cycles
 SCF Done:  E(RB3LYP) =  -796.674662931     A.U. after   12 cycles
 SCF Done:  E(RB3LYP) =  -796.674862964     A.U. after   11 cycles
 SCF Done:  E(RB3LYP) =  -796.674898873     A.U. after   11 cycles
 SCF Done:  E(RB3LYP) =  -796.674904925     A.U. after    9 cycles
 SCF Done:  E(RB3LYP) =  -796.674908678     A.U. after    9 cycles
 SCF Done:  E(RB3LYP) =  -796.674909414     A.U. after    9 cycles
 SCF Done:  E(RB3LYP) =  -796.674909454     A.U. after    6 cycles
 SCF Done:  E(RB3LYP) =  -796.674909460     A.U. after    6 cycles
 Optimization completed.
    -- Stationary point found.
 Normal termination of Gaussian 09 at Wed Jul 28 22:56:27 2021.

 ----------------------------------------------------------------------
 #N Geom=AllCheck Guess=TCheck SCRF=Check GenChk RB3LYP/6-311G(d,p) Fre
 q
 ----------------------------------------------------------------------

 Structure from the checkpoint file:  "conf-719.chk"
 ------------------------------------------------------------
 Candidate Structure: Conf:719 OPT and FREQ calc in gas phase
 ------------------------------------------------------------
 Charge =  1 Multiplicity = 1

                          Input orientation:
 ---------------------------------------------------------------------
 Center     Atomic      Atomic             Coordinates (Angstroms)
 Number     Number       Type             X           Y           Z
 ---------------------------------------------------------------------
      1          8           0       -0.964965    0.123933    1.320053
      2          6           0       -1.365331    0.232959    0.172643
      3          7           0       -0.577316    0.327402   -0.912652
      4          6           0        0.881050    0.368603   -0.821022
      5          6           0        1.352984    0.916910   -2.162412
      6          8           0        2.687679    1.044930   -2.232351
      7          8           0        0.613849    1.192567   -3.074487
      8          6           0        1.502837   -1.026060   -0.473444
      9          6           0        2.750170   -0.984002    0.345617
     10          6           0        2.954757   -1.302893    1.667222
     11          7           0        4.272342   -1.142963    2.016204
     12          6           0        4.871464   -0.729085    0.924718
     13          7           0        4.000275   -0.620220   -0.121006
     14          6           0       -2.886826    0.230263   -0.114900
     15          6           0       -3.591916    0.733950    1.135936
     16          7           0       -5.067222    0.343000    1.148979
     17          1           0       -0.958841    0.515227   -1.832433
     18          1           0        1.169139    1.069382   -0.032035
     19          1           0        2.900231    1.400352   -3.110595
     20          1           0        0.757157   -1.552594    0.122314
     21          1           0        1.637482   -1.603869   -1.394496
     22          1           0        2.218980   -1.644174    2.379948
     23          1           0        5.921064   -0.495958    0.828579
     24          1           0        4.201210   -0.267765   -1.043120
     25          1           0       -3.168903   -0.808547   -0.326422
     26          1           0       -3.133211    0.829878   -0.994842
     27          1           0       -3.563371    1.819609    1.224985
     28          1           0       -3.133704    0.294837    2.021535
     29          1           0       -5.178013   -0.675308    1.118825
     30          1           0       -5.530304    0.678400    1.999364
     31          1           0       -5.572530    0.731296    0.347009
 ---------------------------------------------------------------------

 SCF Done:  E(RB3LYP) =  -796.674909460     A.U. after    1 cycles

 Alpha  occ. eigenvalues --  -19.29018 -19.23449 -19.22175 -14.63996 -14.46851
 Alpha  occ. eigenvalues --  -14.43342 -14.35106 -10.42802 -10.41480 -10.41479
 Alpha  occ. eigenvalues --  -10.35691 -10.34641 -10.28968 -10.28688 -10.27652
 Alpha  occ. eigenvalues --  -10.24765  -1.23729  -1.20520  -1.18043  -1.14885
 Alpha  occ. eigenvalues --   -1.08400  -1.06241  -0.96628  -0.94052  -0.90707
 Alpha  occ. eigenvalues --   -0.85162  -0.82960  -0.79054  -0.78518  -0.77190
 Alpha  occ. eigenvalues --   -0.74506  -0.71199  -0.69260  -0.68472  -0.66159
 Alpha  occ. eigenvalues --   -0.65390  -0.64277  -0.62587  -0.61082  -0.59724
 Alpha  occ. eigenvalues --   -0.59474  -0.57984  -0.57445  -0.55731  -0.54493
 Alpha  occ. eigenvalues --   -0.53637  -0.53120  -0.51442  -0.50229  -0.49115
 Alpha  occ. eigenvalues --   -0.48220  -0.48023  -0.47392  -0.44872  -0.40944
 Alpha  occ. eigenvalues --   -0.39819  -0.39470  -0.35057  -0.33290  -0.29901
 Alpha virt. eigenvalues --   -0.18827  -0.13252  -0.12146  -0.11878  -0.11285
 Alpha virt. eigenvalues --   -0.09983  -0.07146  -0.06817  -0.05919  -0.05141
 Alpha virt. eigenvalues --   -0.03959  -0.02249  -0.01516  -0.01128  -0.00799

 Mulliken charges:
               1
     1  O   -0.366256
     2  C    0.394503
     3  N   -0.415947
     4  C   -0.053898
     5  C    0.391181
     6  O   -0.326788
     7  O   -0.329616
     8  C   -0.189791
     9  C    0.083501
    10  C   -0.052338
    11  N   -0.286825
    12  C    0.158790
    13  N   -0.366967
    14  C   -0.287340
    15  C   -0.134572
    16  N   -0.331848
    17  H    0.247478
    18  H    0.193251
    19  H    0.282587
    20  H    0.152600
    21  H    0.140860
    22  H    0.100421
    23  H    0.120412
    24  H    0.231444
    25  H    0.160455
    26  H    0.159141
    27  H    0.192307
    28  H    0.214795
    29  H    0.304265
    30  H    0.311647
    31  H    0.302547
 Sum of Mulliken charges =   1.00000

 Dipole moment (field-independent basis, Debye):
    X=            -19.4974    Y=              2.9214    Z=             -1.6172  Tot=             19.7813
 Quadrupole moment (field-independent basis, Debye-Ang):
   XX=             29.5198   YY=            -89.0123   ZZ=            -89.3605
   XY=              0.1236   XZ=            -44.3910   YZ=              3.0769

  Exact polarizability: 172.180  -2.473  88.359   0.502 -14.217 131.693
 Approx polarizability: 215.545   4.003 134.488  10.361 -20.955 218.207

                      1                      2                      3
                      A                      A                      A
 Frequencies --     27.4415                32.6297                39.2366
 Red. masses --      4.5532                 3.8494                 4.2048
 Frc consts  --      0.0020                 0.0024                 0.0038
 IR Inten    --      6.3176                 8.7698                10.6760

                      4                      5                      6
                      A                      A                      A
 Frequencies --     45.5186                63.8509                75.8996
 Red. masses --      2.2784                 5.9577                 7.6298
 Frc consts  --      0.0028                 0.0143                 0.0259
 IR Inten    --      6.8141                 1.4844                 9.9645

                      7                      8                      9
                      A                      A                      A
 Frequencies --     92.2158               114.1751               125.3168
 Red. masses --      3.5861                 4.6684                 4.9583
 Frc consts  --      0.0180                 0.0359                 0.0459
 IR Inten    --      1.5791                 9.2357                 4.0331

                     10                     11                     12
                      A                      A                      A
 Frequencies --    187.1378               217.6298               241.7710
 Red. masses --      4.9107                 1.9205                 1.6748
 Frc consts  --      0.1013                 0.0536                 0.0577
 IR Inten    --      2.5275                10.4029                 2.2409

                     13                     14                     15
                      A                      A                      A
 Frequencies --    269.5450               306.1014               329.7797
 Red. masses --      4.9129                 2.8534                 3.4561
 Frc consts  --      0.2103                 0.1575                 0.2215
 IR Inten    --     19.5748                 2.5041                 2.4322

                     16                     17                     18
                      A                      A                      A
 Frequencies --    346.3610               376.3639               384.6889
 Red. masses --      6.3538                 3.8052                 3.8764
 Frc consts  --      0.4491                 0.3176                 0.3380
 IR Inten    --     11.3783                 1.9791                17.2767

                     19                     20                     21
                      A                      A                      A
 Frequencies --    532.0543               544.6763               557.6773
 Red. masses --      2.3915                 1.5294                 2.1336
 Frc consts  --      0.3989                 0.2673                 0.3910
 IR Inten    --     45.6536                93.7042                 7.1642

                     22                     23                     24
                      A                      A                      A
 Frequencies --    597.5000               639.6626               648.3694
 Red. masses --      1.8373                 2.5742                 1.8511
 Frc consts  --      0.3865                 0.6206                 0.4585
 IR Inten    --     35.7569                45.6818                16.2531

                     25                     26                     27
                      A                      A                      A
 Frequencies --    667.0249               680.8801               710.3260
 Red. masses --      2.0685                 2.7165                 3.6805
 Frc consts  --      0.5422                 0.7420                 1.0941
 IR Inten    --     88.9882                 2.4256                 2.8345

                     28                     29                     30
                      A                      A                      A
 Frequencies --    737.7970               767.9457               799.3938
 Red. masses --      3.0582                 3.2486                 1.4698
 Frc consts  --      0.9808                 1.1288                 0.5534
 IR Inten    --     30.9070                 8.6562                12.6699

                     31                     32                     33
                      A                      A                      A
 Frequencies --    817.5949               829.9874               858.8268
 Red. masses --      2.5924                 1.4022                 1.4337
 Frc consts  --      1.0210                 0.5691                 0.6230
 IR Inten    --     14.4715                21.2538                16.2545

                     34                     35                     36
                      A                      A                      A
 Frequencies --    883.7055               918.8865               922.8434
 Red. masses --      2.6115                 1.3553                 3.3589
 Frc consts  --      1.2016                 0.6742                 1.6854
 IR Inten    --     30.9432                 5.7172                23.7835

                     37                     38                     39
                      A                      A                      A
 Frequencies --    935.0750               980.8787              1004.1731
 Red. masses --      5.7275                 2.1889                 4.7706
 Frc consts  --      2.9506                 1.2408                 2.8343
 IR Inten    --     12.9102                16.5105                 2.0097

                     40                     41                     42
                      A                      A                      A
 Frequencies --   1009.3841              1027.6797              1080.8388
 Red. masses --      2.9971                 3.6520                 2.2159
 Frc consts  --      1.7991                 2.2725                 1.5252
 IR Inten    --     38.2612                14.1564                42.0887

                     43                     44                     45
                      A                      A                      A
 Frequencies --   1105.9393              1111.0146              1142.0898
 Red. masses --      1.9363                 1.6288                 2.1982
 Frc consts  --      1.3954                 1.1846                 1.6893
 IR Inten    --     35.4141                36.2547                 3.2744

                     46                     47                     48
                      A                      A                      A
 Frequencies --   1150.6519              1187.6578              1194.4990
 Red. masses --      2.0141                 1.3387                 2.5375
 Frc consts  --      1.5712                 1.1126                 2.1332
 IR Inten    --     21.4181                 1.1357               190.0968

                     49                     50                     51
                      A                      A                      A
 Frequencies --   1238.3373              1265.4084              1274.4151
 Red. masses --      1.6128                 2.3976                 1.4186
 Frc consts  --      1.4572                 2.2620                 1.3575
 IR Inten    --     19.4966                 7.9952                 6.4892

                     52                     53                     54
                      A                      A                      A
 Frequencies --   1285.7119              1306.1218              1317.0123
 Red. masses --      1.2904                 1.3507                 1.2250
 Frc consts  --      1.2568                 1.3576                 1.2519
 IR Inten    --      1.0882                 7.1555                 5.7782

                     55                     56                     57
                      A                      A                      A
 Frequencies --   1328.5928              1353.3832              1359.0769
 Red. masses --      1.2899                 1.3389                 1.4895
 Frc consts  --      1.3415                 1.4449                 1.6210
 IR Inten    --     16.1739                 9.5410                30.4100

                     58                     59                     60
                      A                      A                      A
 Frequencies --   1390.1406              1406.0058              1416.5976
 Red. masses --      3.2802                 1.3325                 2.4369
 Frc consts  --      3.7348                 1.5521                 2.8813
 IR Inten    --     52.1257                24.7606                83.3853

                     61                     62                     63
                      A                      A                      A
 Frequencies --   1433.0535              1475.1180              1479.0013
 Red. masses --      2.7720                 1.1505                 1.1130
 Frc consts  --      3.3540                 1.4750                 1.4345
 IR Inten    --     30.1576                21.7628                 1.6149

                     64                     65                     66
                      A                      A                      A
 Frequencies --   1498.8284              1508.7056              1517.4962
 Red. masses --      3.3469                 1.0724                 1.1790
 Frc consts  --      4.4300                 1.4381                 1.5996
 IR Inten    --     25.1285                18.8093               192.1398

                     67                     68                     69
                      A                      A                      A
 Frequencies --   1541.9747              1603.8057              1665.2506
 Red. masses --      2.2128                 4.2944                 1.0425
 Frc consts  --      3.0999                 6.5081                 1.7033
 IR Inten    --    295.8216                 4.4931                47.4581

                     70                     71                     72
                      A                      A                      A
 Frequencies --   1668.7072              1758.9340              1815.2053
 Red. masses --      1.0435                 9.9487                 9.5957
 Frc consts  --      1.7120                18.1349                18.6286
 IR Inten    --     38.9384               261.7280               285.2051

                     73                     74                     75
                      A                      A                      A
 Frequencies --   3023.5070              3028.4144              3060.7564
 Red. masses --      1.0642                 1.0703                 1.0833
 Frc consts  --      5.7318                 5.7835                 5.9794
 IR Inten    --      4.2690                22.2454                 6.4531

                     76                     77                     78
                      A                      A                      A
 Frequencies --   3083.4547              3094.2949              3110.2963
 Red. masses --      1.0995                 1.0593                 1.0933
 Frc consts  --      6.1591                 5.9760                 6.2316
 IR Inten    --      5.7462                 6.1634                 4.3781

                     79                     80                     81
                      A                      A                      A
 Frequencies --   3153.5795              3231.9366              3242.4074
 Red. masses --      1.1119                 1.0963                 1.0982
 Frc consts  --      6.5149                 6.7469                 6.8023
 IR Inten    --      3.8609                 5.7440                 0.6174

                     82                     83                     84
                      A                      A                      A
 Frequencies --   3397.3023              3474.7023              3477.3659
 Red. masses --      1.0300                 1.0931                 1.0934
 Frc consts  --      7.0043                 7.7760                 7.7899
 IR Inten    --     53.6346                90.3413                87.1459

                     85                     86                     87
                      A                      A                      A
 Frequencies --   3556.5099              3656.6490              3735.3308
 Red. masses --      1.0782                 1.0810                 1.0644
 Frc consts  --      8.0349                 8.5160                 8.7505
 IR Inten    --    112.7897                78.2837               119.9359

 - Thermochemistry -
 -------------------
 Temperature   298.150 Kelvin.  Pressure   1.00000 Atm.
 Atom     1 has atomic number  8 and mass  15.99491

 Molecular mass:   227.11442 amu.
 Principal axes and moments of inertia in atomic units:
                           1         2         3
     Eigenvalues --  2214.576337125.987119051.01257
           X            0.98913  -0.00754   0.14683
           Y           -0.13862  -0.38054   0.91432
           Z           -0.04898   0.92473   0.37745
 This molecule is an asymmetric top.
 Rotational symmetry number  1.
 Warning -- assumption of classical behavior for rotation
           may cause significant error
 Rotational temperatures (Kelvin)      0.03911     0.01215     0.00957
 Rotational constants (GHZ):           0.81494     0.25326     0.19940
 Zero-point vibrational energy     679204.3 (Joules/Mol)
                                  162.33372 (Kcal/Mol)
 Warning -- explicit consideration of  22 degrees of freedom as
           vibrations may cause significant error
 Vibrational temperatures:     39.48    46.95    56.45    65.49    91.87
          (Kelvin)            109.20   132.68   164.27   180.30   269.25
                              313.12   347.85   387.81   440.41   474.48
                              498.34   541.50   553.48   765.51   783.67
                              802.37   859.67   920.33   932.86   959.70
                              979.63  1022.00  1061.52  1104.90  1150.15
                             1176.34  1194.17  1235.66  1271.45  1322.07
                             1327.76  1345.36  1411.26  1444.78  1452.28
                             1478.60  1555.08  1591.20  1598.50  1643.21
                             1655.53  1708.77  1718.62  1781.69  1820.64
                             1833.60  1849.85  1879.22  1894.88  1911.55
                             1947.21  1955.41  2000.10  2022.93  2038.17
                             2061.84  2122.36  2127.95  2156.48  2170.69
                             2183.34  2218.55  2307.52  2395.92  2400.89
                             2530.71  2611.67  4350.15  4357.21  4403.74
                             4436.40  4451.99  4475.02  4537.29  4650.03
                             4665.10  4887.95  4999.32  5003.15  5117.02
                             5261.10  5374.30

 Zero-point correction=                           0.258695 (Hartree/Particle)
 Thermal correction to Energy=                    0.275122
 Thermal correction to Enthalpy=                  0.276066
 Thermal correction to Gibbs Free Energy=         0.211487
 Sum of electronic and zero-point Energies=           -796.416214
 Sum of electronic and thermal Energies=              -796.399787
 Sum of electronic and thermal Enthalpies=            -796.398843
 Sum of electronic and thermal Free Energies=         -796.463422

                     E (Thermal)             CV                S
                      KCal/Mol        Cal/Mol-Kelvin    Cal/Mol-Kelvin
 Total                  172.642             59.074            135.918
 Electronic               0.000              0.000              0.000
 Translational            0.889              2.981             42.163
 Rotational               0.889              2.981             33.324
 Vibrational            170.864             53.112             60.431
 Vibration     1          0.593              1.984              6.006
 Vibration     2          0.594              1.983              5.663
 Vibration     3          0.594              1.981              5.297
 Vibration     4          0.595              1.979              5.003
 Vibration     5          0.597              1.972              4.334
 Vibration     6          0.599              1.965              3.994
 Vibration     7          0.602              1.955              3.613
 Vibration     8          0.607              1.938              3.197
 Vibration     9          0.610              1.928              3.017
 Vibration    10          0.632              1.857              2.256
 Vibration    11          0.646              1.814              1.979
 Vibration    12          0.658              1.776              1.790
 Vibration    13          0.674              1.729              1.599
 Vibration    14          0.696              1.662              1.383
 Vibration    15          0.713              1.616              1.261
 Vibration    16          0.724              1.583              1.183
 Vibration    17          0.747              1.520              1.054
 Vibration    18          0.754              1.503              1.021
 Vibration    19          0.887              1.179              0.583
 Vibration    20          0.900              1.151              0.555
 Vibration    21          0.913              1.123              0.528
 Vibration    22          0.955              1.037              0.454

 Optimization completed.
    -- Stationary point found.
 Normal termination of Gaussian 09 at Wed Jul 28 23:28:16 2021.
