 Gaussian 09, Revision D.01,
 Gaussian 09:  ES64L-G09RevD.01 24-Apr-2013

 ----------------------------------------------------------------------
 # B3LYP/6-311G(d,p) opt=calcfc freq=noraman nosymm integral(ultrafineg
 rid)
 ----------------------------------------------------------------------

 ------------------------------------------------------------
 Candidate Structure: Conf:580 OPT and FREQ calc in gas phase
 ------------------------------------------------------------
 Symbolic Z-matrix:
 Charge =  1 Multiplicity = 1

 SCF Done:  E(RB3LYP) =  -796.667463435     A.U. after   17 cycles
 SCF Done:  E(RB3LYP) =  -796.673407022     A.U. after   14 cycles
 SCF Done:  E(RB3LYP) =  -796.673990652     A.U. after   14 cycles
 SCF Done:  E(RB3LYP) =  -796.674537154     A.U. after   14 cycles
 SCF Done:  E(RB3LYP) =  -796.674685059     A.U. after   12 cycles
 SCF Done:  E(RB3LYP) =  -796.674822070     A.U. after   11 cycles
 SCF Done:  E(RB3LYP) =  -796.674851088     A.U. after   10 cycles
 SCF Done:  E(RB3LYP) =  -796.674883476     A.U. after   11 cycles
 SCF Done:  E(RB3LYP) =  -796.674927554     A.U. after   11 cycles
 SCF Done:  E(RB3LYP) =  -796.674959841     A.U. after   10 cycles
 SCF Done:  E(RB3LYP) =  -796.674970453     A.U. after   10 cycles
 SCF Done:  E(RB3LYP) =  -796.674974320     A.U. after   10 cycles
 SCF Done:  E(RB3LYP) =  -796.674974651     A.U. after    9 cycles
 SCF Done:  E(RB3LYP) =  -796.674974693     A.U. after    7 cycles
 Optimization completed.
    -- Stationary point found.
 Normal termination of Gaussian 09 at Wed Jul 28 23:03:54 2021.

 ----------------------------------------------------------------------
 #N Geom=AllCheck Guess=TCheck SCRF=Check GenChk RB3LYP/6-311G(d,p) Fre
 q
 ----------------------------------------------------------------------

 Structure from the checkpoint file:  "conf-580.chk"
 ------------------------------------------------------------
 Candidate Structure: Conf:580 OPT and FREQ calc in gas phase
 ------------------------------------------------------------
 Charge =  1 Multiplicity = 1

                          Input orientation:
 ---------------------------------------------------------------------
 Center     Atomic      Atomic             Coordinates (Angstroms)
 Number     Number       Type             X           Y           Z
 ---------------------------------------------------------------------
      1          8           0        1.319732    0.320544   -1.232368
      2          6           0        1.469127    0.332908   -0.019522
      3          7           0        0.472579    0.369798    0.878963
      4          6           0       -0.938577    0.385691    0.501189
      5          6           0       -1.685322    0.959129    1.699603
      6          8           0       -2.873047    1.455302    1.360710
      7          8           0       -1.238263    0.939720    2.821804
      8          6           0       -1.433284   -1.052396    0.140066
      9          6           0       -2.845883   -1.152912   -0.321875
     10          6           0       -3.971978   -1.650697    0.286456
     11          7           0       -5.071339   -1.522308   -0.526328
     12          6           0       -4.629644   -0.953974   -1.621573
     13          7           0       -3.286788   -0.704305   -1.555404
     14          6           0        2.894365    0.280512    0.580773
     15          6           0        3.850797    0.874864   -0.442025
     16          7           0        5.298069    0.488005   -0.148898
     17          1           0        0.646632    0.408347    1.876882
     18          1           0       -1.068725    1.042950   -0.359765
     19          1           0       -3.332295    1.736473    2.168504
     20          1           0       -1.306120   -1.685031    1.022241
     21          1           0       -0.745735   -1.424538   -0.626027
     22          1           0       -4.045958   -2.099668    1.265867
     23          1           0       -5.221286   -0.703581   -2.488998
     24          1           0       -2.719275   -0.307743   -2.288260
     25          1           0        3.127033   -0.776803    0.757973
     26          1           0        2.945561    0.800877    1.540559
     27          1           0        3.611411    0.501572   -1.436997
     28          1           0        3.823616    1.964118   -0.457333
     29          1           0        5.935650    0.884371   -0.846331
     30          1           0        5.601701    0.818608    0.771942
     31          1           0        5.417439   -0.529681   -0.164635
 ---------------------------------------------------------------------

 SCF Done:  E(RB3LYP) =  -796.674974693     A.U. after    1 cycles

 Alpha  occ. eigenvalues --  -19.27364 -19.22276 -19.22048 -14.64169 -14.46965
 Alpha  occ. eigenvalues --  -14.44004 -14.35507 -10.41695 -10.41647 -10.41470
 Alpha  occ. eigenvalues --  -10.35822 -10.34289 -10.29130 -10.29097 -10.28082
 Alpha  occ. eigenvalues --  -10.25150  -1.22284  -1.20692  -1.18082  -1.13538
 Alpha  occ. eigenvalues --   -1.08844  -1.06298  -0.96797  -0.94530  -0.90685
 Alpha  occ. eigenvalues --   -0.85359  -0.82854  -0.79222  -0.78626  -0.77396
 Alpha  occ. eigenvalues --   -0.73980  -0.71229  -0.69424  -0.68784  -0.66624
 Alpha  occ. eigenvalues --   -0.65429  -0.64110  -0.62086  -0.60701  -0.59700
 Alpha  occ. eigenvalues --   -0.58682  -0.58028  -0.57195  -0.55689  -0.54078
 Alpha  occ. eigenvalues --   -0.53538  -0.52636  -0.51137  -0.50621  -0.49687
 Alpha  occ. eigenvalues --   -0.48404  -0.47986  -0.47217  -0.43296  -0.40478
 Alpha  occ. eigenvalues --   -0.39665  -0.39210  -0.35498  -0.33657  -0.30190
 Alpha virt. eigenvalues --   -0.18991  -0.13367  -0.12322  -0.11806  -0.10443
 Alpha virt. eigenvalues --   -0.10073  -0.07280  -0.06294  -0.05520  -0.04670
 Alpha virt. eigenvalues --   -0.04356  -0.03922  -0.02066  -0.01876  -0.01029

 Mulliken charges:
               1
     1  O   -0.379695
     2  C    0.400298
     3  N   -0.413567
     4  C   -0.062348
     5  C    0.394520
     6  O   -0.286794
     7  O   -0.343836
     8  C   -0.181300
     9  C    0.084050
    10  C   -0.054095
    11  N   -0.284801
    12  C    0.162782
    13  N   -0.373858
    14  C   -0.286355
    15  C   -0.134200
    16  N   -0.332014
    17  H    0.248597
    18  H    0.171981
    19  H    0.276098
    20  H    0.139757
    21  H    0.152543
    22  H    0.103199
    23  H    0.122760
    24  H    0.231604
    25  H    0.160963
    26  H    0.159614
    27  H    0.212838
    28  H    0.192381
    29  H    0.311440
    30  H    0.303130
    31  H    0.304308
 Sum of Mulliken charges =   1.00000

 Dipole moment (field-independent basis, Debye):
    X=             21.9247    Y=              3.7040    Z=              0.0662  Tot=             22.2354
 Quadrupole moment (field-independent basis, Debye-Ang):
   XX=             19.2140   YY=            -88.5680   ZZ=            -85.2912
   XY=              0.4775   XZ=              1.9620   YZ=              0.1577

  Exact polarizability: 177.001   9.683  92.643   4.723  -1.836 125.232
 Approx polarizability: 219.936   7.147 139.754   5.459 -12.833 211.771

                      1                      2                      3
                      A                      A                      A
 Frequencies --     18.2084                31.0592                45.6065
 Red. masses --      5.3482                 4.1485                 2.2274
 Frc consts  --      0.0010                 0.0024                 0.0027
 IR Inten    --      0.8084                 4.4233                13.3852

                      4                      5                      6
                      A                      A                      A
 Frequencies --     54.0012                67.7361                72.7822
 Red. masses --      3.8421                 5.3226                 5.4903
 Frc consts  --      0.0066                 0.0144                 0.0171
 IR Inten    --      3.9157                 6.2301                 3.9843

                      7                      8                      9
                      A                      A                      A
 Frequencies --     75.2189               105.8657               117.5611
 Red. masses --      6.1491                 3.9492                 4.4143
 Frc consts  --      0.0205                 0.0261                 0.0359
 IR Inten    --      7.8617                 3.1001                 9.9928

                     10                     11                     12
                      A                      A                      A
 Frequencies --    178.6955               217.4971               240.7234
 Red. masses --      5.1720                 1.9867                 1.6044
 Frc consts  --      0.0973                 0.0554                 0.0548
 IR Inten    --      4.6386                10.0436                 2.1197

                     13                     14                     15
                      A                      A                      A
 Frequencies --    260.6737               320.6665               331.4434
 Red. masses --      5.1409                 6.3141                 2.1318
 Frc consts  --      0.2058                 0.3825                 0.1380
 IR Inten    --     12.5276                 7.2615                 4.3699

                     16                     17                     18
                      A                      A                      A
 Frequencies --    342.1352               367.3245               387.8106
 Red. masses --      6.5612                 3.7397                 3.8669
 Frc consts  --      0.4525                 0.2973                 0.3426
 IR Inten    --     13.6146                 5.9716                 6.9462

                     19                     20                     21
                      A                      A                      A
 Frequencies --    520.6179               532.5057               562.6529
 Red. masses --      1.4274                 3.5187                 1.9640
 Frc consts  --      0.2279                 0.5879                 0.3663
 IR Inten    --     65.5792                61.1534                19.4331

                     22                     23                     24
                      A                      A                      A
 Frequencies --    616.1597               631.5047               656.3673
 Red. masses --      1.2619                 4.3552                 1.5917
 Frc consts  --      0.2823                 1.0233                 0.4040
 IR Inten    --    107.6619                12.0914                36.2881

                     25                     26                     27
                      A                      A                      A
 Frequencies --    663.1654               678.4972               713.2952
 Red. masses --      2.5022                 3.0105                 3.5901
 Frc consts  --      0.6484                 0.8165                 1.0762
 IR Inten    --     32.2303                 8.5028                 1.6125

                     28                     29                     30
                      A                      A                      A
 Frequencies --    755.3716               767.1753               795.4325
 Red. masses --      3.5156                 3.4987                 1.4628
 Frc consts  --      1.1819                 1.2132                 0.5453
 IR Inten    --     19.4419                12.6068                16.0482

                     31                     32                     33
                      A                      A                      A
 Frequencies --    813.4712               829.2973               860.5740
 Red. masses --      2.2468                 1.4067                 1.4452
 Frc consts  --      0.8760                 0.5700                 0.6306
 IR Inten    --      8.4616                18.2781                17.3670

                     34                     35                     36
                      A                      A                      A
 Frequencies --    882.9859               918.9763               929.5875
 Red. masses --      2.6416                 1.3164                 4.0175
 Frc consts  --      1.2134                 0.6550                 2.0454
 IR Inten    --     34.9157                 3.9548                 5.6076

                     37                     38                     39
                      A                      A                      A
 Frequencies --    933.7156               983.1345               995.4094
 Red. masses --      5.1914                 2.1173                 3.7213
 Frc consts  --      2.6666                 1.2057                 2.1724
 IR Inten    --     29.3715                13.7306                22.7945

                     40                     41                     42
                      A                      A                      A
 Frequencies --   1017.9994              1030.9197              1080.2673
 Red. masses --      3.1445                 3.1845                 2.3600
 Frc consts  --      1.9200                 1.9941                 1.6226
 IR Inten    --     29.1263                 3.3838                32.0633

                     43                     44                     45
                      A                      A                      A
 Frequencies --   1104.6241              1106.9758              1143.4353
 Red. masses --      1.6723                 1.8934                 2.2989
 Frc consts  --      1.2022                 1.3670                 1.7709
 IR Inten    --     18.4417                28.6837                 9.3544

                     46                     47                     48
                      A                      A                      A
 Frequencies --   1149.3571              1170.1122              1199.9085
 Red. masses --      2.0151                 1.5252                 1.9731
 Frc consts  --      1.5684                 1.2304                 1.6738
 IR Inten    --     21.6166                35.6658               131.1804

                     49                     50                     51
                      A                      A                      A
 Frequencies --   1235.1023              1261.7969              1275.0025
 Red. masses --      1.5223                 2.4205                 1.3749
 Frc consts  --      1.3683                 2.2706                 1.3169
 IR Inten    --     13.3293                 8.9823                 4.4753

                     52                     53                     54
                      A                      A                      A
 Frequencies --   1287.5834              1297.4009              1324.4308
 Red. masses --      1.2891                 1.3480                 1.3169
 Frc consts  --      1.2591                 1.3369                 1.3610
 IR Inten    --      1.3639                 5.4400                20.6354

                     55                     56                     57
                      A                      A                      A
 Frequencies --   1329.1598              1351.6417              1361.0387
 Red. masses --      1.3772                 1.2824                 1.4032
 Frc consts  --      1.4335                 1.3804                 1.5315
 IR Inten    --      1.3005                 4.5747                21.4679

                     58                     59                     60
                      A                      A                      A
 Frequencies --   1387.3711              1405.6441              1431.4048
 Red. masses --      3.2339                 1.3274                 2.7296
 Frc consts  --      3.6675                 1.5453                 3.2952
 IR Inten    --      6.9406                23.7454                86.3945

                     61                     62                     63
                      A                      A                      A
 Frequencies --   1433.6475              1479.1593              1482.6252
 Red. masses --      2.8694                 1.1139                 1.1285
 Frc consts  --      3.4748                 1.4359                 1.4616
 IR Inten    --    114.6535                 1.4506                12.3846

                     64                     65                     66
                      A                      A                      A
 Frequencies --   1499.0615              1508.3411              1517.8608
 Red. masses --      3.5906                 1.0727                 1.1774
 Frc consts  --      4.7540                 1.4379                 1.5982
 IR Inten    --     29.5015                16.5249               185.1685

                     67                     68                     69
                      A                      A                      A
 Frequencies --   1545.8729              1609.5395              1665.1073
 Red. masses --      2.2835                 4.4466                 1.0425
 Frc consts  --      3.2152                 6.7870                 1.7029
 IR Inten    --    299.4587                 6.7263                48.2046

                     70                     71                     72
                      A                      A                      A
 Frequencies --   1668.8586              1752.6919              1810.3540
 Red. masses --      1.0436                10.1051                 9.7261
 Frc consts  --      1.7124                18.2895                18.7808
 IR Inten    --     39.6262               314.8356               269.3032

                     73                     74                     75
                      A                      A                      A
 Frequencies --   3023.6957              3035.8746              3081.4787
 Red. masses --      1.0640                 1.0618                 1.0970
 Frc consts  --      5.7316                 5.7658                 6.1370
 IR Inten    --      4.0919                16.0732                 4.8244

                     76                     77                     78
                      A                      A                      A
 Frequencies --   3083.4972              3095.3931              3098.4741
 Red. masses --      1.0996                 1.0595                 1.0898
 Frc consts  --      6.1600                 5.9810                 6.1646
 IR Inten    --      5.3880                 5.3982                 5.4458

                     79                     80                     81
                      A                      A                      A
 Frequencies --   3154.9593              3229.1389              3243.2750
 Red. masses --      1.1118                 1.0966                 1.0980
 Frc consts  --      6.5201                 6.7372                 6.8052
 IR Inten    --      3.3357                 5.1636                 0.7247

                     82                     83                     84
                      A                      A                      A
 Frequencies --   3397.1160              3474.7527              3476.7367
 Red. masses --      1.0300                 1.0931                 1.0934
 Frc consts  --      7.0036                 7.7763                 7.7871
 IR Inten    --     54.2695                89.8329                88.3685

                     85                     86                     87
                      A                      A                      A
 Frequencies --   3555.1601              3641.5935              3738.2681
 Red. masses --      1.0783                 1.0813                 1.0645
 Frc consts  --      8.0298                 8.4482                 8.7644
 IR Inten    --    108.0785                46.3521               106.6115

 - Thermochemistry -
 -------------------
 Temperature   298.150 Kelvin.  Pressure   1.00000 Atm.
 Atom     1 has atomic number  8 and mass  15.99491

 Molecular mass:   227.11442 amu.
 Principal axes and moments of inertia in atomic units:
                           1         2         3
     Eigenvalues --  1714.801578077.822209180.86519
           X            0.98370  -0.10945  -0.14269
           Y            0.17693   0.44700   0.87686
           Z            0.03220   0.88781  -0.45908
 This molecule is an asymmetric top.
 Rotational symmetry number  1.
 Warning -- assumption of classical behavior for rotation
           may cause significant error
 Rotational temperatures (Kelvin)      0.05051     0.01072     0.00943
 Rotational constants (GHZ):           1.05245     0.22342     0.19658
 Zero-point vibrational energy     679051.9 (Joules/Mol)
                                  162.29730 (Kcal/Mol)
 Warning -- explicit consideration of  22 degrees of freedom as
           vibrations may cause significant error
 Vibrational temperatures:     26.20    44.69    65.62    77.70    97.46
          (Kelvin)            104.72   108.22   152.32   169.14   257.10
                              312.93   346.35   375.05   461.37   476.87
                              492.26   528.50   557.97   749.05   766.16
                              809.53   886.52   908.59   944.37   954.15
                              976.20  1026.27  1086.81  1103.79  1144.45
                             1170.40  1193.17  1238.17  1270.42  1322.20
                             1337.47  1343.41  1414.51  1432.17  1464.67
                             1483.26  1554.26  1589.31  1592.69  1645.15
                             1653.67  1683.53  1726.40  1777.03  1815.44
                             1834.44  1852.54  1866.67  1905.56  1912.36
                             1944.71  1958.23  1996.12  2022.41  2059.47
                             2062.70  2128.18  2133.16  2156.81  2170.16
                             2183.86  2224.16  2315.77  2395.71  2401.11
                             2521.73  2604.69  4350.42  4367.94  4433.56
                             4436.46  4453.57  4458.01  4539.28  4646.00
                             4666.34  4887.69  4999.39  5002.24  5115.08
                             5239.43  5378.53

 Zero-point correction=                           0.258637 (Hartree/Particle)
 Thermal correction to Energy=                    0.275138
 Thermal correction to Enthalpy=                  0.276082
 Thermal correction to Gibbs Free Energy=         0.211069
 Sum of electronic and zero-point Energies=           -796.416337
 Sum of electronic and thermal Energies=              -796.399837
 Sum of electronic and thermal Enthalpies=            -796.398893
 Sum of electronic and thermal Free Energies=         -796.463906

                     E (Thermal)             CV                S
                      KCal/Mol        Cal/Mol-Kelvin    Cal/Mol-Kelvin
 Total                  172.652             59.101            136.832
 Electronic               0.000              0.000              0.000
 Translational            0.889              2.981             42.163
 Rotational               0.889              2.981             33.208
 Vibrational            170.874             53.140             61.461
 Vibration     1          0.593              1.986              6.821
 Vibration     2          0.594              1.983              5.761
 Vibration     3          0.595              1.979              4.999
 Vibration     4          0.596              1.976              4.665
 Vibration     5          0.598              1.970              4.218
 Vibration     6          0.599              1.967              4.077
 Vibration     7          0.599              1.966              4.012
 Vibration     8          0.605              1.945              3.343
 Vibration     9          0.608              1.935              3.140
 Vibration    10          0.629              1.869              2.342
 Vibration    11          0.646              1.814              1.980
 Vibration    12          0.658              1.778              1.798
 Vibration    13          0.669              1.745              1.657
 Vibration    14          0.706              1.634              1.307
 Vibration    15          0.714              1.613              1.253
 Vibration    16          0.721              1.591              1.202
 Vibration    17          0.740              1.539              1.091
 Vibration    18          0.756              1.496              1.009
 Vibration    19          0.876              1.204              0.609
 Vibration    20          0.887              1.178              0.582
 Vibration    21          0.918              1.112              0.519
 Vibration    22          0.976              0.998              0.423

 Optimization completed.
    -- Stationary point found.
 Normal termination of Gaussian 09 at Wed Jul 28 23:35:46 2021.
