 Gaussian 09, Revision D.01,
 Gaussian 09:  ES64L-G09RevD.01 24-Apr-2013

 ----------------------------------------------------------------------
 # B3LYP/6-311G(d,p) opt=calcfc freq=noraman nosymm integral(ultrafineg
 rid)
 ----------------------------------------------------------------------

 ------------------------------------------------------------
 Candidate Structure: Conf:715 OPT and FREQ calc in gas phase
 ------------------------------------------------------------
 Symbolic Z-matrix:
 Charge =  1 Multiplicity = 1

 SCF Done:  E(RB3LYP) =  -796.679774962     A.U. after   14 cycles
 SCF Done:  E(RB3LYP) =  -796.687848377     A.U. after   14 cycles
 SCF Done:  E(RB3LYP) =  -796.681990617     A.U. after   14 cycles
 SCF Done:  E(RB3LYP) =  -796.688544857     A.U. after   11 cycles
 SCF Done:  E(RB3LYP) =  -796.657593328     A.U. after   15 cycles
 SCF Done:  E(RB3LYP) =  -796.688753940     A.U. after   10 cycles
 SCF Done:  E(RB3LYP) =  -796.690700620     A.U. after   12 cycles
 SCF Done:  E(RB3LYP) =  -796.691512470     A.U. after   12 cycles
 SCF Done:  E(RB3LYP) =  -796.691769678     A.U. after   12 cycles
 SCF Done:  E(RB3LYP) =  -796.691877232     A.U. after   11 cycles
 SCF Done:  E(RB3LYP) =  -796.690925125     A.U. after   12 cycles
 SCF Done:  E(RB3LYP) =  -796.689208248     A.U. after   12 cycles
 SCF Done:  E(RB3LYP) =  -796.690976975     A.U. after   12 cycles
 SCF Done:  E(RB3LYP) =  -796.692245377     A.U. after    7 cycles
 SCF Done:  E(RB3LYP) =  -796.692328366     A.U. after   11 cycles
 SCF Done:  E(RB3LYP) =  -796.692359686     A.U. after   10 cycles
 SCF Done:  E(RB3LYP) =  -796.692361920     A.U. after    9 cycles
 SCF Done:  E(RB3LYP) =  -796.692362189     A.U. after    7 cycles
 SCF Done:  E(RB3LYP) =  -796.692362238     A.U. after    7 cycles
 Optimization completed.
    -- Stationary point found.
 Normal termination of Gaussian 09 at Thu Jul 29 03:08:26 2021.

 ----------------------------------------------------------------------
 #N Geom=AllCheck Guess=TCheck SCRF=Check GenChk RB3LYP/6-311G(d,p) Fre
 q
 ----------------------------------------------------------------------

 Structure from the checkpoint file:  "conf-715.chk"
 ------------------------------------------------------------
 Candidate Structure: Conf:715 OPT and FREQ calc in gas phase
 ------------------------------------------------------------
 Charge =  1 Multiplicity = 1

                          Input orientation:
 ---------------------------------------------------------------------
 Center     Atomic      Atomic             Coordinates (Angstroms)
 Number     Number       Type             X           Y           Z
 ---------------------------------------------------------------------
      1          8           0       -2.200588    1.136418   -0.287421
      2          6           0       -1.533861    0.347353    0.406427
      3          7           0       -0.228370    0.516029    0.627178
      4          6           0        0.559594    1.458178   -0.149812
      5          6           0        0.618688    0.970359   -1.615539
      6          8           0        1.204991    1.818106   -2.484380
      7          8           0        0.214219   -0.098309   -1.973534
      8          6           0        1.977750    1.586522    0.482015
      9          6           0        2.661724    0.274919    0.690213
     10          6           0        2.751970   -0.526543    1.807580
     11          7           0        3.429223   -1.687780    1.528544
     12          6           0        3.754681   -1.603845    0.261518
     13          7           0        3.311318   -0.439592   -0.300682
     14          6           0       -2.217957   -0.865400    1.029392
     15          6           0       -3.123191   -1.543617   -0.007768
     16          7           0       -4.119544   -0.535394   -0.542354
     17          1           0        0.300973   -0.222658    1.080622
     18          1           0        0.062862    2.432091   -0.130359
     19          1           0        1.403651    2.673326   -2.081522
     20          1           0        2.584314    2.257839   -0.132824
     21          1           0        1.864709    2.076933    1.451043
     22          1           0        2.400912   -0.305879    2.805760
     23          1           0        4.307586   -2.340927   -0.300676
     24          1           0        3.456698   -0.151395   -1.256981
     25          1           0       -1.498806   -1.601507    1.391982
     26          1           0       -2.803419   -0.532725    1.893402
     27          1           0       -3.663147   -2.391129    0.411441
     28          1           0       -2.537463   -1.880724   -0.863293
     29          1           0       -3.538989    0.370866   -0.623515
     30          1           0       -4.504868   -0.811795   -1.446101
     31          1           0       -4.895499   -0.379707    0.103255
 ---------------------------------------------------------------------

 SCF Done:  E(RB3LYP) =  -796.692362238     A.U. after    1 cycles

 Alpha  occ. eigenvalues --  -19.29267 -19.25776 -19.23289 -14.58140 -14.49382
 Alpha  occ. eigenvalues --  -14.47268 -14.38830 -10.44025 -10.43076 -10.40329
 Alpha  occ. eigenvalues --  -10.37009 -10.35670 -10.32584 -10.32378 -10.31791
 Alpha  occ. eigenvalues --  -10.28903  -1.23490  -1.21266  -1.15580  -1.15250
 Alpha  occ. eigenvalues --   -1.12240  -1.08964  -0.97874  -0.96085  -0.92910
 Alpha  occ. eigenvalues --   -0.86530  -0.83053  -0.79195  -0.76846  -0.75142
 Alpha  occ. eigenvalues --   -0.74601  -0.73320  -0.72028  -0.70137  -0.68481
 Alpha  occ. eigenvalues --   -0.67240  -0.65910  -0.64882  -0.61933  -0.60485
 Alpha  occ. eigenvalues --   -0.59104  -0.58484  -0.57085  -0.56809  -0.56571
 Alpha  occ. eigenvalues --   -0.56038  -0.55122  -0.53518  -0.52474  -0.51945
 Alpha  occ. eigenvalues --   -0.51382  -0.51172  -0.50630  -0.45083  -0.43719
 Alpha  occ. eigenvalues --   -0.42720  -0.40435  -0.38918  -0.36906  -0.34004
 Alpha virt. eigenvalues --   -0.15516  -0.14185  -0.12594  -0.10659  -0.09670
 Alpha virt. eigenvalues --   -0.09263  -0.07964  -0.07418  -0.05300  -0.05034
 Alpha virt. eigenvalues --   -0.04489  -0.03704  -0.02993  -0.02300  -0.01498

 Mulliken charges:
               1
     1  O   -0.444201
     2  C    0.444767
     3  N   -0.353463
     4  C   -0.159054
     5  C    0.415602
     6  O   -0.280181
     7  O   -0.311889
     8  C   -0.198531
     9  C    0.058017
    10  C   -0.088643
    11  N   -0.273430
    12  C    0.171368
    13  N   -0.360123
    14  C   -0.287817
    15  C   -0.152225
    16  N   -0.344419
    17  H    0.255790
    18  H    0.186355
    19  H    0.263075
    20  H    0.147439
    21  H    0.171432
    22  H    0.117573
    23  H    0.135907
    24  H    0.244473
    25  H    0.176775
    26  H    0.179624
    27  H    0.190926
    28  H    0.199826
    29  H    0.313947
    30  H    0.295988
    31  H    0.285094
 Sum of Mulliken charges =   1.00000

 Dipole moment (field-independent basis, Debye):
    X=            -10.4379    Y=              0.6330    Z=             -0.5877  Tot=             10.4735
 Quadrupole moment (field-independent basis, Debye-Ang):
   XX=            -22.6720   YY=            -78.9106   ZZ=            -92.5001
   XY=             23.1297   XZ=             -7.1977   YZ=              2.0524

  Exact polarizability: 144.399  -3.529 123.807   1.515  -8.673 115.414
 Approx polarizability: 183.535  -9.539 199.977  -0.158 -14.330 186.608

                      1                      2                      3
                      A                      A                      A
 Frequencies --     22.5228                26.7797                53.5263
 Red. masses --      4.3279                 5.9906                 5.7110
 Frc consts  --      0.0013                 0.0025                 0.0096
 IR Inten    --     10.5582                 6.9671                 3.7797

                      4                      5                      6
                      A                      A                      A
 Frequencies --     59.3112                67.6191                82.6870
 Red. masses --      4.9292                 4.4859                 4.5932
 Frc consts  --      0.0102                 0.0121                 0.0185
 IR Inten    --     15.9667                 6.4670                 6.5321

                      7                      8                      9
                      A                      A                      A
 Frequencies --    110.7677               130.2163               203.4090
 Red. masses --      7.3720                 4.3896                 4.5823
 Frc consts  --      0.0533                 0.0439                 0.1117
 IR Inten    --      4.7759                 5.2369                 4.1214

                     10                     11                     12
                      A                      A                      A
 Frequencies --    218.4113               241.0448               325.3348
 Red. masses --      2.5300                 5.1021                 4.0966
 Frc consts  --      0.0711                 0.1747                 0.2555
 IR Inten    --     25.9379                15.7431                15.1936

                     13                     14                     15
                      A                      A                      A
 Frequencies --    330.8737               341.1357               377.1087
 Red. masses --      3.6682                 2.6387                 2.6157
 Frc consts  --      0.2366                 0.1809                 0.2192
 IR Inten    --     10.1001                88.4569                31.4879

                     16                     17                     18
                      A                      A                      A
 Frequencies --    389.7556               451.2909               460.8557
 Red. masses --      1.2769                 2.9504                 1.9675
 Frc consts  --      0.1143                 0.3540                 0.2462
 IR Inten    --      1.8070                 6.9962               163.9941

                     19                     20                     21
                      A                      A                      A
 Frequencies --    507.2079               522.8605               564.4388
 Red. masses --      1.6899                 2.8320                 1.4885
 Frc consts  --      0.2561                 0.4562                 0.2794
 IR Inten    --     27.8241                 3.0796                53.1783

                     22                     23                     24
                      A                      A                      A
 Frequencies --    593.4745               633.5497               665.5547
 Red. masses --      3.4186                 3.8885                 1.7245
 Frc consts  --      0.7094                 0.9196                 0.4501
 IR Inten    --      5.6716                 3.6976                84.6018

                     25                     26                     27
                      A                      A                      A
 Frequencies --    672.7594               683.8235               695.0883
 Red. masses --      2.8679                 2.0336                 3.9869
 Frc consts  --      0.7648                 0.5603                 1.1349
 IR Inten    --      8.6495                13.6186                 7.2066

                     28                     29                     30
                      A                      A                      A
 Frequencies --    737.9735               771.9563               833.5448
 Red. masses --      3.4440                 5.2580                 2.5192
 Frc consts  --      1.1051                 1.8461                 1.0313
 IR Inten    --     17.5237                 2.3070                35.1684

                     31                     32                     33
                      A                      A                      A
 Frequencies --    848.1670               851.4769               866.9544
 Red. masses --      1.3779                 2.6423                 1.6312
 Frc consts  --      0.5840                 1.1287                 0.7223
 IR Inten    --     29.4222                 0.6108                 4.0580

                     34                     35                     36
                      A                      A                      A
 Frequencies --    887.3966               930.6710               940.6178
 Red. masses --      1.9955                 4.7706                 2.7883
 Frc consts  --      0.9258                 2.4346                 1.4535
 IR Inten    --     64.8704                16.2727                 5.9960

                     37                     38                     39
                      A                      A                      A
 Frequencies --    952.9375               960.9204               997.1042
 Red. masses --      1.3585                 2.8664                 3.1104
 Frc consts  --      0.7268                 1.5594                 1.8220
 IR Inten    --      5.1904                 3.2023                 3.6134

                     40                     41                     42
                      A                      A                      A
 Frequencies --   1010.5549              1039.5667              1106.1941
 Red. masses --      3.4904                 2.8469                 2.1539
 Frc consts  --      2.1001                 1.8127                 1.5529
 IR Inten    --     15.5438                 8.3225                12.1632

                     43                     44                     45
                      A                      A                      A
 Frequencies --   1110.0222              1127.7653              1135.7600
 Red. masses --      1.7552                 1.4606                 1.5044
 Frc consts  --      1.2742                 1.0945                 1.1434
 IR Inten    --     18.7388                82.0938                21.3331

                     46                     47                     48
                      A                      A                      A
 Frequencies --   1150.8909              1163.1876              1209.2201
 Red. masses --      1.9798                 1.9807                 1.6658
 Frc consts  --      1.5450                 1.5789                 1.4351
 IR Inten    --     20.2534                10.0466                42.7331

                     49                     50                     51
                      A                      A                      A
 Frequencies --   1235.6431              1262.6718              1265.9644
 Red. masses --      1.4545                 1.7168                 1.7896
 Frc consts  --      1.3085                 1.6127                 1.6898
 IR Inten    --     35.6973                55.7736                11.6291

                     52                     53                     54
                      A                      A                      A
 Frequencies --   1280.8222              1290.1292              1316.2019
 Red. masses --      1.5625                 1.3590                 1.6472
 Frc consts  --      1.5102                 1.3327                 1.6812
 IR Inten    --    208.5466                77.7167                46.8145

                     55                     56                     57
                      A                      A                      A
 Frequencies --   1330.5897              1365.7555              1378.0548
 Red. masses --      1.2671                 1.5169                 1.6242
 Frc consts  --      1.3217                 1.6670                 1.8172
 IR Inten    --     47.6599                13.7360                32.8945

                     58                     59                     60
                      A                      A                      A
 Frequencies --   1391.1445              1402.3134              1410.3671
 Red. masses --      2.6922                 1.3896                 1.4695
 Frc consts  --      3.0697                 1.6100                 1.7222
 IR Inten    --     17.9319                63.2717                51.8504

                     61                     62                     63
                      A                      A                      A
 Frequencies --   1431.9558              1471.5196              1472.4984
 Red. masses --      2.6515                 1.0948                 1.2785
 Frc consts  --      3.2033                 1.3967                 1.6332
 IR Inten    --     29.5857                19.0508               672.8157

                     64                     65                     66
                      A                      A                      A
 Frequencies --   1480.2596              1499.4681              1510.5930
 Red. masses --      1.1768                 3.1866                 1.0749
 Frc consts  --      1.5193                 4.2214                 1.4452
 IR Inten    --      7.6068                23.0603                57.1610

                     67                     68                     69
                      A                      A                      A
 Frequencies --   1573.5951              1599.9368              1632.3025
 Red. masses --      2.3193                 4.0506                 1.1466
 Frc consts  --      3.3838                 6.1091                 1.8000
 IR Inten    --    256.2299                10.0511                 6.0620

                     70                     71                     72
                      A                      A                      A
 Frequencies --   1678.7570              1702.4051              1853.7714
 Red. masses --      1.0471                 3.4899                10.6510
 Frc consts  --      1.7387                 5.9593                21.5651
 IR Inten    --     29.3611               203.9559               195.8919

                     73                     74                     75
                      A                      A                      A
 Frequencies --   2582.8948              3045.5721              3047.9837
 Red. masses --      1.0911                 1.0671                 1.0653
 Frc consts  --      4.2887                 5.8318                 5.8309
 IR Inten    --   1023.9037                 1.1452                14.6293

                     76                     77                     78
                      A                      A                      A
 Frequencies --   3067.3253              3089.5601              3096.8273
 Red. masses --      1.0842                 1.0613                 1.0999
 Frc consts  --      6.0099                 5.9689                 6.2147
 IR Inten    --      8.1668                 1.2748                 3.8599

                     79                     80                     81
                      A                      A                      A
 Frequencies --   3110.4948              3147.4927              3220.7745
 Red. masses --      1.0967                 1.1118                 1.0966
 Frc consts  --      6.2518                 6.4896                 6.7021
 IR Inten    --      0.9716                 0.4745                 3.6938

                     82                     83                     84
                      A                      A                      A
 Frequencies --   3247.3358              3457.4710              3512.5811
 Red. masses --      1.0985                 1.0521                 1.0789
 Frc consts  --      6.8250                 7.4101                 7.8428
 IR Inten    --      0.9823                88.3302               211.2026

                     85                     86                     87
                      A                      A                      A
 Frequencies --   3521.7694              3631.0846              3792.0068
 Red. masses --      1.0947                 1.0818                 1.0664
 Frc consts  --      7.9996                 8.4040                 9.0347
 IR Inten    --     72.9352                65.0240                64.0138

 - Thermochemistry -
 -------------------
 Temperature   298.150 Kelvin.  Pressure   1.00000 Atm.
 Atom     1 has atomic number  8 and mass  15.99491

 Molecular mass:   227.11442 amu.
 Principal axes and moments of inertia in atomic units:
                           1         2         3
     Eigenvalues --  2208.816055555.398546534.93685
           X            0.99393  -0.09364  -0.05779
           Y           -0.02379  -0.69561   0.71802
           Z            0.10744   0.71229   0.69362
 This molecule is an asymmetric top.
 Rotational symmetry number  1.
 Warning -- assumption of classical behavior for rotation
           may cause significant error
 Rotational temperatures (Kelvin)      0.03921     0.01559     0.01325
 Rotational constants (GHZ):           0.81706     0.32486     0.27617
 Zero-point vibrational energy     678714.4 (Joules/Mol)
                                  162.21663 (Kcal/Mol)
 Warning -- explicit consideration of  22 degrees of freedom as
           vibrations may cause significant error
 Vibrational temperatures:     32.41    38.53    77.01    85.34    97.29
          (Kelvin)            118.97   159.37   187.35   292.66   314.24
                              346.81   468.08   476.05   490.82   542.57
                              560.77   649.31   663.07   729.76   752.28
                              812.10   853.88   911.54   957.58   967.95
                              983.87  1000.08  1061.78  1110.67  1199.28
                             1220.32  1225.08  1247.35  1276.76  1339.03
                             1353.34  1371.06  1382.55  1434.61  1453.96
                             1495.70  1591.56  1597.07  1622.60  1634.10
                             1655.87  1673.57  1739.80  1777.81  1816.70
                             1821.44  1842.82  1856.21  1893.72  1914.42
                             1965.02  1982.71  2001.54  2017.61  2029.20
                             2060.26  2117.19  2118.59  2129.76  2157.40
                             2173.40  2264.05  2301.95  2348.52  2415.35
                             2449.38  2667.16  3716.20  4381.89  4385.36
                             4413.19  4445.18  4455.64  4475.30  4528.53
                             4633.97  4672.19  4974.52  5053.81  5067.03
                             5224.31  5455.85

 Zero-point correction=                           0.258509 (Hartree/Particle)
 Thermal correction to Energy=                    0.274128
 Thermal correction to Enthalpy=                  0.275072
 Thermal correction to Gibbs Free Energy=         0.212936
 Sum of electronic and zero-point Energies=           -796.433854
 Sum of electronic and thermal Energies=              -796.418234
 Sum of electronic and thermal Enthalpies=            -796.417290
 Sum of electronic and thermal Free Energies=         -796.479426

                     E (Thermal)             CV                S
                      KCal/Mol        Cal/Mol-Kelvin    Cal/Mol-Kelvin
 Total                  172.018             57.885            130.776
 Electronic               0.000              0.000              0.000
 Translational            0.889              2.981             42.163
 Rotational               0.889              2.981             32.750
 Vibrational            170.240             51.924             55.863
 Vibration     1          0.593              1.985              6.398
 Vibration     2          0.593              1.984              6.055
 Vibration     3          0.596              1.976              4.683
 Vibration     4          0.597              1.974              4.480
 Vibration     5          0.598              1.970              4.221
 Vibration     6          0.600              1.961              3.826
 Vibration     7          0.607              1.941              3.255
 Vibration     8          0.612              1.923              2.943
 Vibration     9          0.639              1.835              2.102
 Vibration    10          0.646              1.813              1.972
 Vibration    11          0.658              1.778              1.795
 Vibration    12          0.709              1.625              1.283
 Vibration    13          0.713              1.614              1.256
 Vibration    14          0.721              1.593              1.207
 Vibration    15          0.748              1.519              1.051
 Vibration    16          0.758              1.492              1.001
 Vibration    17          0.810              1.358              0.792
 Vibration    18          0.819              1.337              0.764
 Vibration    19          0.862              1.234              0.640
 Vibration    20          0.878              1.199              0.603
 Vibration    21          0.920              1.108              0.515
 Vibration    22          0.951              1.046              0.461

 Normal termination of Gaussian 09 at Thu Jul 29 03:43:18 2021.
