 Gaussian 09, Revision D.01,
 Gaussian 09:  ES64L-G09RevD.01 24-Apr-2013

 ----------------------------------------------------------------------
 # B3LYP/6-31G(d,p) EmpiricalDispersion=GD3BJ opt=calcfc freq=noraman n
 osymm integral(ultrafinegrid)
 ----------------------------------------------------------------------

 ------------------------------------------------------------
 Candidate Structure: Conf:342 OPT and FREQ calc in gas phase
 ------------------------------------------------------------
 Symbolic Z-matrix:
 Charge =  1 Multiplicity = 1

 SCF Done:  E(RB3LYP) =  -796.523334121     A.U. after   17 cycles
 SCF Done:  E(RB3LYP) =  -796.529505653     A.U. after   12 cycles
 SCF Done:  E(RB3LYP) =  -796.530499556     A.U. after   13 cycles
 SCF Done:  E(RB3LYP) =  -796.531013260     A.U. after   12 cycles
 SCF Done:  E(RB3LYP) =  -796.531450626     A.U. after   11 cycles
 SCF Done:  E(RB3LYP) =  -796.532211510     A.U. after   12 cycles
 SCF Done:  E(RB3LYP) =  -796.532383017     A.U. after   12 cycles
 SCF Done:  E(RB3LYP) =  -796.532575009     A.U. after   11 cycles
 SCF Done:  E(RB3LYP) =  -796.532588469     A.U. after   10 cycles
 SCF Done:  E(RB3LYP) =  -796.532592351     A.U. after    9 cycles
 SCF Done:  E(RB3LYP) =  -796.532593427     A.U. after    8 cycles
 SCF Done:  E(RB3LYP) =  -796.532593579     A.U. after    9 cycles
 SCF Done:  E(RB3LYP) =  -796.532593627     A.U. after    7 cycles
 Optimization completed.
    -- Stationary point found.
 Normal termination of Gaussian 09 at Sat Jul 24 01:14:33 2021.

 ----------------------------------------------------------------------
 #N Geom=AllCheck Guess=TCheck SCRF=Check GenChk RB3LYP/6-31G(d,p) Freq
 ----------------------------------------------------------------------

 Structure from the checkpoint file:  "conf-342.chk"
 ------------------------------------------------------------
 Candidate Structure: Conf:342 OPT and FREQ calc in gas phase
 ------------------------------------------------------------
 Charge =  1 Multiplicity = 1

                          Input orientation:
 ---------------------------------------------------------------------
 Center     Atomic      Atomic             Coordinates (Angstroms)
 Number     Number       Type             X           Y           Z
 ---------------------------------------------------------------------
      1          8           0        1.030589   -1.195782    0.145680
      2          6           0        1.398856   -0.077861   -0.213915
      3          7           0        0.575179    0.930242   -0.536513
      4          6           0       -0.861396    0.740413   -0.639541
      5          6           0       -1.385511    1.938939   -1.447475
      6          8           0       -2.699140    2.005467   -1.639972
      7          8           0       -0.626317    2.778896   -1.881497
      8          6           0       -1.544810    0.607554    0.751578
      9          6           0       -2.899971   -0.009836    0.658876
     10          6           0       -4.181065    0.504776    0.710541
     11          7           0       -5.117927   -0.489406    0.529504
     12          6           0       -4.427642   -1.595661    0.368399
     13          7           0       -3.079294   -1.364231    0.428282
     14          6           0        2.903767    0.238587   -0.328013
     15          6           0        3.642149   -0.700410    0.612025
     16          7           0        5.138525   -0.708905    0.317789
     17          1           0        0.900270    1.801513   -0.950637
     18          1           0       -1.058857   -0.178052   -1.206243
     19          1           0       -3.178078    1.304219   -1.150939
     20          1           0       -1.613984    1.590539    1.225436
     21          1           0       -0.892680   -0.012026    1.373267
     22          1           0       -4.472852    1.529511    0.899235
     23          1           0       -4.839064   -2.581653    0.204231
     24          1           0       -2.343389   -2.053242    0.366461
     25          1           0        3.106150    1.290206   -0.102297
     26          1           0        3.200304    0.055307   -1.369712
     27          1           0        3.275942   -1.719842    0.487535
     28          1           0        3.536998   -0.412608    1.659145
     29          1           0        5.322055   -1.008261   -0.646312
     30          1           0        5.551782    0.222947    0.432502
     31          1           0        5.639137   -1.350400    0.942569
 ---------------------------------------------------------------------

 SCF Done:  E(RB3LYP) =  -796.532593627     A.U. after    1 cycles

 Alpha  occ. eigenvalues --  -19.28919 -19.25602 -19.23964 -14.66886 -14.49142
 Alpha  occ. eigenvalues --  -14.48336 -14.39879 -10.43513 -10.43395 -10.42437
 Alpha  occ. eigenvalues --  -10.37486 -10.35869 -10.32892 -10.31950 -10.31421
 Alpha  occ. eigenvalues --  -10.29154  -1.20793  -1.20255  -1.17504  -1.12236
 Alpha  occ. eigenvalues --   -1.10394  -1.05874  -0.96774  -0.96066  -0.90927
 Alpha  occ. eigenvalues --   -0.85782  -0.82929  -0.79176  -0.78771  -0.77289
 Alpha  occ. eigenvalues --   -0.72619  -0.70739  -0.70179  -0.69360  -0.68198
 Alpha  occ. eigenvalues --   -0.66894  -0.64707  -0.63243  -0.60363  -0.59754
 Alpha  occ. eigenvalues --   -0.58009  -0.57000  -0.56323  -0.54577  -0.54222
 Alpha  occ. eigenvalues --   -0.53465  -0.52542  -0.51321  -0.50286  -0.50084
 Alpha  occ. eigenvalues --   -0.49560  -0.48306  -0.46898  -0.41458  -0.39863
 Alpha  occ. eigenvalues --   -0.39159  -0.38024  -0.36937  -0.35033  -0.32127
 Alpha virt. eigenvalues --   -0.17039  -0.12258  -0.10152  -0.09988  -0.09309
 Alpha virt. eigenvalues --   -0.07229  -0.06910  -0.03994  -0.03450  -0.02577
 Alpha virt. eigenvalues --   -0.01700  -0.01174   0.01002   0.01697   0.02131

 Mulliken charges:
               1
     1  O   -0.528744
     2  C    0.624842
     3  N   -0.535888
     4  C   -0.030320
     5  C    0.616135
     6  O   -0.465416
     7  O   -0.459270
     8  C   -0.249063
     9  C    0.225125
    10  C   -0.032718
    11  N   -0.414035
    12  C    0.274698
    13  N   -0.520715
    14  C   -0.309517
    15  C   -0.127615
    16  N   -0.546915
    17  H    0.296984
    18  H    0.156040
    19  H    0.334111
    20  H    0.146708
    21  H    0.147570
    22  H    0.127371
    23  H    0.141065
    24  H    0.279319
    25  H    0.155453
    26  H    0.163686
    27  H    0.221346
    28  H    0.198183
    29  H    0.368342
    30  H    0.368803
    31  H    0.374437
 Sum of Mulliken charges =   1.00000

 Dipole moment (field-independent basis, Debye):
    X=             21.7059    Y=             -4.5859    Z=              2.2549  Tot=             22.2994
 Quadrupole moment (field-independent basis, Debye-Ang):
   XX=             14.0552   YY=            -88.4749   ZZ=            -92.0007
   XY=             -5.6426   XZ=              5.6615   YZ=              6.8032

  Exact polarizability: 168.083   3.286 121.851  -2.106 -10.371  83.954
 Approx polarizability: 217.637   6.012 203.458  -3.570 -13.645 127.196

                      1                      2                      3
                      A                      A                      A
 Frequencies --     23.0693                27.4986                43.1101
 Red. masses --      4.4807                 2.9753                 2.2335
 Frc consts  --      0.0014                 0.0013                 0.0024
 IR Inten    --      1.4776                 2.4631                 9.5769

                      4                      5                      6
                      A                      A                      A
 Frequencies --     61.1167                72.6744                87.2976
 Red. masses --      5.0715                 4.2229                 6.3754
 Frc consts  --      0.0112                 0.0131                 0.0286
 IR Inten    --      1.4555                 5.6348                11.3131

                      7                      8                      9
                      A                      A                      A
 Frequencies --    103.0092               112.0516               148.0364
 Red. masses --      8.1613                 6.0228                 4.1702
 Frc consts  --      0.0510                 0.0446                 0.0538
 IR Inten    --      3.7517                10.1462                 9.6372

                     10                     11                     12
                      A                      A                      A
 Frequencies --    193.5805               215.5690               237.6536
 Red. masses --      4.9545                 2.6185                 1.3511
 Frc consts  --      0.1094                 0.0717                 0.0450
 IR Inten    --      1.1595                25.7041                 5.0532

                     13                     14                     15
                      A                      A                      A
 Frequencies --    275.4680               334.7365               337.8853
 Red. masses --      5.7061                 2.2006                 6.2225
 Frc consts  --      0.2551                 0.1453                 0.4186
 IR Inten    --     13.3141                 2.2456                 5.0668

                     16                     17                     18
                      A                      A                      A
 Frequencies --    351.0723               381.9299               385.5728
 Red. masses --      5.3553                 3.6372                 4.5124
 Frc consts  --      0.3889                 0.3126                 0.3953
 IR Inten    --      5.5711                22.4658                11.6802

                     19                     20                     21
                      A                      A                      A
 Frequencies --    544.3566               553.4093               588.5444
 Red. masses --      2.5112                 1.8448                 2.4960
 Frc consts  --      0.4384                 0.3329                 0.5094
 IR Inten    --     54.2458                25.8446                 9.9260

                     22                     23                     24
                      A                      A                      A
 Frequencies --    619.9811               661.2597               665.2094
 Red. masses --      3.4850                 1.6453                 1.9727
 Frc consts  --      0.7892                 0.4239                 0.5143
 IR Inten    --     52.9799                25.8334                69.6244

                     25                     26                     27
                      A                      A                      A
 Frequencies --    673.2335               687.2847               721.7704
 Red. masses --      2.3301                 2.6518                 2.0508
 Frc consts  --      0.6223                 0.7380                 0.6295
 IR Inten    --     13.5110                 8.9383                52.8723

                     28                     29                     30
                      A                      A                      A
 Frequencies --    742.5272               772.7385               798.0289
 Red. masses --      2.7277                 3.9926                 1.3684
 Frc consts  --      0.8861                 1.4047                 0.5134
 IR Inten    --      2.6269                 0.9106                 8.5527

                     31                     32                     33
                      A                      A                      A
 Frequencies --    827.7949               835.4971               861.9930
 Red. masses --      2.5539                 1.5353                 1.2776
 Frc consts  --      1.0311                 0.6314                 0.5593
 IR Inten    --      8.1091                 8.4356                 9.2736

                     34                     35                     36
                      A                      A                      A
 Frequencies --    887.4906               918.3303               936.4154
 Red. masses --      2.6839                 1.2849                 5.0435
 Frc consts  --      1.2455                 0.6384                 2.6057
 IR Inten    --     39.6469                 5.5485                 1.1759

                     37                     38                     39
                      A                      A                      A
 Frequencies --    939.3197               986.9368              1005.5070
 Red. masses --      3.7834                 2.0473                 3.3986
 Frc consts  --      1.9668                 1.1749                 2.0245
 IR Inten    --     37.1772                13.0501                39.4801

                     40                     41                     42
                      A                      A                      A
 Frequencies --   1031.9331              1033.9977              1096.8665
 Red. masses --      3.4463                 3.4991                 1.5682
 Frc consts  --      2.1623                 2.2042                 1.1116
 IR Inten    --      7.4242                 4.4045                13.7453

                     43                     44                     45
                      A                      A                      A
 Frequencies --   1109.2769              1124.1471              1156.1248
 Red. masses --      1.6184                 2.3154                 1.9526
 Frc consts  --      1.1733                 1.7240                 1.5377
 IR Inten    --     19.1970                37.6162                12.0742

                     46                     47                     48
                      A                      A                      A
 Frequencies --   1160.2432              1176.4762              1236.6408
 Red. masses --      2.2798                 1.5987                 1.4346
 Frc consts  --      1.8082                 1.3037                 1.2926
 IR Inten    --      5.0348                 4.3777                11.2581

                     49                     50                     51
                      A                      A                      A
 Frequencies --   1245.7044              1266.9311              1287.7073
 Red. masses --      1.8109                 2.1618                 1.3737
 Frc consts  --      1.6557                 2.0444                 1.3421
 IR Inten    --      2.1841                21.3943                 1.3178

                     52                     53                     54
                      A                      A                      A
 Frequencies --   1292.1654              1309.4518              1326.0923
 Red. masses --      1.3076                 1.3043                 1.2571
 Frc consts  --      1.2864                 1.3177                 1.3024
 IR Inten    --      2.8816                23.4059                 7.4565

                     55                     56                     57
                      A                      A                      A
 Frequencies --   1332.1717              1353.6368              1369.7222
 Red. masses --      1.4191                 1.4421                 1.6261
 Frc consts  --      1.4838                 1.5569                 1.7975
 IR Inten    --      6.7837                99.9639                86.0392

                     58                     59                     60
                      A                      A                      A
 Frequencies --   1394.7096              1406.5202              1425.2197
 Red. masses --      2.6277                 1.3576                 2.5032
 Frc consts  --      3.0116                 1.5824                 2.9957
 IR Inten    --      3.8397                12.7006               224.8286

                     61                     62                     63
                      A                      A                      A
 Frequencies --   1438.7594              1490.1108              1494.9936
 Red. masses --      2.9421                 1.1192                 1.1067
 Frc consts  --      3.5883                 1.4641                 1.4573
 IR Inten    --     21.9120                 0.4449                11.1546

                     64                     65                     66
                      A                      A                      A
 Frequencies --   1512.6918              1514.2099              1519.5227
 Red. masses --      1.0757                 3.9451                 1.1838
 Frc consts  --      1.4503                 5.3294                 1.6105
 IR Inten    --     12.5846                39.0524               213.2493

                     67                     68                     69
                      A                      A                      A
 Frequencies --   1545.3865              1613.0060              1669.5376
 Red. masses --      2.7553                 4.3953                 1.0427
 Frc consts  --      3.8770                 6.7376                 1.7124
 IR Inten    --    309.3820                 7.2806                55.4172

                     70                     71                     72
                      A                      A                      A
 Frequencies --   1673.6436              1767.7205              1847.7333
 Red. masses --      1.0443                10.0857                 9.4019
 Frc consts  --      1.7234                18.5687                18.9123
 IR Inten    --     43.7963               246.1548               290.0734

                     73                     74                     75
                      A                      A                      A
 Frequencies --   3040.9376              3052.2791              3076.2160
 Red. masses --      1.0645                 1.0830                 1.0608
 Frc consts  --      5.7998                 5.9446                 5.9144
 IR Inten    --      3.4274                 7.3207                11.2299

                     76                     77                     78
                      A                      A                      A
 Frequencies --   3106.4116              3119.8357              3126.4897
 Red. masses --      1.1001                 1.0602                 1.1057
 Frc consts  --      6.2545                 6.0800                 6.3680
 IR Inten    --      4.4342                 2.8386                 2.9545

                     79                     80                     81
                      A                      A                      A
 Frequencies --   3185.9979              3249.1876              3268.4055
 Red. masses --      1.1116                 1.0967                 1.0986
 Frc consts  --      6.6480                 6.8215                 6.9145
 IR Inten    --      2.8346                 1.7463                 0.5113

                     82                     83                     84
                      A                      A                      A
 Frequencies --   3400.7138              3492.9533              3494.9183
 Red. masses --      1.0303                 1.0936                 1.0938
 Frc consts  --      7.0204                 7.8610                 7.8719
 IR Inten    --     55.2782                93.9460                95.7720

                     85                     86                     87
                      A                      A                      A
 Frequencies --   3520.8343              3557.9429              3648.9333
 Red. masses --      1.0781                 1.0680                 1.0816
 Frc consts  --      7.8742                 7.9660                 8.4850
 IR Inten    --    128.7532               529.9375                54.8015

 - Thermochemistry -
 -------------------
 Temperature   298.150 Kelvin.  Pressure   1.00000 Atm.
 Atom     1 has atomic number  8 and mass  15.99491

 Molecular mass:   227.11442 amu.
 Principal axes and moments of inertia in atomic units:
                           1         2         3
     Eigenvalues --  1948.312617368.582718946.76049
           X            0.99901   0.03525   0.02720
           Y           -0.04432   0.84609   0.53119
           Z           -0.00429  -0.53187   0.84682
 This molecule is an asymmetric top.
 Rotational symmetry number  1.
 Warning -- assumption of classical behavior for rotation
           may cause significant error
 Rotational temperatures (Kelvin)      0.04446     0.01175     0.00968
 Rotational constants (GHZ):           0.92631     0.24492     0.20172
 Zero-point vibrational energy     682972.4 (Joules/Mol)
                                  163.23432 (Kcal/Mol)
 Warning -- explicit consideration of  22 degrees of freedom as
           vibrations may cause significant error
 Vibrational temperatures:     33.19    39.56    62.03    87.93   104.56
          (Kelvin)            125.60   148.21   161.22   212.99   278.52
                              310.16   341.93   396.34   481.61   486.14
                              505.11   549.51   554.75   783.21   796.23
                              846.78   892.01   951.40   957.09   968.63
                              988.85  1038.47  1068.33  1111.80  1148.18
                             1191.01  1202.09  1240.21  1276.90  1321.27
                             1347.29  1351.47  1419.98  1446.70  1484.72
                             1487.69  1578.14  1596.00  1617.39  1663.40
                             1669.33  1692.68  1779.25  1792.29  1822.83
                             1852.72  1859.14  1884.01  1907.95  1916.70
                             1947.58  1970.72  2006.67  2023.67  2050.57
                             2070.05  2143.93  2150.96  2176.42  2178.61
                             2186.25  2223.46  2320.75  2402.09  2408.00
                             2543.35  2658.47  4375.23  4391.54  4425.98
                             4469.43  4488.74  4498.32  4583.93  4674.85
                             4702.50  4892.86  5025.57  5028.40  5065.69
                             5119.08  5249.99

 Zero-point correction=                           0.260130 (Hartree/Particle)
 Thermal correction to Energy=                    0.276275
 Thermal correction to Enthalpy=                  0.277219
 Thermal correction to Gibbs Free Energy=         0.213496
 Sum of electronic and zero-point Energies=           -796.272463
 Sum of electronic and thermal Energies=              -796.256319
 Sum of electronic and thermal Enthalpies=            -796.255374
 Sum of electronic and thermal Free Energies=         -796.319097

                     E (Thermal)             CV                S
                      KCal/Mol        Cal/Mol-Kelvin    Cal/Mol-Kelvin
 Total                  173.365             58.409            134.116
 Electronic               0.000              0.000              0.000
 Translational            0.889              2.981             42.163
 Rotational               0.889              2.981             33.218
 Vibrational            171.588             52.448             58.735
 Vibration     1          0.593              1.985              6.351
 Vibration     2          0.593              1.984              6.002
 Vibration     3          0.595              1.980              5.111
 Vibration     4          0.597              1.973              4.421
 Vibration     5          0.599              1.967              4.080
 Vibration     6          0.601              1.958              3.720
 Vibration     7          0.605              1.947              3.397
 Vibration     8          0.607              1.939              3.233
 Vibration     9          0.617              1.905              2.697
 Vibration    10          0.635              1.849              2.193
 Vibration    11          0.645              1.817              1.996
 Vibration    12          0.656              1.783              1.820
 Vibration    13          0.677              1.719              1.562
 Vibration    14          0.716              1.606              1.237
 Vibration    15          0.718              1.600              1.222
 Vibration    16          0.728              1.573              1.161
 Vibration    17          0.751              1.509              1.032
 Vibration    18          0.754              1.501              1.017
 Vibration    19          0.899              1.152              0.556
 Vibration    20          0.909              1.132              0.537
 Vibration    21          0.946              1.056              0.470
 Vibration    22          0.980              0.990              0.417

 Optimization completed.
    -- Stationary point found.
 Normal termination of Gaussian 09 at Sat Jul 24 01:34:16 2021.
