 Gaussian 09, Revision D.01,
 Gaussian 09:  ES64L-G09RevD.01 24-Apr-2013

 ----------------------------------------------------------------------
 # B3LYP/6-31G(d,p) EmpiricalDispersion=GD3BJ opt=calcfc freq=noraman n
 osymm integral(ultrafinegrid)
 ----------------------------------------------------------------------

 ------------------------------------------------------------
 Candidate Structure: Conf:301 OPT and FREQ calc in gas phase
 ------------------------------------------------------------
 Symbolic Z-matrix:
 Charge =  1 Multiplicity = 1

 SCF Done:  E(RB3LYP) =  -796.567209216     A.U. after   14 cycles
 SCF Done:  E(RB3LYP) =  -792.521293784     A.U. after   18 cycles
 SCF Done:  E(RB3LYP) =  -796.545162580     A.U. after   14 cycles
 SCF Done:  E(RB3LYP) =  -796.575050996     A.U. after   12 cycles
 SCF Done:  E(RB3LYP) =  -796.572372207     A.U. after   13 cycles
 SCF Done:  E(RB3LYP) =  -796.577062470     A.U. after   10 cycles
 SCF Done:  E(RB3LYP) =  -796.581913865     A.U. after   14 cycles
 SCF Done:  E(RB3LYP) =  -796.582623818     A.U. after   13 cycles
 SCF Done:  E(RB3LYP) =  -796.583115662     A.U. after   12 cycles
 SCF Done:  E(RB3LYP) =  -796.583761335     A.U. after   12 cycles
 SCF Done:  E(RB3LYP) =  -796.583952318     A.U. after   11 cycles
 SCF Done:  E(RB3LYP) =  -796.583967793     A.U. after   10 cycles
 SCF Done:  E(RB3LYP) =  -796.583977000     A.U. after    9 cycles
 SCF Done:  E(RB3LYP) =  -796.583978097     A.U. after    8 cycles
 SCF Done:  E(RB3LYP) =  -796.583978212     A.U. after    7 cycles
 Optimization completed.
    -- Stationary point found.
 Normal termination of Gaussian 09 at Sat Jul 24 01:28:34 2021.

 ----------------------------------------------------------------------
 #N Geom=AllCheck Guess=TCheck SCRF=Check GenChk RB3LYP/6-31G(d,p) Freq
 ----------------------------------------------------------------------

 Structure from the checkpoint file:  "conf-301.chk"
 ------------------------------------------------------------
 Candidate Structure: Conf:301 OPT and FREQ calc in gas phase
 ------------------------------------------------------------
 Charge =  1 Multiplicity = 1

                          Input orientation:
 ---------------------------------------------------------------------
 Center     Atomic      Atomic             Coordinates (Angstroms)
 Number     Number       Type             X           Y           Z
 ---------------------------------------------------------------------
      1          8           0       -0.042924   -0.274289   -1.649965
      2          6           0        0.404128    0.681842   -0.995028
      3          7           0       -0.377580    1.479674   -0.246219
      4          6           0       -1.739701    1.132687    0.104873
      5          6           0       -2.482379    2.428248    0.394854
      6          8           0       -3.805217    2.232199    0.445467
      7          8           0       -1.923373    3.480640    0.607726
      8          6           0       -1.784127    0.222796    1.388384
      9          6           0       -0.856520   -0.934803    1.265276
     10          6           0        0.502607   -1.012622    1.468949
     11          7           0        1.010726   -2.184407    0.943219
     12          6           0       -0.036988   -2.832717    0.452998
     13          7           0       -1.178833   -2.117390    0.627386
     14          6           0        1.903479    0.982322   -0.933777
     15          6           0        2.754742   -0.024234   -1.710777
     16          7           0        2.278247   -1.432309   -1.468873
     17          1           0       -0.015207    2.323469    0.183386
     18          1           0       -2.200008    0.607740   -0.733844
     19          1           0       -4.226738    3.078088    0.680045
     20          1           0       -1.484381    0.829271    2.248154
     21          1           0       -2.819471   -0.087426    1.554982
     22          1           0        1.137773   -0.291418    1.962604
     23          1           0       -0.020504   -3.808613   -0.010448
     24          1           0       -2.103087   -2.399016    0.332755
     25          1           0        2.204587    1.001221    0.117937
     26          1           0        2.103917    1.981857   -1.334571
     27          1           0        2.672641    0.139818   -2.786669
     28          1           0        3.803807    0.047858   -1.422466
     29          1           0        2.826224   -2.117729   -1.990313
     30          1           0        1.278367   -1.409705   -1.778856
     31          1           0        2.215985   -1.723468   -0.461514
 ---------------------------------------------------------------------

 SCF Done:  E(RB3LYP) =  -796.583978212     A.U. after    1 cycles

 Alpha  occ. eigenvalues --  -19.32089 -19.27141 -19.26611 -14.57933 -14.52508
 Alpha  occ. eigenvalues --  -14.50369 -14.45810 -10.44735 -10.44397 -10.40192
 Alpha  occ. eigenvalues --  -10.37764 -10.37602 -10.35807 -10.35408 -10.33846
 Alpha  occ. eigenvalues --  -10.33136  -1.23209  -1.18989  -1.14899  -1.14468
 Alpha  occ. eigenvalues --   -1.13008  -1.07289  -1.00692  -0.94597  -0.92436
 Alpha  occ. eigenvalues --   -0.87883  -0.82303  -0.80197  -0.75273  -0.74785
 Alpha  occ. eigenvalues --   -0.73058  -0.72506  -0.71890  -0.70746  -0.67521
 Alpha  occ. eigenvalues --   -0.65623  -0.63616  -0.62632  -0.61114  -0.60681
 Alpha  occ. eigenvalues --   -0.59616  -0.58611  -0.58036  -0.56676  -0.55407
 Alpha  occ. eigenvalues --   -0.54878  -0.54530  -0.53869  -0.53497  -0.52923
 Alpha  occ. eigenvalues --   -0.52254  -0.50214  -0.49673  -0.44238  -0.42743
 Alpha  occ. eigenvalues --   -0.41434  -0.41264  -0.40255  -0.39964  -0.35838
 Alpha virt. eigenvalues --   -0.13201  -0.12568  -0.10504  -0.09235  -0.08136
 Alpha virt. eigenvalues --   -0.05056  -0.03927  -0.03177  -0.02952  -0.01808
 Alpha virt. eigenvalues --   -0.01220   0.00611   0.00988   0.01226   0.01695

 Mulliken charges:
               1
     1  O   -0.563493
     2  C    0.632420
     3  N   -0.511705
     4  C   -0.004665
     5  C    0.597934
     6  O   -0.472072
     7  O   -0.450823
     8  C   -0.252240
     9  C    0.306883
    10  C   -0.025007
    11  N   -0.504056
    12  C    0.269314
    13  N   -0.503246
    14  C   -0.302459
    15  C   -0.110437
    16  N   -0.564191
    17  H    0.296759
    18  H    0.173945
    19  H    0.350983
    20  H    0.150547
    21  H    0.155269
    22  H    0.115731
    23  H    0.151816
    24  H    0.293135
    25  H    0.162726
    26  H    0.184102
    27  H    0.184283
    28  H    0.178910
    29  H    0.339121
    30  H    0.367039
    31  H    0.353476
 Sum of Mulliken charges =   1.00000

 Dipole moment (field-independent basis, Debye):
    X=              2.5206    Y=             -2.2680    Z=             -3.1592  Tot=              4.6344
 Quadrupole moment (field-independent basis, Debye-Ang):
   XX=            -48.9289   YY=            -71.9491   ZZ=            -82.6466
   XY=             -6.5844   XZ=            -19.5523   YZ=              8.5501

  Exact polarizability: 137.497 -13.333 132.023 -14.362  12.214  91.757
 Approx polarizability: 204.873  -2.353 201.686  -2.641  31.966 143.860

                      1                      2                      3
                      A                      A                      A
 Frequencies --     56.2635                68.9313               101.3848
 Red. masses --     10.7652                 4.7443                 4.8754
 Frc consts  --      0.0201                 0.0133                 0.0295
 IR Inten    --      1.4844                 0.2752                 3.4577

                      4                      5                      6
                      A                      A                      A
 Frequencies --    110.4206               115.4846               133.0600
 Red. masses --      3.8559                 4.9446                 3.4037
 Frc consts  --      0.0277                 0.0389                 0.0355
 IR Inten    --      5.2511                 1.5525                13.3508

                      7                      8                      9
                      A                      A                      A
 Frequencies --    156.3774               157.1739               180.0789
 Red. masses --      4.8552                 4.4592                 3.9607
 Frc consts  --      0.0700                 0.0649                 0.0757
 IR Inten    --      7.2101                11.7610                 5.7397

                     10                     11                     12
                      A                      A                      A
 Frequencies --    210.3951               266.0527               310.0923
 Red. masses --      2.6119                 4.8243                 5.5706
 Frc consts  --      0.0681                 0.2012                 0.3156
 IR Inten    --     37.1191                45.0060                 0.9877

                     13                     14                     15
                      A                      A                      A
 Frequencies --    316.5611               347.4068               365.5394
 Red. masses --      3.5247                 3.0913                 3.1939
 Frc consts  --      0.2081                 0.2198                 0.2514
 IR Inten    --      2.6292                 3.6833                54.8860

                     16                     17                     18
                      A                      A                      A
 Frequencies --    412.7082               429.9298               452.0287
 Red. masses --      2.9171                 1.9884                 1.6218
 Frc consts  --      0.2927                 0.2165                 0.1952
 IR Inten    --     11.8725                 6.3796                 3.6462

                     19                     20                     21
                      A                      A                      A
 Frequencies --    536.6166               553.1403               592.2845
 Red. masses --      2.1301                 3.5758                 1.5825
 Frc consts  --      0.3614                 0.6446                 0.3271
 IR Inten    --     61.0682                19.0705               129.1923

                     22                     23                     24
                      A                      A                      A
 Frequencies --    613.2520               621.7308               637.5892
 Red. masses --      1.4373                 1.5398                 3.2897
 Frc consts  --      0.3185                 0.3507                 0.7879
 IR Inten    --     38.1174                16.5406                80.8703

                     25                     26                     27
                      A                      A                      A
 Frequencies --    683.5284               690.5247               696.5052
 Red. masses --      2.4153                 3.0904                 3.1040
 Frc consts  --      0.6649                 0.8682                 0.8872
 IR Inten    --     70.8779                22.1494                 0.9404

                     28                     29                     30
                      A                      A                      A
 Frequencies --    720.9645               772.9593               816.4065
 Red. masses --      3.3585                 4.0990                 1.3978
 Frc consts  --      1.0285                 1.4429                 0.5489
 IR Inten    --      3.5148                17.8373                 8.0252

                     31                     32                     33
                      A                      A                      A
 Frequencies --    841.4371               854.0428               868.8530
 Red. masses --      1.4407                 2.1133                 2.4624
 Frc consts  --      0.6010                 0.9082                 1.0952
 IR Inten    --     30.4621                11.1005                23.3039

                     34                     35                     36
                      A                      A                      A
 Frequencies --    884.3586               929.2920               950.1563
 Red. masses --      2.3294                 2.5997                 5.5773
 Frc consts  --      1.0734                 1.3228                 2.9666
 IR Inten    --      0.0326                15.9955                13.6522

                     37                     38                     39
                      A                      A                      A
 Frequencies --    975.3546               981.7614              1003.3312
 Red. masses --      1.5858                 2.7455                 3.0092
 Frc consts  --      0.8888                 1.5591                 1.7848
 IR Inten    --     10.4605                 8.7138                11.1094

                     40                     41                     42
                      A                      A                      A
 Frequencies --   1035.8228              1051.0236              1104.7500
 Red. masses --      3.4592                 2.8159                 2.0055
 Frc consts  --      2.1867                 1.8327                 1.4421
 IR Inten    --      4.4893                20.1904                 6.8606

                     43                     44                     45
                      A                      A                      A
 Frequencies --   1131.6076              1138.1963              1142.4070
 Red. masses --      1.4031                 1.5683                 1.7621
 Frc consts  --      1.0586                 1.1970                 1.3550
 IR Inten    --     42.5905                34.4505                64.3676

                     46                     47                     48
                      A                      A                      A
 Frequencies --   1154.2366              1178.5561              1211.7760
 Red. masses --      1.7684                 1.9443                 1.7476
 Frc consts  --      1.3881                 1.5912                 1.5120
 IR Inten    --      4.6267               200.7253                 6.8052

                     49                     50                     51
                      A                      A                      A
 Frequencies --   1252.0342              1263.9439              1284.6017
 Red. masses --      1.4339                 1.6794                 1.4698
 Frc consts  --      1.3244                 1.5807                 1.4290
 IR Inten    --     27.1735                19.0612                 0.9766

                     52                     53                     54
                      A                      A                      A
 Frequencies --   1290.3587              1293.9257              1334.0148
 Red. masses --      1.4146                 1.8074                 1.3283
 Frc consts  --      1.3877                 1.7829                 1.3927
 IR Inten    --      2.0727                 6.4443                27.7287

                     55                     56                     57
                      A                      A                      A
 Frequencies --   1345.8611              1357.4248              1392.2083
 Red. masses --      1.4236                 1.2404                 1.6724
 Frc consts  --      1.5193                 1.3466                 1.9099
 IR Inten    --     30.2842                 4.1697                35.8045

                     58                     59                     60
                      A                      A                      A
 Frequencies --   1402.1678              1426.7082              1434.2293
 Red. masses --      3.1242                 1.3400                 2.8343
 Frc consts  --      3.6190                 1.6070                 3.4350
 IR Inten    --      3.3346                 9.8132               173.6074

                     61                     62                     63
                      A                      A                      A
 Frequencies --   1448.5190              1475.8375              1490.1831
 Red. masses --      2.8346                 1.0961                 1.2430
 Frc consts  --      3.5043                 1.4066                 1.6263
 IR Inten    --     33.9040                14.6501               178.5415

                     64                     65                     66
                      A                      A                      A
 Frequencies --   1497.6165              1513.7312              1517.7326
 Red. masses --      1.1457                 1.8805                 1.3780
 Frc consts  --      1.5140                 2.5388                 1.8702
 IR Inten    --     42.4204                14.5890                43.0520

                     67                     68                     69
                      A                      A                      A
 Frequencies --   1570.5777              1622.8554              1647.0258
 Red. masses --      2.4791                 4.2835                 1.1113
 Frc consts  --      3.6030                 6.6467                 1.7761
 IR Inten    --    206.0052                 6.7358               128.9673

                     70                     71                     72
                      A                      A                      A
 Frequencies --   1697.5253              1733.5623              1847.3532
 Red. masses --      1.0917                 4.3820                10.3305
 Frc consts  --      1.8534                 7.7589                20.7717
 IR Inten    --    212.5591                97.0697               240.9097

                     73                     74                     75
                      A                      A                      A
 Frequencies --   3028.6081              3074.0105              3075.5958
 Red. masses --      1.0848                 1.0617                 1.0609
 Frc consts  --      5.8623                 5.9112                 5.9125
 IR Inten    --    549.9228                 7.5134                 6.9443

                     76                     77                     78
                      A                      A                      A
 Frequencies --   3090.4434              3110.1574              3119.1964
 Red. masses --      1.0647                 1.0730                 1.0897
 Frc consts  --      5.9915                 6.1153                 6.2463
 IR Inten    --    364.5549                24.7998                 5.8839

                     79                     80                     81
                      A                      A                      A
 Frequencies --   3122.4428              3135.9027              3169.9257
 Red. masses --      1.0978                 1.0931                 1.1102
 Frc consts  --      6.3060                 6.3335                 6.5727
 IR Inten    --      1.0248                 3.9835                 0.6969

                     82                     83                     84
                      A                      A                      A
 Frequencies --   3260.7727              3272.5306              3522.9347
 Red. masses --      1.0967                 1.0995                 1.0791
 Frc consts  --      6.8706                 6.9376                 7.8909
 IR Inten    --      1.6352                 1.8276               108.4789

                     85                     86                     87
                      A                      A                      A
 Frequencies --   3589.6386              3653.6001              3740.0901
 Red. masses --      1.0781                 1.0821                 1.0645
 Frc consts  --      8.1851                 8.5109                 8.7730
 IR Inten    --     98.8705                85.6668               121.4677

 - Thermochemistry -
 -------------------
 Temperature   298.150 Kelvin.  Pressure   1.00000 Atm.
 Atom     1 has atomic number  8 and mass  15.99491

 Molecular mass:   227.11442 amu.
 Principal axes and moments of inertia in atomic units:
                           1         2         3
     Eigenvalues --  2156.620204488.909715851.60229
           X            0.73430   0.47035   0.48946
           Y           -0.64841   0.69940   0.30066
           Z           -0.20091  -0.53815   0.81855
 This molecule is an asymmetric top.
 Rotational symmetry number  1.
 Warning -- assumption of classical behavior for rotation
           may cause significant error
 Rotational temperatures (Kelvin)      0.04016     0.01930     0.01480
 Rotational constants (GHZ):           0.83684     0.40204     0.30842
 Zero-point vibrational energy     685868.2 (Joules/Mol)
                                  163.92642 (Kcal/Mol)
 Warning -- explicit consideration of  22 degrees of freedom as
           vibrations may cause significant error
 Vibrational temperatures:     80.95    99.18   145.87   158.87   166.16
          (Kelvin)            191.44   224.99   226.14   259.09   302.71
                              382.79   446.15   455.46   499.84   525.93
                              593.79   618.57   650.37   772.07   795.84
                              852.16   882.33   894.53   917.35   983.44
                              993.51  1002.11  1037.31  1112.11  1174.63
                             1210.64  1228.78  1250.08  1272.39  1337.04
                             1367.06  1403.32  1412.53  1443.57  1490.32
                             1512.19  1589.49  1628.13  1637.61  1643.67
                             1660.69  1695.68  1743.47  1801.40  1818.53
                             1848.25  1856.54  1861.67  1919.35  1936.39
                             1953.03  2003.07  2017.40  2052.71  2063.53
                             2084.09  2123.40  2144.04  2154.73  2177.92
                             2183.68  2259.71  2334.92  2369.70  2442.36
                             2494.21  2657.93  4357.49  4422.81  4425.09
                             4446.45  4474.82  4487.82  4492.49  4511.86
                             4560.81  4691.52  4708.44  5068.71  5164.68
                             5256.71  5381.15

 Zero-point correction=                           0.261233 (Hartree/Particle)
 Thermal correction to Energy=                    0.276165
 Thermal correction to Enthalpy=                  0.277109
 Thermal correction to Gibbs Free Energy=         0.219449
 Sum of electronic and zero-point Energies=           -796.322745
 Sum of electronic and thermal Energies=              -796.307813
 Sum of electronic and thermal Enthalpies=            -796.306869
 Sum of electronic and thermal Free Energies=         -796.364529

                     E (Thermal)             CV                S
                      KCal/Mol        Cal/Mol-Kelvin    Cal/Mol-Kelvin
 Total                  173.296             57.366            121.356
 Electronic               0.000              0.000              0.000
 Translational            0.889              2.981             42.163
 Rotational               0.889              2.981             32.405
 Vibrational            171.519             51.405             46.788
 Vibration     1          0.596              1.975              4.584
 Vibration     2          0.598              1.969              4.184
 Vibration     3          0.604              1.948              3.428
 Vibration     4          0.606              1.941              3.262
 Vibration     5          0.608              1.937              3.175
 Vibration     6          0.613              1.920              2.901
 Vibration     7          0.620              1.896              2.593
 Vibration     8          0.621              1.895              2.584
 Vibration     9          0.629              1.867              2.328
 Vibration    10          0.643              1.825              2.040
 Vibration    11          0.672              1.735              1.622
 Vibration    12          0.699              1.654              1.362
 Vibration    13          0.703              1.642              1.328
 Vibration    14          0.725              1.581              1.178
 Vibration    15          0.739              1.543              1.098
 Vibration    16          0.776              1.443              0.917
 Vibration    17          0.791              1.405              0.859
 Vibration    18          0.811              1.356              0.790
 Vibration    19          0.892              1.169              0.573
 Vibration    20          0.909              1.133              0.538
 Vibration    21          0.950              1.048              0.463
 Vibration    22          0.973              1.004              0.427

 Optimization completed.
    -- Stationary point found.
 Normal termination of Gaussian 09 at Sat Jul 24 01:53:30 2021.
