 Gaussian 09, Revision D.01,
 Gaussian 09:  ES64L-G09RevD.01 24-Apr-2013

 ----------------------------------------------------------------------
 # B3LYP/6-31G(d,p) EmpiricalDispersion=GD3BJ opt=calcfc freq=noraman n
 osymm integral(ultrafinegrid)
 ----------------------------------------------------------------------

 ------------------------------------------------------------
 Candidate Structure: Conf:580 OPT and FREQ calc in gas phase
 ------------------------------------------------------------
 Symbolic Z-matrix:
 Charge =  1 Multiplicity = 1

 SCF Done:  E(RB3LYP) =  -796.525750776     A.U. after   17 cycles
 SCF Done:  E(RB3LYP) =  -796.531979010     A.U. after   14 cycles
 SCF Done:  E(RB3LYP) =  -796.532802435     A.U. after   15 cycles
 SCF Done:  E(RB3LYP) =  -796.533409532     A.U. after   12 cycles
 SCF Done:  E(RB3LYP) =  -796.533473479     A.U. after   12 cycles
 SCF Done:  E(RB3LYP) =  -796.533499986     A.U. after   11 cycles
 SCF Done:  E(RB3LYP) =  -796.533519225     A.U. after   11 cycles
 SCF Done:  E(RB3LYP) =  -796.533526888     A.U. after    9 cycles
 SCF Done:  E(RB3LYP) =  -796.533541370     A.U. after   10 cycles
 SCF Done:  E(RB3LYP) =  -796.533572892     A.U. after   12 cycles
 SCF Done:  E(RB3LYP) =  -796.533568839     A.U. after   12 cycles
 SCF Done:  E(RB3LYP) =  -796.533576838     A.U. after    9 cycles
 SCF Done:  E(RB3LYP) =  -796.533629087     A.U. after   12 cycles
 SCF Done:  E(RB3LYP) =  -796.533596277     A.U. after   12 cycles
 SCF Done:  E(RB3LYP) =  -796.533640345     A.U. after   11 cycles
 SCF Done:  E(RB3LYP) =  -796.533646952     A.U. after   11 cycles
 SCF Done:  E(RB3LYP) =  -796.533652605     A.U. after   10 cycles
 SCF Done:  E(RB3LYP) =  -796.533652455     A.U. after    8 cycles
 SCF Done:  E(RB3LYP) =  -796.533652622     A.U. after    8 cycles
 Optimization completed.
    -- Stationary point found.
 Normal termination of Gaussian 09 at Sat Jul 24 01:22:58 2021.

 ----------------------------------------------------------------------
 #N Geom=AllCheck Guess=TCheck SCRF=Check GenChk RB3LYP/6-31G(d,p) Freq
 ----------------------------------------------------------------------

 Structure from the checkpoint file:  "conf-580.chk"
 ------------------------------------------------------------
 Candidate Structure: Conf:580 OPT and FREQ calc in gas phase
 ------------------------------------------------------------
 Charge =  1 Multiplicity = 1

                          Input orientation:
 ---------------------------------------------------------------------
 Center     Atomic      Atomic             Coordinates (Angstroms)
 Number     Number       Type             X           Y           Z
 ---------------------------------------------------------------------
      1          8           0        1.341752    0.279832   -1.242593
      2          6           0        1.476712    0.329969   -0.022278
      3          7           0        0.467452    0.409910    0.857928
      4          6           0       -0.931072    0.396143    0.449025
      5          6           0       -1.718213    0.922330    1.639166
      6          8           0       -2.906363    1.409253    1.284327
      7          8           0       -1.296799    0.871556    2.777728
      8          6           0       -1.383945   -1.046694    0.065772
      9          6           0       -2.811936   -1.160840   -0.333611
     10          6           0       -3.909459   -1.658220    0.329589
     11          7           0       -5.054280   -1.495833   -0.416293
     12          6           0       -4.666309   -0.903279   -1.524375
     13          7           0       -3.317120   -0.672606   -1.527834
     14          6           0        2.891302    0.287386    0.595594
     15          6           0        3.851864    0.840376   -0.444908
     16          7           0        5.297232    0.492298   -0.105221
     17          1           0        0.614559    0.445759    1.861414
     18          1           0       -1.063047    1.060562   -0.408208
     19          1           0       -3.392619    1.646228    2.093742
     20          1           0       -1.206489   -1.693551    0.930093
     21          1           0       -0.712029   -1.375217   -0.734646
     22          1           0       -3.930848   -2.127921    1.303709
     23          1           0       -5.302573   -0.624501   -2.352476
     24          1           0       -2.784805   -0.261094   -2.279546
     25          1           0        3.121868   -0.764047    0.814298
     26          1           0        2.937906    0.844153    1.536704
     27          1           0        3.628822    0.408331   -1.421128
     28          1           0        3.807784    1.927911   -0.520245
     29          1           0        5.944661    0.853379   -0.814379
     30          1           0        5.578415    0.882675    0.800630
     31          1           0        5.427772   -0.524097   -0.054789
 ---------------------------------------------------------------------

 SCF Done:  E(RB3LYP) =  -796.533652621     A.U. after    1 cycles

 Alpha  occ. eigenvalues --  -19.30185 -19.25003 -19.24861 -14.66636 -14.49051
 Alpha  occ. eigenvalues --  -14.46151 -14.37631 -10.43166 -10.42990 -10.42906
 Alpha  occ. eigenvalues --  -10.37219 -10.35298 -10.30614 -10.30255 -10.29276
 Alpha  occ. eigenvalues --  -10.26547  -1.21453  -1.20538  -1.17061  -1.12620
 Alpha  occ. eigenvalues --   -1.08049  -1.05647  -0.96429  -0.93826  -0.90179
 Alpha  occ. eigenvalues --   -0.84902  -0.82269  -0.78933  -0.78317  -0.76766
 Alpha  occ. eigenvalues --   -0.73296  -0.70560  -0.69042  -0.68138  -0.65961
 Alpha  occ. eigenvalues --   -0.64818  -0.63492  -0.61371  -0.60014  -0.59076
 Alpha  occ. eigenvalues --   -0.57913  -0.57339  -0.56396  -0.55047  -0.53223
 Alpha  occ. eigenvalues --   -0.52847  -0.51777  -0.50341  -0.49848  -0.48847
 Alpha  occ. eigenvalues --   -0.47643  -0.47292  -0.46514  -0.42355  -0.39614
 Alpha  occ. eigenvalues --   -0.38773  -0.38317  -0.34700  -0.32942  -0.29371
 Alpha virt. eigenvalues --   -0.16815  -0.11921  -0.09964  -0.09873  -0.09495
 Alpha virt. eigenvalues --   -0.06961  -0.04776  -0.03706  -0.02677  -0.01353
 Alpha virt. eigenvalues --   -0.01158  -0.00605   0.00153   0.01622   0.02683

 Mulliken charges:
               1
     1  O   -0.518863
     2  C    0.626523
     3  N   -0.536641
     4  C    0.014426
     5  C    0.594588
     6  O   -0.453958
     7  O   -0.473752
     8  C   -0.256402
     9  C    0.291997
    10  C   -0.008391
    11  N   -0.431101
    12  C    0.269433
    13  N   -0.538234
    14  C   -0.310029
    15  C   -0.128364
    16  N   -0.546816
    17  H    0.290913
    18  H    0.156076
    19  H    0.346131
    20  H    0.132727
    21  H    0.141836
    22  H    0.097398
    23  H    0.128964
    24  H    0.267462
    25  H    0.161143
    26  H    0.151630
    27  H    0.223529
    28  H    0.197914
    29  H    0.374169
    30  H    0.367938
    31  H    0.367752
 Sum of Mulliken charges =   1.00000

 Dipole moment (field-independent basis, Debye):
    X=             21.8463    Y=              3.7959    Z=              0.1163  Tot=             22.1740
 Quadrupole moment (field-independent basis, Debye-Ang):
   XX=             21.7317   YY=            -87.4535   ZZ=            -84.3655
   XY=              0.4406   XZ=              3.9537   YZ=              0.2152

  Exact polarizability: 170.395   8.432  84.695   3.697  -3.865 118.649
 Approx polarizability: 213.170   5.892 127.364   3.685 -15.569 203.801

                      1                      2                      3
                      A                      A                      A
 Frequencies --     12.3880                25.5564                41.2154
 Red. masses --      5.2745                 3.8270                 2.0001
 Frc consts  --      0.0005                 0.0015                 0.0020
 IR Inten    --      0.7775                 3.9438                12.7601

                      4                      5                      6
                      A                      A                      A
 Frequencies --     50.2948                66.1707                74.6600
 Red. masses --      4.6801                 4.8701                 7.1026
 Frc consts  --      0.0070                 0.0126                 0.0233
 IR Inten    --      5.6064                 4.5248                 7.0520

                      7                      8                      9
                      A                      A                      A
 Frequencies --     79.0030               105.8865               114.9410
 Red. masses --      5.9891                 4.0251                 4.5237
 Frc consts  --      0.0220                 0.0266                 0.0352
 IR Inten    --      6.3382                 3.0883                 9.9568

                     10                     11                     12
                      A                      A                      A
 Frequencies --    181.5984               217.9230               240.1572
 Red. masses --      5.1463                 2.0459                 1.5346
 Frc consts  --      0.1000                 0.0572                 0.0521
 IR Inten    --      5.0462                11.3638                 3.0502

                     13                     14                     15
                      A                      A                      A
 Frequencies --    265.5345               321.7954               332.0513
 Red. masses --      5.4698                 6.1655                 2.1650
 Frc consts  --      0.2272                 0.3762                 0.1406
 IR Inten    --     11.3323                 7.3462                 4.7209

                     16                     17                     18
                      A                      A                      A
 Frequencies --    342.7013               368.6225               388.8072
 Red. masses --      6.6460                 3.7830                 3.8074
 Frc consts  --      0.4599                 0.3029                 0.3391
 IR Inten    --     12.9582                 8.6593                 7.6038

                     19                     20                     21
                      A                      A                      A
 Frequencies --    511.3530               533.1449               558.9130
 Red. masses --      1.4062                 3.2436                 2.1280
 Frc consts  --      0.2166                 0.5432                 0.3917
 IR Inten    --     74.1014                63.4580                19.5249

                     22                     23                     24
                      A                      A                      A
 Frequencies --    615.3458               630.9609               655.4720
 Red. masses --      1.2779                 4.1999                 1.5740
 Frc consts  --      0.2851                 0.9851                 0.3984
 IR Inten    --    108.3241                10.4974                31.4053

                     25                     26                     27
                      A                      A                      A
 Frequencies --    665.4213               678.9182               717.3050
 Red. masses --      2.6924                 3.1597                 3.6112
 Frc consts  --      0.7024                 0.8581                 1.0947
 IR Inten    --     32.2877                 5.8659                 0.8723

                     28                     29                     30
                      A                      A                      A
 Frequencies --    750.8817               771.5254               796.5664
 Red. masses --      3.3596                 3.5087                 1.3920
 Frc consts  --      1.1161                 1.2305                 0.5204
 IR Inten    --     23.2346                11.3360                17.7569

                     31                     32                     33
                      A                      A                      A
 Frequencies --    814.3616               821.8861               853.5896
 Red. masses --      1.4123                 2.2449                 1.4255
 Frc consts  --      0.5518                 0.8934                 0.6119
 IR Inten    --     13.5132                 5.4594                15.9714

                     34                     35                     36
                      A                      A                      A
 Frequencies --    887.1774               918.0123               936.1541
 Red. masses --      2.6626                 1.2866                 5.4300
 Frc consts  --      1.2348                 0.6388                 2.8038
 IR Inten    --     38.7247                 4.6133                 3.8833

                     37                     38                     39
                      A                      A                      A
 Frequencies --    939.2827               987.3414               999.8728
 Red. masses --      3.9025                 2.0498                 3.3155
 Frc consts  --      2.0286                 1.1773                 1.9529
 IR Inten    --     29.8093                11.4312                30.3444

                     40                     41                     42
                      A                      A                      A
 Frequencies --   1028.3234              1036.6878              1087.1583
 Red. masses --      2.9594                 3.2886                 1.8870
 Frc consts  --      1.8438                 2.0824                 1.3141
 IR Inten    --     23.6224                 6.1584                25.5948

                     43                     44                     45
                      A                      A                      A
 Frequencies --   1112.8531              1114.0763              1151.6238
 Red. masses --      1.9184                 1.7980                 2.3503
 Frc consts  --      1.3998                 1.3148                 1.8365
 IR Inten    --     18.9774                33.3292                10.4563

                     46                     47                     48
                      A                      A                      A
 Frequencies --   1158.4836              1171.0527              1204.9814
 Red. masses --      2.0197                 1.4857                 1.9467
 Frc consts  --      1.5970                 1.2005                 1.6654
 IR Inten    --     21.3462                21.9842               125.4185

                     49                     50                     51
                      A                      A                      A
 Frequencies --   1237.8685              1273.2763              1282.5049
 Red. masses --      1.4358                 2.1389                 1.4101
 Frc consts  --      1.2962                 2.0431                 1.3665
 IR Inten    --      8.0447                 8.2812                 4.1196

                     52                     53                     54
                      A                      A                      A
 Frequencies --   1290.7717              1300.6483              1323.3343
 Red. masses --      1.3099                 1.3608                 1.2545
 Frc consts  --      1.2858                 1.3563                 1.2944
 IR Inten    --      1.8641                 2.7598                19.6242

                     55                     56                     57
                      A                      A                      A
 Frequencies --   1333.3840              1354.8796              1368.5915
 Red. masses --      1.4508                 1.3368                 1.4191
 Frc consts  --      1.5197                 1.4458                 1.5661
 IR Inten    --      1.3436                 5.5920                18.8401

                     58                     59                     60
                      A                      A                      A
 Frequencies --   1399.6839              1405.7469              1443.7362
 Red. masses --      3.4310                 1.3540                 3.0370
 Frc consts  --      3.9603                 1.5765                 3.7296
 IR Inten    --     10.4480                17.7151                34.5385

                     61                     62                     63
                      A                      A                      A
 Frequencies --   1454.0522              1490.0170              1494.1837
 Red. masses --      3.1179                 1.1177                 1.1326
 Frc consts  --      3.8839                 1.4620                 1.4898
 IR Inten    --    175.1251                 0.7377                10.9685

                     64                     65                     66
                      A                      A                      A
 Frequencies --   1513.0126              1513.5027              1518.6774
 Red. masses --      3.4910                 1.0865                 1.1734
 Frc consts  --      4.7086                 1.4663                 1.5945
 IR Inten    --     31.3396                 9.7025               184.9408

                     67                     68                     69
                      A                      A                      A
 Frequencies --   1556.7164              1625.5188              1669.5908
 Red. masses --      2.5565                 4.6454                 1.0429
 Frc consts  --      3.6501                 7.2320                 1.7128
 IR Inten    --    311.9410                 5.9822                55.0527

                     70                     71                     72
                      A                      A                      A
 Frequencies --   1673.6277              1774.7202              1829.7355
 Red. masses --      1.0442                10.3510                 9.8296
 Frc consts  --      1.7232                19.2085                19.3893
 IR Inten    --     44.1998               295.7427               241.5813

                     73                     74                     75
                      A                      A                      A
 Frequencies --   3041.0251              3057.7362              3104.5542
 Red. masses --      1.0641                 1.0611                 1.0934
 Frc consts  --      5.7980                 5.8451                 6.2091
 IR Inten    --      3.8669                13.3540                 4.6272

                     76                     77                     78
                      A                      A                      A
 Frequencies --   3105.5452              3118.3918              3118.7763
 Red. masses --      1.1003                 1.0624                 1.0932
 Frc consts  --      6.2523                 6.0867                 6.2649
 IR Inten    --      4.8285                 4.3685                 5.7160

                     79                     80                     81
                      A                      A                      A
 Frequencies --   3184.3482              3248.0368              3265.9252
 Red. masses --      1.1119                 1.0967                 1.0981
 Frc consts  --      6.6426                 6.8169                 6.9009
 IR Inten    --      3.5630                 5.0474                 0.5818

                     82                     83                     84
                      A                      A                      A
 Frequencies --   3401.1623              3493.7821              3495.5865
 Red. masses --      1.0303                 1.0935                 1.0939
 Frc consts  --      7.0219                 7.8646                 7.8750
 IR Inten    --     53.2096                94.5845                95.2552

                     85                     86                     87
                      A                      A                      A
 Frequencies --   3569.1821              3660.0908              3742.3939
 Red. masses --      1.0785                 1.0813                 1.0644
 Frc consts  --      8.0950                 8.5343                 8.7833
 IR Inten    --    112.5322                43.0067                96.1062

 - Thermochemistry -
 -------------------
 Temperature   298.150 Kelvin.  Pressure   1.00000 Atm.
 Atom     1 has atomic number  8 and mass  15.99491

 Molecular mass:   227.11442 amu.
 Principal axes and moments of inertia in atomic units:
                           1         2         3
     Eigenvalues --  1637.727438073.181319094.62008
           X            0.98480  -0.10134  -0.14105
           Y            0.17167   0.44493   0.87896
           Z            0.02631   0.88982  -0.45556
 This molecule is an asymmetric top.
 Rotational symmetry number  1.
 Warning -- assumption of classical behavior for rotation
           may cause significant error
 Rotational temperatures (Kelvin)      0.05289     0.01073     0.00952
 Rotational constants (GHZ):           1.10198     0.22355     0.19844
 Zero-point vibrational energy     682304.2 (Joules/Mol)
                                  163.07461 (Kcal/Mol)
 Warning -- explicit consideration of  22 degrees of freedom as
           vibrations may cause significant error
 Vibrational temperatures:     17.82    36.77    59.30    72.36    95.20
          (Kelvin)            107.42   113.67   152.35   165.37   261.28
                              313.54   345.53   382.04   462.99   477.75
                              493.07   530.36   559.41   735.72   767.08
                              804.15   885.34   907.81   943.08   957.39
                              976.81  1032.04  1080.35  1110.05  1146.08
                             1171.68  1182.51  1228.12  1276.45  1320.81
                             1346.92  1351.42  1420.56  1438.59  1479.53
                             1491.56  1564.18  1601.15  1602.91  1656.93
                             1666.80  1684.88  1733.70  1781.01  1831.96
                             1845.24  1857.13  1871.34  1903.98  1918.44
                             1949.37  1969.10  2013.83  2022.55  2077.21
                             2092.05  2143.80  2149.79  2176.88  2177.59
                             2185.04  2239.76  2338.76  2402.17  2407.97
                             2553.42  2632.58  4375.35  4399.39  4466.76
                             4468.18  4486.66  4487.22  4581.56  4673.19
                             4698.93  4893.51  5026.77  5029.36  5135.25
                             5266.05  5384.46

 Zero-point correction=                           0.259876 (Hartree/Particle)
 Thermal correction to Energy=                    0.276394
 Thermal correction to Enthalpy=                  0.277338
 Thermal correction to Gibbs Free Energy=         0.211711
 Sum of electronic and zero-point Energies=           -796.273777
 Sum of electronic and thermal Energies=              -796.257259
 Sum of electronic and thermal Enthalpies=            -796.256315
 Sum of electronic and thermal Free Energies=         -796.321941

                     E (Thermal)             CV                S
                      KCal/Mol        Cal/Mol-Kelvin    Cal/Mol-Kelvin
 Total                  173.440             58.983            138.123
 Electronic               0.000              0.000              0.000
 Translational            0.889              2.981             42.163
 Rotational               0.889              2.981             33.153
 Vibrational            171.662             53.022             62.808
 Vibration     1          0.593              1.987              7.586
 Vibration     2          0.593              1.985              6.148
 Vibration     3          0.594              1.981              5.200
 Vibration     4          0.595              1.977              4.806
 Vibration     5          0.598              1.970              4.264
 Vibration     6          0.599              1.966              4.027
 Vibration     7          0.600              1.963              3.915
 Vibration     8          0.605              1.945              3.343
 Vibration     9          0.608              1.937              3.184
 Vibration    10          0.630              1.865              2.312
 Vibration    11          0.646              1.814              1.976
 Vibration    12          0.657              1.779              1.802
 Vibration    13          0.671              1.736              1.625
 Vibration    14          0.707              1.632              1.301
 Vibration    15          0.714              1.611              1.250
 Vibration    16          0.722              1.590              1.200
 Vibration    17          0.741              1.537              1.086
 Vibration    18          0.757              1.494              1.005
 Vibration    19          0.866              1.225              0.630
 Vibration    20          0.888              1.177              0.580
 Vibration    21          0.914              1.120              0.526
 Vibration    22          0.975              0.999              0.424

 Optimization completed on the basis of negligible forces.
    -- Stationary point found.
 Normal termination of Gaussian 09 at Sat Jul 24 01:42:15 2021.
