 Gaussian 09, Revision D.01,
 Gaussian 09:  ES64L-G09RevD.01 24-Apr-2013

 ----------------------------------------------------------------------
 # B3LYP/6-31G(d,p) EmpiricalDispersion=GD3BJ opt=calcfc freq=noraman n
 osymm integral(ultrafinegrid)
 ----------------------------------------------------------------------

 ------------------------------------------------------------
 Candidate Structure: Conf:318 OPT and FREQ calc in gas phase
 ------------------------------------------------------------
 Symbolic Z-matrix:
 Charge =  1 Multiplicity = 1

 SCF Done:  E(RB3LYP) =  -796.519144482     A.U. after   15 cycles
 SCF Done:  E(RB3LYP) =  -796.525965823     A.U. after   14 cycles
 SCF Done:  E(RB3LYP) =  -796.527324835     A.U. after   15 cycles
 SCF Done:  E(RB3LYP) =  -796.519469948     A.U. after   15 cycles
 SCF Done:  E(RB3LYP) =  -796.527651051     A.U. after   11 cycles
 SCF Done:  E(RB3LYP) =  -796.517645261     A.U. after   15 cycles
 SCF Done:  E(RB3LYP) =  -796.528331715     A.U. after   11 cycles
 SCF Done:  E(RB3LYP) =  -796.529780602     A.U. after   14 cycles
 SCF Done:  E(RB3LYP) =  -796.515971606     A.U. after   15 cycles
 SCF Done:  E(RB3LYP) =  -796.529861117     A.U. after   10 cycles
 SCF Done:  E(RB3LYP) =  -796.558800480     A.U. after   12 cycles
 SCF Done:  E(RB3LYP) =  -796.559051116     A.U. after   12 cycles
 SCF Done:  E(RB3LYP) =  -796.559121913     A.U. after   11 cycles
 SCF Done:  E(RB3LYP) =  -796.559136747     A.U. after   10 cycles
 SCF Done:  E(RB3LYP) =  -796.559142075     A.U. after   10 cycles
 SCF Done:  E(RB3LYP) =  -796.559144454     A.U. after    9 cycles
 SCF Done:  E(RB3LYP) =  -796.559144995     A.U. after    8 cycles
 SCF Done:  E(RB3LYP) =  -796.559145170     A.U. after    8 cycles
 SCF Done:  E(RB3LYP) =  -796.559145231     A.U. after    7 cycles
 Optimization completed.
    -- Stationary point found.
 Normal termination of Gaussian 09 at Sat Jul 24 02:13:53 2021.

 ----------------------------------------------------------------------
 #N Geom=AllCheck Guess=TCheck SCRF=Check GenChk RB3LYP/6-31G(d,p) Freq
 ----------------------------------------------------------------------

 Structure from the checkpoint file:  "conf-318.chk"
 ------------------------------------------------------------
 Candidate Structure: Conf:318 OPT and FREQ calc in gas phase
 ------------------------------------------------------------
 Charge =  1 Multiplicity = 1

                          Input orientation:
 ---------------------------------------------------------------------
 Center     Atomic      Atomic             Coordinates (Angstroms)
 Number     Number       Type             X           Y           Z
 ---------------------------------------------------------------------
      1          8           0        0.616640    0.708695    1.693334
      2          6           0        0.891608   -0.316604    1.082036
      3          7           0        0.061685   -1.378845    0.932887
      4          6           0       -1.356612   -1.404975    1.242573
      5          6           0       -1.939564   -2.532682    0.368420
      6          8           0       -3.174500   -2.949596    0.670328
      7          8           0       -1.333402   -2.996454   -0.569902
      8          6           0       -2.141727   -0.072088    0.977810
      9          6           0       -1.581257    0.722673   -0.154391
     10          6           0       -0.871793    0.353800   -1.269221
     11          7           0       -0.229789    1.455560   -1.810614
     12          6           0       -0.589473    2.492256   -1.060440
     13          7           0       -1.411040    2.092221   -0.065439
     14          6           0        2.273764   -0.497013    0.433283
     15          6           0        2.786285    0.780462   -0.232489
     16          7           0        2.391636    0.894524   -1.690402
     17          1           0        0.318795   -2.105723    0.273409
     18          1           0       -1.511709   -1.662514    2.298362
     19          1           0       -3.501137   -2.558892    1.494996
     20          1           0       -3.197048   -0.324559    0.824285
     21          1           0       -2.080745    0.537639    1.881073
     22          1           0       -0.747184   -0.637340   -1.678174
     23          1           0       -0.287631    3.518666   -1.207280
     24          1           0       -1.769051    2.681208    0.673140
     25          1           0        2.309711   -1.350099   -0.253991
     26          1           0        2.965654   -0.733304    1.248712
     27          1           0        3.875627    0.823973   -0.201962
     28          1           0        2.375876    1.650098    0.285053
     29          1           0        2.602786    0.031658   -2.197925
     30          1           0        2.927255    1.639980   -2.141924
     31          1           0        1.326293    1.137516   -1.845345
 ---------------------------------------------------------------------

 SCF Done:  E(RB3LYP) =  -796.559145231     A.U. after    1 cycles

 Alpha  occ. eigenvalues --  -19.32568 -19.26883 -19.24833 -14.58917 -14.53134
 Alpha  occ. eigenvalues --  -14.49271 -14.47158 -10.45218 -10.42528 -10.39952
 Alpha  occ. eigenvalues --  -10.38777 -10.38435 -10.35978 -10.35148 -10.34519
 Alpha  occ. eigenvalues --  -10.33648  -1.23421  -1.17057  -1.15797  -1.15249
 Alpha  occ. eigenvalues --   -1.13558  -1.06238  -1.01670  -0.94383  -0.92453
 Alpha  occ. eigenvalues --   -0.87949  -0.82432  -0.79864  -0.76075  -0.75206
 Alpha  occ. eigenvalues --   -0.73209  -0.72568  -0.71383  -0.70892  -0.68325
 Alpha  occ. eigenvalues --   -0.67083  -0.64332  -0.62900  -0.62172  -0.59849
 Alpha  occ. eigenvalues --   -0.59317  -0.57887  -0.57350  -0.56938  -0.55717
 Alpha  occ. eigenvalues --   -0.55219  -0.54743  -0.53849  -0.52846  -0.52560
 Alpha  occ. eigenvalues --   -0.51356  -0.50162  -0.49093  -0.44552  -0.43935
 Alpha  occ. eigenvalues --   -0.42504  -0.40628  -0.39253  -0.38707  -0.36293
 Alpha virt. eigenvalues --   -0.13031  -0.11834  -0.11516  -0.10776  -0.08905
 Alpha virt. eigenvalues --   -0.06390  -0.06107  -0.04712  -0.04384  -0.01803
 Alpha virt. eigenvalues --   -0.01231  -0.01203   0.00143   0.01029   0.02226

 Mulliken charges:
               1
     1  O   -0.521443
     2  C    0.605005
     3  N   -0.535449
     4  C   -0.003638
     5  C    0.611183
     6  O   -0.451282
     7  O   -0.442336
     8  C   -0.268240
     9  C    0.316051
    10  C   -0.018068
    11  N   -0.538529
    12  C    0.287864
    13  N   -0.491738
    14  C   -0.287918
    15  C   -0.113677
    16  N   -0.581439
    17  H    0.290611
    18  H    0.158946
    19  H    0.339951
    20  H    0.146887
    21  H    0.160225
    22  H    0.135571
    23  H    0.159625
    24  H    0.299186
    25  H    0.121591
    26  H    0.193143
    27  H    0.169997
    28  H    0.195084
    29  H    0.334146
    30  H    0.341481
    31  H    0.387208
 Sum of Mulliken charges =   1.00000

 Dipole moment (field-independent basis, Debye):
    X=              4.0765    Y=              3.8209    Z=             -0.6196  Tot=              5.6215
 Quadrupole moment (field-independent basis, Debye-Ang):
   XX=            -49.2028   YY=            -77.4845   ZZ=            -81.2112
   XY=              2.1073   XZ=            -26.2389   YZ=            -12.5094

  Exact polarizability: 126.815  12.954 124.725 -20.780  -2.579 103.244
 Approx polarizability: 177.074  10.287 198.440 -39.242  17.212 173.611

                      1                      2                      3
                      A                      A                      A
 Frequencies --     40.4526                63.0984                75.5992
 Red. masses --      4.7430                 3.5665                 7.3303
 Frc consts  --      0.0046                 0.0084                 0.0247
 IR Inten    --      5.3369                 5.9097                 5.4526

                      4                      5                      6
                      A                      A                      A
 Frequencies --     93.8036               105.5487               132.6468
 Red. masses --      4.6029                 4.7055                 4.1904
 Frc consts  --      0.0239                 0.0309                 0.0434
 IR Inten    --      7.3617                 0.3369                26.2428

                      7                      8                      9
                      A                      A                      A
 Frequencies --    150.0193               180.6127               213.7952
 Red. masses --      5.1512                 6.5988                 4.4476
 Frc consts  --      0.0683                 0.1268                 0.1198
 IR Inten    --      6.6791                13.9722                 3.6828

                     10                     11                     12
                      A                      A                      A
 Frequencies --    262.1909               292.6175               298.3346
 Red. masses --      3.0542                 3.2515                 5.2397
 Frc consts  --      0.1237                 0.1640                 0.2748
 IR Inten    --      7.1651                62.5084                22.7686

                     13                     14                     15
                      A                      A                      A
 Frequencies --    313.1823               327.5744               341.1662
 Red. masses --      2.9017                 3.3364                 4.1645
 Frc consts  --      0.1677                 0.2109                 0.2856
 IR Inten    --     18.3286                21.0927                22.9760

                     16                     17                     18
                      A                      A                      A
 Frequencies --    388.3822               446.8736               485.1674
 Red. masses --      1.9938                 2.2415                 1.4264
 Frc consts  --      0.1772                 0.2637                 0.1978
 IR Inten    --      4.1453                28.8105                40.8268

                     19                     20                     21
                      A                      A                      A
 Frequencies --    514.1618               528.2528               602.4005
 Red. masses --      1.5944                 2.4332                 1.5824
 Frc consts  --      0.2483                 0.4000                 0.3383
 IR Inten    --     21.1065                67.2785                78.4596

                     22                     23                     24
                      A                      A                      A
 Frequencies --    610.6531               627.3952               654.0694
 Red. masses --      2.4127                 5.4454                 1.7551
 Frc consts  --      0.5301                 1.2629                 0.4424
 IR Inten    --     69.3505                 4.6585                36.5903

                     25                     26                     27
                      A                      A                      A
 Frequencies --    664.4693               693.2736               708.7236
 Red. masses --      2.2541                 3.6900                 3.4051
 Frc consts  --      0.5864                 1.0449                 1.0077
 IR Inten    --     19.6178                18.5652                 8.6390

                     28                     29                     30
                      A                      A                      A
 Frequencies --    719.4337               784.5861               813.1528
 Red. masses --      3.8247                 4.5751                 1.4547
 Frc consts  --      1.1664                 1.6593                 0.5667
 IR Inten    --      0.3145                 3.5681                 4.1120

                     31                     32                     33
                      A                      A                      A
 Frequencies --    836.9418               845.8433               871.1692
 Red. masses --      2.5909                 2.8980                 1.4228
 Frc consts  --      1.0693                 1.2216                 0.6362
 IR Inten    --      5.0481                 8.8334                17.4153

                     34                     35                     36
                      A                      A                      A
 Frequencies --    899.9119               927.2299               949.5117
 Red. masses --      2.4501                 2.7410                 1.7207
 Frc consts  --      1.1690                 1.3884                 0.9140
 IR Inten    --     20.9325                 9.3510                18.2919

                     37                     38                     39
                      A                      A                      A
 Frequencies --    964.6022               970.5974              1021.7543
 Red. masses --      3.1214                 3.2069                 2.7260
 Frc consts  --      1.7112                 1.7800                 1.6768
 IR Inten    --      9.3692                 7.7440                 2.1591

                     40                     41                     42
                      A                      A                      A
 Frequencies --   1033.9601              1043.8010              1104.8172
 Red. masses --      2.9778                 2.7455                 1.8660
 Frc consts  --      1.8757                 1.7624                 1.3420
 IR Inten    --     13.7001                 2.7412                 2.3551

                     43                     44                     45
                      A                      A                      A
 Frequencies --   1132.5848              1143.4619              1159.4837
 Red. masses --      1.4350                 2.2200                 1.4901
 Frc consts  --      1.0846                 1.7102                 1.1803
 IR Inten    --     10.0769                40.9641                18.5535

                     46                     47                     48
                      A                      A                      A
 Frequencies --   1163.2938              1188.5214              1227.4905
 Red. masses --      1.9285                 1.5211                 1.4754
 Frc consts  --      1.5376                 1.2659                 1.3098
 IR Inten    --      2.6707                16.1233                14.1624

                     49                     50                     51
                      A                      A                      A
 Frequencies --   1250.9758              1260.0039              1275.2541
 Red. masses --      1.5200                 1.5511                 1.3176
 Frc consts  --      1.4015                 1.4509                 1.2625
 IR Inten    --     71.4824                 5.3905                11.7655

                     52                     53                     54
                      A                      A                      A
 Frequencies --   1295.8690              1308.9127              1315.9406
 Red. masses --      1.6772                 1.5686                 1.7806
 Frc consts  --      1.6594                 1.5833                 1.8167
 IR Inten    --    110.9864                37.4948               188.1676

                     55                     56                     57
                      A                      A                      A
 Frequencies --   1335.0004              1361.0963              1382.3500
 Red. masses --      1.1989                 2.8118                 1.5093
 Frc consts  --      1.2589                 3.0691                 1.6993
 IR Inten    --      0.6929                98.4603                58.0425

                     58                     59                     60
                      A                      A                      A
 Frequencies --   1408.4692              1418.5678              1425.5532
 Red. masses --      1.4270                 1.6868                 2.0006
 Frc consts  --      1.6679                 2.0000                 2.3955
 IR Inten    --     74.6045                18.5272                31.9421

                     61                     62                     63
                      A                      A                      A
 Frequencies --   1457.7181              1470.1301              1487.5801
 Red. masses --      2.6772                 1.0846                 1.2065
 Frc consts  --      3.3519                 1.3812                 1.5730
 IR Inten    --     22.3608                18.1939                26.7485

                     64                     65                     66
                      A                      A                      A
 Frequencies --   1511.4559              1522.8984              1561.6889
 Red. masses --      1.1514                 2.5762                 1.8993
 Frc consts  --      1.5498                 3.5202                 2.7292
 IR Inten    --     26.9753                34.6849               234.6607

                     67                     68                     69
                      A                      A                      A
 Frequencies --   1584.9127              1634.0562              1662.5674
 Red. masses --      1.1609                 4.2087                 1.0390
 Frc consts  --      1.7181                 6.6211                 1.6921
 IR Inten    --     95.5858                24.5930                19.1301

                     70                     71                     72
                      A                      A                      A
 Frequencies --   1721.3856              1787.6943              1856.0372
 Red. masses --      1.0485                 9.4395                 9.3699
 Frc consts  --      1.8306                17.7741                19.0178
 IR Inten    --     34.2104               195.8277               137.0960

                     73                     74                     75
                      A                      A                      A
 Frequencies --   2180.4790              3041.3799              3057.8850
 Red. masses --      1.1250                 1.0841                 1.0637
 Frc consts  --      3.1515                 5.9085                 5.8601
 IR Inten    --   2274.0771                15.0185                 7.4561

                     76                     77                     78
                      A                      A                      A
 Frequencies --   3060.2261              3100.8470              3110.0768
 Red. masses --      1.0678                 1.0787                 1.0813
 Frc consts  --      5.8918                 6.1112                 6.1622
 IR Inten    --     17.9143                 5.3621                 4.3720

                     79                     80                     81
                      A                      A                      A
 Frequencies --   3128.3295              3164.1829              3275.6496
 Red. masses --      1.0970                 1.1105                 1.0972
 Frc consts  --      6.3251                 6.5508                 6.9365
 IR Inten    --      1.7867                 0.4023                 1.6027

                     82                     83                     84
                      A                      A                      A
 Frequencies --   3281.2208              3456.7012              3524.4373
 Red. masses --      1.1010                 1.0526                 1.0928
 Frc consts  --      6.9842                 7.4100                 7.9979
 IR Inten    --      2.4544                61.1445                55.0608

                     85                     86                     87
                      A                      A                      A
 Frequencies --   3560.0417              3654.5529              3787.6376
 Red. masses --      1.0770                 1.0824                 1.0664
 Frc consts  --      8.0426                 8.5177                 9.0139
 IR Inten    --    103.8958                96.6167                60.9940

 - Thermochemistry -
 -------------------
 Temperature   298.150 Kelvin.  Pressure   1.00000 Atm.
 Atom     1 has atomic number  8 and mass  15.99491

 Molecular mass:   227.11442 amu.
 Principal axes and moments of inertia in atomic units:
                           1         2         3
     Eigenvalues --  2275.805194248.784215004.09782
           X            0.70008   0.71406  -0.00349
           Y            0.67244  -0.65762   0.33965
           Z           -0.24024   0.24012   0.94055
 This molecule is an asymmetric top.
 Rotational symmetry number  1.
 Warning -- assumption of classical behavior for rotation
           may cause significant error
 Rotational temperatures (Kelvin)      0.03806     0.02039     0.01731
 Rotational constants (GHZ):           0.79301     0.42477     0.36065
 Zero-point vibrational energy     683644.2 (Joules/Mol)
                                  163.39488 (Kcal/Mol)
 Warning -- explicit consideration of  22 degrees of freedom as
           vibrations may cause significant error
 Vibrational temperatures:     58.20    90.78   108.77   134.96   151.86
          (Kelvin)            190.85   215.84   259.86   307.60   377.23
                              421.01   429.24   450.60   471.31   490.86
                              558.79   642.95   698.05   739.76   760.04
                              866.72   878.59   902.68   941.06   956.02
                              997.46  1019.69  1035.10  1128.84  1169.94
                             1204.17  1216.98  1253.42  1294.77  1334.08
                             1366.13  1387.85  1396.47  1470.07  1487.64
                             1501.79  1589.58  1629.53  1645.18  1668.24
                             1673.72  1710.02  1766.08  1799.87  1812.86
                             1834.80  1864.46  1883.23  1893.34  1920.77
                             1958.31  1988.89  2026.47  2041.00  2051.05
                             2097.33  2115.19  2140.29  2174.65  2191.11
                             2246.92  2280.33  2351.04  2392.06  2476.69
                             2572.09  2670.42  3137.22  4375.86  4399.61
                             4402.98  4461.42  4474.70  4500.96  4552.55
                             4712.92  4720.94  4973.42  5070.87  5122.10
                             5258.08  5449.56

 Zero-point correction=                           0.260386 (Hartree/Particle)
 Thermal correction to Energy=                    0.275337
 Thermal correction to Enthalpy=                  0.276281
 Thermal correction to Gibbs Free Energy=         0.218162
 Sum of electronic and zero-point Energies=           -796.298759
 Sum of electronic and thermal Energies=              -796.283808
 Sum of electronic and thermal Enthalpies=            -796.282864
 Sum of electronic and thermal Free Energies=         -796.340983

                     E (Thermal)             CV                S
                      KCal/Mol        Cal/Mol-Kelvin    Cal/Mol-Kelvin
 Total                  172.776             57.275            122.322
 Electronic               0.000              0.000              0.000
 Translational            0.889              2.981             42.163
 Rotational               0.889              2.981             32.248
 Vibrational            170.999             51.314             47.911
 Vibration     1          0.594              1.981              5.237
 Vibration     2          0.597              1.972              4.358
 Vibration     3          0.599              1.965              4.002
 Vibration     4          0.603              1.954              3.579
 Vibration     5          0.605              1.945              3.349
 Vibration     6          0.613              1.921              2.907
 Vibration     7          0.618              1.903              2.672
 Vibration     8          0.630              1.866              2.322
 Vibration     9          0.644              1.820              2.011
 Vibration    10          0.669              1.742              1.647
 Vibration    11          0.688              1.687              1.459
 Vibration    12          0.691              1.677              1.426
 Vibration    13          0.701              1.649              1.345
 Vibration    14          0.711              1.620              1.272
 Vibration    15          0.721              1.593              1.207
 Vibration    16          0.757              1.495              1.006
 Vibration    17          0.806              1.368              0.805
 Vibration    18          0.841              1.283              0.696
 Vibration    19          0.869              1.219              0.624
 Vibration    20          0.883              1.187              0.591
 Vibration    21          0.961              1.027              0.446
 Vibration    22          0.970              1.009              0.432

 Optimization completed.
    -- Stationary point found.
 Normal termination of Gaussian 09 at Sat Jul 24 02:38:57 2021.
