 Gaussian 09, Revision D.01,
 Gaussian 09:  ES64L-G09RevD.01 24-Apr-2013

 ----------------------------------------------------------------------
 # B3LYP/6-31G(d,p) EmpiricalDispersion=GD3BJ opt=calcfc freq=noraman n
 osymm integral(ultrafinegrid)
 ----------------------------------------------------------------------

 ------------------------------------------------------------
 Candidate Structure: Conf:214 OPT and FREQ calc in gas phase
 ------------------------------------------------------------
 Symbolic Z-matrix:
 Charge =  1 Multiplicity = 1

 SCF Done:  E(RB3LYP) =  -796.518631503     A.U. after   14 cycles
 SCF Done:  E(RB3LYP) =  -796.524365130     A.U. after   13 cycles
 SCF Done:  E(RB3LYP) =  -796.525324614     A.U. after   13 cycles
 SCF Done:  E(RB3LYP) =  -796.525485930     A.U. after   14 cycles
 SCF Done:  E(RB3LYP) =  -796.525669552     A.U. after   16 cycles
 SCF Done:  E(RB3LYP) =  -796.524084168     A.U. after   15 cycles
 SCF Done:  E(RB3LYP) =  -796.526271895     A.U. after   12 cycles
 SCF Done:  E(RB3LYP) =  -796.519679055     A.U. after   14 cycles
 SCF Done:  E(RB3LYP) =  -796.526529874     A.U. after   10 cycles
 SCF Done:  E(RB3LYP) =  -796.526972712     A.U. after   13 cycles
 SCF Done:  E(RB3LYP) =  -796.539685220     A.U. after   13 cycles
 SCF Done:  E(RB3LYP) =  -796.540179822     A.U. after   12 cycles
 SCF Done:  E(RB3LYP) =  -796.540354398     A.U. after   12 cycles
 SCF Done:  E(RB3LYP) =  -796.540841161     A.U. after   12 cycles
 SCF Done:  E(RB3LYP) =  -796.540877693     A.U. after   11 cycles
 SCF Done:  E(RB3LYP) =  -796.540895192     A.U. after   10 cycles
 SCF Done:  E(RB3LYP) =  -796.540897195     A.U. after    9 cycles
 SCF Done:  E(RB3LYP) =  -796.540897882     A.U. after    8 cycles
 SCF Done:  E(RB3LYP) =  -796.540898199     A.U. after    7 cycles
 Optimization completed.
    -- Stationary point found.
 Normal termination of Gaussian 09 at Sat Jul 24 02:00:57 2021.

 ----------------------------------------------------------------------
 #N Geom=AllCheck Guess=TCheck SCRF=Check GenChk RB3LYP/6-31G(d,p) Freq
 ----------------------------------------------------------------------

 Structure from the checkpoint file:  "conf-214.chk"
 ------------------------------------------------------------
 Candidate Structure: Conf:214 OPT and FREQ calc in gas phase
 ------------------------------------------------------------
 Charge =  1 Multiplicity = 1

                          Input orientation:
 ---------------------------------------------------------------------
 Center     Atomic      Atomic             Coordinates (Angstroms)
 Number     Number       Type             X           Y           Z
 ---------------------------------------------------------------------
      1          8           0       -1.235351   -1.662948   -0.771270
      2          6           0       -1.063561   -0.953208    0.210806
      3          7           0       -0.039220   -1.090231    1.083745
      4          6           0        1.134799   -1.881042    0.760909
      5          6           0        2.120824   -1.680643    1.910885
      6          8           0        3.036936   -2.634087    2.102113
      7          8           0        2.135452   -0.659175    2.565973
      8          6           0        1.833603   -1.405289   -0.571272
      9          6           0        1.648910    0.056696   -0.792271
     10          6           0        0.876526    0.714251   -1.720428
     11          7           0        0.780403    2.059369   -1.422781
     12          6           0        1.504461    2.222309   -0.328556
     13          7           0        2.053928    1.045491    0.088641
     14          6           0       -2.046340    0.192534    0.522684
     15          6           0       -2.273970    0.946026   -0.780917
     16          7           0       -3.447564    1.913992   -0.662838
     17          1           0        0.128932   -0.384646    1.791884
     18          1           0        0.856550   -2.934570    0.657082
     19          1           0        2.868404   -3.413181    1.550423
     20          1           0        2.888108   -1.703288   -0.542669
     21          1           0        1.366063   -1.928787   -1.405625
     22          1           0        0.374989    0.279568   -2.573442
     23          1           0        1.677288    3.157437    0.185110
     24          1           0        2.582250    0.898204    0.939178
     25          1           0       -1.667679    0.856285    1.306071
     26          1           0       -2.978159   -0.265207    0.877731
     27          1           0       -2.518257    0.244608   -1.579497
     28          1           0       -1.407782    1.550255   -1.065812
     29          1           0       -3.275540    2.617716    0.062641
     30          1           0       -3.596275    2.413639   -1.546073
     31          1           0       -4.318743    1.428029   -0.424617
 ---------------------------------------------------------------------

 SCF Done:  E(RB3LYP) =  -796.540898199     A.U. after    1 cycles

 Alpha  occ. eigenvalues --  -19.32277 -19.26523 -19.24688 -14.65069 -14.49793
 Alpha  occ. eigenvalues --  -14.49110 -14.42633 -10.44945 -10.42662 -10.41100
 Alpha  occ. eigenvalues --  -10.37309 -10.36133 -10.35068 -10.33081 -10.32483
 Alpha  occ. eigenvalues --  -10.30571  -1.23136  -1.18978  -1.16936  -1.14877
 Alpha  occ. eigenvalues --   -1.12181  -1.06016  -0.97934  -0.95175  -0.91477
 Alpha  occ. eigenvalues --   -0.86086  -0.82688  -0.78829  -0.77446  -0.76808
 Alpha  occ. eigenvalues --   -0.74683  -0.72076  -0.71374  -0.69750  -0.67904
 Alpha  occ. eigenvalues --   -0.67035  -0.64517  -0.63183  -0.61056  -0.59480
 Alpha  occ. eigenvalues --   -0.58745  -0.57102  -0.56765  -0.56032  -0.55443
 Alpha  occ. eigenvalues --   -0.53930  -0.52844  -0.51773  -0.51568  -0.51287
 Alpha  occ. eigenvalues --   -0.50886  -0.49284  -0.48696  -0.44296  -0.40722
 Alpha  occ. eigenvalues --   -0.39125  -0.39020  -0.38714  -0.37815  -0.33596
 Alpha virt. eigenvalues --   -0.15425  -0.12554  -0.11605  -0.08866  -0.08535
 Alpha virt. eigenvalues --   -0.08283  -0.06128  -0.05741  -0.04449  -0.02388
 Alpha virt. eigenvalues --   -0.01066   0.00062   0.00571   0.01304   0.02560

 Mulliken charges:
               1
     1  O   -0.509845
     2  C    0.618677
     3  N   -0.526732
     4  C   -0.011324
     5  C    0.609087
     6  O   -0.450491
     7  O   -0.463770
     8  C   -0.272816
     9  C    0.289997
    10  C   -0.025044
    11  N   -0.465728
    12  C    0.247577
    13  N   -0.522744
    14  C   -0.290026
    15  C   -0.142017
    16  N   -0.547509
    17  H    0.288472
    18  H    0.152495
    19  H    0.343105
    20  H    0.142970
    21  H    0.169690
    22  H    0.111675
    23  H    0.139034
    24  H    0.294875
    25  H    0.133763
    26  H    0.160092
    27  H    0.208446
    28  H    0.217239
    29  H    0.364854
    30  H    0.373501
    31  H    0.362495
 Sum of Mulliken charges =   1.00000

 Dipole moment (field-independent basis, Debye):
    X=            -10.0819    Y=              3.9884    Z=             -0.0239  Tot=             10.8422
 Quadrupole moment (field-independent basis, Debye-Ang):
   XX=            -33.9459   YY=            -62.5472   ZZ=            -94.6189
   XY=            -36.4315   XZ=              5.2818   YZ=             -2.7404

  Exact polarizability: 120.566 -17.801 129.913  18.842  -1.775 105.967
 Approx polarizability: 165.350 -18.871 203.956  35.048  15.985 180.996

                      1                      2                      3
                      A                      A                      A
 Frequencies --     47.9007                59.3556                71.7097
 Red. masses --      4.4438                 3.6644                 4.0898
 Frc consts  --      0.0060                 0.0076                 0.0124
 IR Inten    --      9.8132                 5.9755                 8.0261

                      4                      5                      6
                      A                      A                      A
 Frequencies --     73.2889                96.6044               109.1835
 Red. masses --      4.3315                 3.2648                 4.7389
 Frc consts  --      0.0137                 0.0180                 0.0333
 IR Inten    --      3.0909                 6.9796                 3.6560

                      7                      8                      9
                      A                      A                      A
 Frequencies --    120.5927               139.7683               150.4557
 Red. masses --      4.0104                 5.4000                 4.7069
 Frc consts  --      0.0344                 0.0622                 0.0628
 IR Inten    --     32.9401                 0.2671                36.7555

                     10                     11                     12
                      A                      A                      A
 Frequencies --    193.7150               201.6488               231.7245
 Red. masses --      4.6079                 4.0673                 1.1698
 Frc consts  --      0.1019                 0.0974                 0.0370
 IR Inten    --     12.1189                 4.5822                 0.4155

                     13                     14                     15
                      A                      A                      A
 Frequencies --    278.8244               313.9600               329.6699
 Red. masses --      6.5220                 4.7520                 3.0447
 Frc consts  --      0.2987                 0.2760                 0.1950
 IR Inten    --      4.1915                 0.2468                 8.8005

                     16                     17                     18
                      A                      A                      A
 Frequencies --    348.1757               375.1981               444.1874
 Red. masses --      3.4873                 3.4722                 3.5662
 Frc consts  --      0.2491                 0.2880                 0.4146
 IR Inten    --      6.7549                27.5243                19.2797

                     19                     20                     21
                      A                      A                      A
 Frequencies --    521.1887               542.5294               580.7025
 Red. masses --      1.2710                 2.3841                 1.7435
 Frc consts  --      0.2034                 0.4134                 0.3464
 IR Inten    --     51.6331                66.5878               170.9282

                     22                     23                     24
                      A                      A                      A
 Frequencies --    614.1628               641.7337               671.0245
 Red. masses --      1.9333                 5.8894                 2.1113
 Frc consts  --      0.4296                 1.4290                 0.5601
 IR Inten    --     23.4053                 8.0773                 7.0045

                     25                     26                     27
                      A                      A                      A
 Frequencies --    680.4789               688.7358               729.8322
 Red. masses --      2.8565                 2.4573                 5.4145
 Frc consts  --      0.7793                 0.6868                 1.6992
 IR Inten    --     25.4293                 1.9261                 6.0593

                     28                     29                     30
                      A                      A                      A
 Frequencies --    732.6969               790.4050               808.7026
 Red. masses --      4.0951                 3.5813                 1.2432
 Frc consts  --      1.2953                 1.3182                 0.4790
 IR Inten    --      1.4686                 2.9440                 8.0332

                     31                     32                     33
                      A                      A                      A
 Frequencies --    819.3678               837.8450               860.3260
 Red. masses --      1.3898                 1.6887                 2.2526
 Frc consts  --      0.5497                 0.6984                 0.9823
 IR Inten    --      8.0564                30.9148                 9.4085

                     34                     35                     36
                      A                      A                      A
 Frequencies --    887.8413               916.0071               923.9139
 Red. masses --      2.5885                 3.5798                 1.3391
 Frc consts  --      1.2022                 1.7697                 0.6735
 IR Inten    --     30.9062                 4.7372                 3.6831

                     37                     38                     39
                      A                      A                      A
 Frequencies --    945.7870               946.8510               982.0063
 Red. masses --      5.9038                 2.9250                 2.1554
 Frc consts  --      3.1115                 1.5450                 1.2246
 IR Inten    --     11.8156                10.5003                27.9921

                     40                     41                     42
                      A                      A                      A
 Frequencies --   1012.8604              1043.1826              1085.8823
 Red. masses --      3.1166                 2.9043                 1.6361
 Frc consts  --      1.8838                 1.8621                 1.1367
 IR Inten    --     19.4061                 2.8116                 5.5273

                     43                     44                     45
                      A                      A                      A
 Frequencies --   1128.9037              1144.9718              1152.0754
 Red. masses --      2.2261                 1.8425                 1.8263
 Frc consts  --      1.6715                 1.4231                 1.4282
 IR Inten    --     30.5762                22.2185                 8.2277

                     46                     47                     48
                      A                      A                      A
 Frequencies --   1153.2909              1175.6680              1207.4821
 Red. masses --      2.4280                 1.4397                 1.4587
 Frc consts  --      1.9027                 1.1725                 1.2530
 IR Inten    --      3.8966                14.1288                13.1879

                     49                     50                     51
                      A                      A                      A
 Frequencies --   1249.1429              1260.3302              1277.6216
 Red. masses --      1.5933                 1.3155                 2.2661
 Frc consts  --      1.4648                 1.2312                 2.1794
 IR Inten    --     39.9757                56.6728                 3.0815

                     52                     53                     54
                      A                      A                      A
 Frequencies --   1286.6354              1293.9968              1308.8490
 Red. masses --      1.3881                 1.3249                 1.5649
 Frc consts  --      1.3539                 1.3071                 1.5795
 IR Inten    --     28.9960                 1.2093               179.7666

                     55                     56                     57
                      A                      A                      A
 Frequencies --   1337.5859              1365.9782              1374.7887
 Red. masses --      1.3701                 1.3506                 1.5786
 Frc consts  --      1.4442                 1.4847                 1.7579
 IR Inten    --     43.2260                38.4937                34.6882

                     58                     59                     60
                      A                      A                      A
 Frequencies --   1392.6193              1413.7144              1433.3637
 Red. masses --      4.3255                 2.5094                 1.2792
 Frc consts  --      4.9425                 2.9549                 1.5484
 IR Inten    --     51.7904               275.4047                11.0486

                     61                     62                     63
                      A                      A                      A
 Frequencies --   1451.3236              1488.6862              1491.0548
 Red. masses --      2.4027                 1.1153                 1.2422
 Frc consts  --      2.9818                 1.4563                 1.6272
 IR Inten    --     29.3997                 1.5368                20.9399

                     64                     65                     66
                      A                      A                      A
 Frequencies --   1511.5171              1517.3683              1531.1204
 Red. masses --      1.1725                 2.6242                 1.0770
 Frc consts  --      1.5783                 3.5599                 1.4876
 IR Inten    --    176.7166                13.2384                11.8184

                     67                     68                     69
                      A                      A                      A
 Frequencies --   1547.8190              1628.5319              1668.4757
 Red. masses --      2.1177                 4.2751                 1.0434
 Frc consts  --      2.9891                 6.6802                 1.7114
 IR Inten    --    204.4334                13.1460                50.6828

                     70                     71                     72
                      A                      A                      A
 Frequencies --   1673.3620              1786.7605              1840.4797
 Red. masses --      1.0436                 9.9479                 9.1263
 Frc consts  --      1.7218                18.7117                18.2141
 IR Inten    --     37.9938               223.9832               123.8590

                     73                     74                     75
                      A                      A                      A
 Frequencies --   3047.7778              3059.7994              3080.5909
 Red. masses --      1.0615                 1.0698                 1.0664
 Frc consts  --      5.8093                 5.9011                 5.9627
 IR Inten    --     13.1918                14.7445                60.5446

                     76                     77                     78
                      A                      A                      A
 Frequencies --   3082.4552              3106.7463              3148.9173
 Red. masses --      1.0862                 1.1037                 1.0953
 Frc consts  --      6.0806                 6.2764                 6.3991
 IR Inten    --     14.4120                 7.9485                 0.3309

                     79                     80                     81
                      A                      A                      A
 Frequencies --   3171.1940              3257.9181              3267.7087
 Red. masses --      1.1076                 1.0966                 1.0990
 Frc consts  --      6.5626                 6.8575                 6.9141
 IR Inten    --     13.1515                 1.3753                 0.3720

                     82                     83                     84
                      A                      A                      A
 Frequencies --   3403.1593              3498.1819              3499.7041
 Red. masses --      1.0299                 1.0939                 1.0935
 Frc consts  --      7.0279                 7.8867                 7.8911
 IR Inten    --     48.7044                89.0466                85.8335

                     85                     86                     87
                      A                      A                      A
 Frequencies --   3581.6634              3623.6489              3787.8717
 Red. masses --      1.0777                 1.0825                 1.0664
 Frc consts  --      8.1452                 8.3749                 9.0149
 IR Inten    --     68.5796               120.3037                73.3148

 - Thermochemistry -
 -------------------
 Temperature   298.150 Kelvin.  Pressure   1.00000 Atm.
 Atom     1 has atomic number  8 and mass  15.99491

 Molecular mass:   227.11442 amu.
 Principal axes and moments of inertia in atomic units:
                           1         2         3
     Eigenvalues --  2222.884004655.466435577.69286
           X            0.76704   0.63346  -0.10187
           Y           -0.50061   0.69020   0.52250
           Z            0.40129  -0.34978   0.84653
 This molecule is an asymmetric top.
 Rotational symmetry number  1.
 Warning -- assumption of classical behavior for rotation
           may cause significant error
 Rotational temperatures (Kelvin)      0.03896     0.01860     0.01553
 Rotational constants (GHZ):           0.81189     0.38766     0.32356
 Zero-point vibrational energy     685226.2 (Joules/Mol)
                                  163.77300 (Kcal/Mol)
 Warning -- explicit consideration of  22 degrees of freedom as
           vibrations may cause significant error
 Vibrational temperatures:     68.92    85.40   103.17   105.45   138.99
          (Kelvin)            157.09   173.51   201.10   216.47   278.71
                              290.13   333.40   401.17   451.72   474.32
                              500.95   539.83   639.09   749.87   780.58
                              835.50   883.64   923.31   965.45   979.06
                              990.94  1050.06  1054.19  1137.22  1163.54
                             1178.89  1205.47  1237.82  1277.40  1317.93
                             1329.30  1360.77  1362.31  1412.89  1457.28
                             1500.91  1562.34  1624.24  1647.36  1657.58
                             1659.33  1691.52  1737.30  1797.24  1813.33
                             1838.21  1851.18  1861.77  1883.14  1924.49
                             1965.34  1978.01  2003.67  2034.02  2062.29
                             2088.13  2141.88  2145.29  2174.73  2183.15
                             2202.94  2226.96  2343.09  2400.56  2407.59
                             2570.75  2648.04  4385.07  4402.36  4432.28
                             4434.96  4469.91  4530.58  4562.64  4687.41
                             4701.50  4896.38  5033.10  5035.29  5153.21
                             5213.62  5449.90

 Zero-point correction=                           0.260989 (Hartree/Particle)
 Thermal correction to Energy=                    0.276807
 Thermal correction to Enthalpy=                  0.277751
 Thermal correction to Gibbs Free Energy=         0.217181
 Sum of electronic and zero-point Energies=           -796.279909
 Sum of electronic and thermal Energies=              -796.264091
 Sum of electronic and thermal Enthalpies=            -796.263147
 Sum of electronic and thermal Free Energies=         -796.323717

                     E (Thermal)             CV                S
                      KCal/Mol        Cal/Mol-Kelvin    Cal/Mol-Kelvin
 Total                  173.699             58.454            127.480
 Electronic               0.000              0.000              0.000
 Translational            0.889              2.981             42.163
 Rotational               0.889              2.981             32.423
 Vibrational            171.922             52.492             52.893
 Vibration     1          0.595              1.978              4.902
 Vibration     2          0.597              1.974              4.479
 Vibration     3          0.598              1.967              4.106
 Vibration     4          0.599              1.967              4.063
 Vibration     5          0.603              1.952              3.522
 Vibration     6          0.606              1.942              3.283
 Vibration     7          0.609              1.932              3.091
 Vibration     8          0.615              1.914              2.807
 Vibration     9          0.618              1.902              2.666
 Vibration    10          0.635              1.849              2.192
 Vibration    11          0.639              1.838              2.118
 Vibration    12          0.653              1.792              1.866
 Vibration    13          0.679              1.713              1.541
 Vibration    14          0.702              1.647              1.341
 Vibration    15          0.712              1.616              1.262
 Vibration    16          0.726              1.579              1.174
 Vibration    17          0.746              1.523              1.058
 Vibration    18          0.804              1.374              0.814
 Vibration    19          0.876              1.203              0.607
 Vibration    20          0.898              1.156              0.560
 Vibration    21          0.937              1.073              0.484
 Vibration    22          0.974              1.002              0.426

 Normal termination of Gaussian 09 at Sat Jul 24 02:24:51 2021.
