 Gaussian 09, Revision D.01,
 Gaussian 09:  ES64L-G09RevD.01 24-Apr-2013

 ----------------------------------------------------------------------
 # B3LYP/6-31G(d,p) EmpiricalDispersion=GD3BJ opt=calcfc freq=noraman n
 osymm integral(ultrafinegrid)
 ----------------------------------------------------------------------

 ------------------------------------------------------------
 Candidate Structure: Conf:885 OPT and FREQ calc in gas phase
 ------------------------------------------------------------
 Symbolic Z-matrix:
 Charge =  1 Multiplicity = 1

 SCF Done:  E(RB3LYP) =  -796.542642031     A.U. after   14 cycles
 SCF Done:  E(RB3LYP) =  -796.549054944     A.U. after   15 cycles
 SCF Done:  E(RB3LYP) =  -796.549351722     A.U. after   15 cycles
 SCF Done:  E(RB3LYP) =  -796.551758731     A.U. after   15 cycles
 SCF Done:  E(RB3LYP) =  -794.874410890     A.U. after   18 cycles
 SCF Done:  E(RB3LYP) =  -796.496250574     A.U. after   13 cycles
 SCF Done:  E(RB3LYP) =  -796.552109140     A.U. after   11 cycles
 SCF Done:  E(RB3LYP) =  -796.552681374     A.U. after   14 cycles
 SCF Done:  E(RB3LYP) =  -796.553231022     A.U. after   12 cycles
 SCF Done:  E(RB3LYP) =  -796.553492745     A.U. after   12 cycles
 SCF Done:  E(RB3LYP) =  -796.556298937     A.U. after   10 cycles
 SCF Done:  E(RB3LYP) =  -796.556820256     A.U. after   13 cycles
 SCF Done:  E(RB3LYP) =  -796.557214175     A.U. after   11 cycles
 SCF Done:  E(RB3LYP) =  -796.557310797     A.U. after   11 cycles
 SCF Done:  E(RB3LYP) =  -796.557529337     A.U. after   12 cycles
 SCF Done:  E(RB3LYP) =  -796.557556723     A.U. after   11 cycles
 SCF Done:  E(RB3LYP) =  -796.557561557     A.U. after   11 cycles
 SCF Done:  E(RB3LYP) =  -796.557563431     A.U. after    9 cycles
 SCF Done:  E(RB3LYP) =  -796.557563746     A.U. after    7 cycles
 Optimization completed.
    -- Stationary point found.
 Normal termination of Gaussian 09 at Sat Jul 24 01:59:27 2021.

 ----------------------------------------------------------------------
 #N Geom=AllCheck Guess=TCheck SCRF=Check GenChk RB3LYP/6-31G(d,p) Freq
 ----------------------------------------------------------------------

 Structure from the checkpoint file:  "conf-885.chk"
 ------------------------------------------------------------
 Candidate Structure: Conf:885 OPT and FREQ calc in gas phase
 ------------------------------------------------------------
 Charge =  1 Multiplicity = 1

                          Input orientation:
 ---------------------------------------------------------------------
 Center     Atomic      Atomic             Coordinates (Angstroms)
 Number     Number       Type             X           Y           Z
 ---------------------------------------------------------------------
      1          8           0       -1.426563   -0.156595   -1.403137
      2          6           0       -1.523431   -1.073333   -0.586193
      3          7           0       -0.516553   -1.481704    0.226794
      4          6           0        0.664865   -0.669055    0.498976
      5          6           0        0.256580    0.574108    1.295547
      6          8           0        1.282590    1.081361    1.958138
      7          8           0       -0.870241    1.053958    1.352020
      8          6           0        1.479250   -0.321405   -0.792660
      9          6           0        2.707323    0.478751   -0.547165
     10          6           0        2.960920    1.818021   -0.734688
     11          7           0        4.222016    2.150057   -0.298878
     12          6           0        4.741004    1.028180    0.150685
     13          7           0        3.864613   -0.016852    0.033524
     14          6           0       -2.903803   -1.664502   -0.328168
     15          6           0       -3.687307   -0.671051    0.555508
     16          7           0       -3.341807    0.757705    0.190294
     17          1           0       -0.719029   -2.222717    0.882569
     18          1           0        1.312965   -1.254018    1.156557
     19          1           0        1.010093    1.907226    2.397035
     20          1           0        1.700029   -1.282994   -1.270252
     21          1           0        0.826359    0.226679   -1.470085
     22          1           0        2.299445    2.556458   -1.167799
     23          1           0        5.733984    0.906654    0.560042
     24          1           0        4.063753   -0.981583    0.251869
     25          1           0       -3.397505   -1.779198   -1.295341
     26          1           0       -2.891879   -2.637248    0.170100
     27          1           0       -4.762672   -0.803766    0.435338
     28          1           0       -3.431320   -0.780169    1.610446
     29          1           0       -4.053641    1.418751    0.506391
     30          1           0       -2.412555    0.996542    0.619135
     31          1           0       -3.187392    0.841818   -0.824603
 ---------------------------------------------------------------------

 SCF Done:  E(RB3LYP) =  -796.557563746     A.U. after    1 cycles

 Alpha  occ. eigenvalues --  -19.34510 -19.30237 -19.27294 -14.60416 -14.52050
 Alpha  occ. eigenvalues --  -14.47994 -14.39420 -10.47870 -10.44829 -10.41996
 Alpha  occ. eigenvalues --  -10.39060 -10.36480 -10.32415 -10.32199 -10.31143
 Alpha  occ. eigenvalues --  -10.28452  -1.26230  -1.19742  -1.17021  -1.15041
 Alpha  occ. eigenvalues --   -1.09882  -1.08388  -0.95874  -0.95225  -0.92105
 Alpha  occ. eigenvalues --   -0.85687  -0.82691  -0.79387  -0.77145  -0.74843
 Alpha  occ. eigenvalues --   -0.73546  -0.72472  -0.70072  -0.68256  -0.67531
 Alpha  occ. eigenvalues --   -0.65845  -0.65211  -0.63369  -0.62244  -0.60746
 Alpha  occ. eigenvalues --   -0.60418  -0.59886  -0.57609  -0.56055  -0.55307
 Alpha  occ. eigenvalues --   -0.54519  -0.53211  -0.52811  -0.52421  -0.50700
 Alpha  occ. eigenvalues --   -0.49883  -0.49350  -0.48848  -0.47099  -0.44390
 Alpha  occ. eigenvalues --   -0.41729  -0.40445  -0.36558  -0.34703  -0.31320
 Alpha virt. eigenvalues --   -0.15441  -0.13735  -0.10859  -0.07797  -0.06638
 Alpha virt. eigenvalues --   -0.05127  -0.04614  -0.03793  -0.03199  -0.02594
 Alpha virt. eigenvalues --   -0.01821  -0.01356  -0.00102   0.01430   0.03234

 Mulliken charges:
               1
     1  O   -0.519786
     2  C    0.576003
     3  N   -0.501968
     4  C   -0.030222
     5  C    0.636150
     6  O   -0.425175
     7  O   -0.524070
     8  C   -0.258505
     9  C    0.288202
    10  C   -0.008382
    11  N   -0.427664
    12  C    0.270837
    13  N   -0.541692
    14  C   -0.282416
    15  C   -0.112989
    16  N   -0.573546
    17  H    0.287452
    18  H    0.157482
    19  H    0.353161
    20  H    0.140046
    21  H    0.177069
    22  H    0.097283
    23  H    0.136043
    24  H    0.267404
    25  H    0.181866
    26  H    0.156844
    27  H    0.190191
    28  H    0.182181
    29  H    0.348451
    30  H    0.399011
    31  H    0.360739
 Sum of Mulliken charges =   1.00000

 Dipole moment (field-independent basis, Debye):
    X=            -10.1867    Y=             -3.7284    Z=              4.7062  Tot=             11.8245
 Quadrupole moment (field-independent basis, Debye-Ang):
   XX=            -36.0010   YY=            -79.4827   ZZ=            -86.2501
   XY=            -14.6071   XZ=              1.8018   YZ=              1.7837

  Exact polarizability: 161.972  12.617 114.984  10.721  -2.313  90.519
 Approx polarizability: 208.906   5.104 190.900  23.566 -15.848 144.878

                      1                      2                      3
                      A                      A                      A
 Frequencies --      7.7791                37.7288                61.3039
 Red. masses --      5.4208                 4.1457                 4.9896
 Frc consts  --      0.0002                 0.0035                 0.0110
 IR Inten    --      2.7114                 3.8408                 1.6341

                      4                      5                      6
                      A                      A                      A
 Frequencies --     82.8483                88.2230               115.9048
 Red. masses --      4.3046                 6.8901                 3.6142
 Frc consts  --      0.0174                 0.0316                 0.0286
 IR Inten    --      3.9538                 7.4226                 2.4951

                      7                      8                      9
                      A                      A                      A
 Frequencies --    135.6115               170.9817               200.8749
 Red. masses --      4.8726                 4.9430                 3.6097
 Frc consts  --      0.0528                 0.0851                 0.0858
 IR Inten    --     10.0569                 7.2262                 8.1820

                     10                     11                     12
                      A                      A                      A
 Frequencies --    213.5111               257.2743               294.2734
 Red. masses --      3.9933                 3.1073                 4.6270
 Frc consts  --      0.1073                 0.1212                 0.2361
 IR Inten    --     14.2992                87.4233                 4.2291

                     13                     14                     15
                      A                      A                      A
 Frequencies --    315.6569               321.9201               332.6145
 Red. masses --      1.3152                 2.2245                 4.6969
 Frc consts  --      0.0772                 0.1358                 0.3062
 IR Inten    --      1.0646                 6.1166                 9.0677

                     16                     17                     18
                      A                      A                      A
 Frequencies --    370.4581               391.8865               446.3942
 Red. masses --      4.4212                 4.2649                 3.5665
 Frc consts  --      0.3575                 0.3859                 0.4187
 IR Inten    --      3.3117                11.3033                 3.6539

                     19                     20                     21
                      A                      A                      A
 Frequencies --    508.1523               511.7234               534.7199
 Red. masses --      1.7178                 1.5445                 1.7151
 Frc consts  --      0.2613                 0.2383                 0.2889
 IR Inten    --     51.1552               100.4689                43.8735

                     22                     23                     24
                      A                      A                      A
 Frequencies --    610.6077               619.5693               666.2095
 Red. masses --      3.3345                 1.3780                 2.6747
 Frc consts  --      0.7325                 0.3117                 0.6994
 IR Inten    --     40.2557                80.8262                38.2130

                     25                     26                     27
                      A                      A                      A
 Frequencies --    678.1470               706.8122               745.0875
 Red. masses --      3.2628                 3.9191                 3.1747
 Frc consts  --      0.8841                 1.1536                 1.0384
 IR Inten    --      7.8528                 1.8651                34.2107

                     28                     29                     30
                      A                      A                      A
 Frequencies --    757.8019               788.0261               791.6305
 Red. masses --      3.1435                 3.1223                 3.1866
 Frc consts  --      1.0636                 1.1424                 1.1766
 IR Inten    --      3.2361                25.3068                21.4984

                     31                     32                     33
                      A                      A                      A
 Frequencies --    821.4678               846.7439               855.8982
 Red. masses --      1.3838                 2.1724                 1.4264
 Frc consts  --      0.5502                 0.9177                 0.6157
 IR Inten    --     15.4302                14.3411                12.0678

                     34                     35                     36
                      A                      A                      A
 Frequencies --    871.8627               927.2791               935.6135
 Red. masses --      2.8443                 2.1428                 5.9136
 Frc consts  --      1.2739                 1.0856                 3.0500
 IR Inten    --     14.9359                 8.7825                10.3052

                     37                     38                     39
                      A                      A                      A
 Frequencies --    982.4058               986.0060              1012.5513
 Red. masses --      1.7455                 2.1138                 3.2895
 Frc consts  --      0.9926                 1.2108                 1.9871
 IR Inten    --     20.0095                 1.2877                 6.7416

                     40                     41                     42
                      A                      A                      A
 Frequencies --   1022.0574              1038.3461              1079.1518
 Red. masses --      3.6272                 3.5868                 1.7518
 Frc consts  --      2.2324                 2.2785                 1.2020
 IR Inten    --      5.1853                 3.4477                14.8547

                     43                     44                     45
                      A                      A                      A
 Frequencies --   1113.6253              1125.6964              1145.9669
 Red. masses --      1.6068                 1.3984                 1.7982
 Frc consts  --      1.1741                 1.0440                 1.3913
 IR Inten    --     24.1148                36.9968                 4.5990

                     46                     47                     48
                      A                      A                      A
 Frequencies --   1160.1471              1181.2350              1205.5739
 Red. masses --      1.9919                 1.3721                 2.0394
 Frc consts  --      1.5796                 1.1280                 1.7463
 IR Inten    --     21.9539                22.7452               140.2055

                     49                     50                     51
                      A                      A                      A
 Frequencies --   1244.7270              1275.0374              1286.2385
 Red. masses --      1.5189                 1.9790                 1.4056
 Frc consts  --      1.3865                 1.8956                 1.3701
 IR Inten    --     12.8790                13.2478                 2.6894

                     52                     53                     54
                      A                      A                      A
 Frequencies --   1315.4782              1320.6913              1324.5666
 Red. masses --      1.5296                 1.3675                 1.3646
 Frc consts  --      1.5595                 1.4053                 1.4106
 IR Inten    --     50.3454                 1.6055                33.0168

                     55                     56                     57
                      A                      A                      A
 Frequencies --   1332.0918              1363.5421              1370.7817
 Red. masses --      1.4527                 1.5005                 1.3285
 Frc consts  --      1.5187                 1.6437                 1.4708
 IR Inten    --     38.4555                16.9015                12.6832

                     58                     59                     60
                      A                      A                      A
 Frequencies --   1400.0724              1415.3829              1442.5398
 Red. masses --      3.4464                 1.2972                 2.9935
 Frc consts  --      3.9803                 1.5311                 3.6701
 IR Inten    --     29.7602                 3.3615                22.9463

                     61                     62                     63
                      A                      A                      A
 Frequencies --   1454.5881              1497.8097              1502.2850
 Red. masses --      2.6778                 1.0987                 1.4738
 Frc consts  --      3.3382                 1.4522                 1.9597
 IR Inten    --     38.5924                15.8221                18.1585

                     64                     65                     66
                      A                      A                      A
 Frequencies --   1514.3986              1515.9440              1559.3309
 Red. masses --      2.0603                 1.0864                 1.6739
 Frc consts  --      2.7839                 1.4709                 2.3981
 IR Inten    --     14.1671                13.9549               279.5205

                     67                     68                     69
                      A                      A                      A
 Frequencies --   1567.0674              1611.8272              1623.0559
 Red. masses --      1.2977                 1.0901                 4.5957
 Frc consts  --      1.8777                 1.6686                 7.1330
 IR Inten    --     92.2075                13.9376                 4.1391

                     70                     71                     72
                      A                      A                      A
 Frequencies --   1688.5326              1755.3283              1787.4333
 Red. masses --      1.1148                 5.8083                 6.2788
 Frc consts  --      1.8727                10.5442                11.8192
 IR Inten    --    128.2401               227.0608               406.3022

                     73                     74                     75
                      A                      A                      A
 Frequencies --   3011.6156              3060.1217              3092.1155
 Red. masses --      1.0785                 1.0714                 1.0607
 Frc consts  --      5.7635                 5.9114                 5.9752
 IR Inten    --    994.6992                15.6284                 1.4426

                     76                     77                     78
                      A                      A                      A
 Frequencies --   3102.8627              3112.5374              3147.4534
 Red. masses --      1.0857                 1.0608                 1.1070
 Frc consts  --      6.1588                 6.0551                 6.4613
 IR Inten    --      4.8956                 4.0848                 1.1451

                     79                     80                     81
                      A                      A                      A
 Frequencies --   3169.3202              3175.2531              3245.8378
 Red. masses --      1.0930                 1.1111                 1.0968
 Frc consts  --      6.4685                 6.6004                 6.8079
 IR Inten    --      2.4260                 0.7504                 4.7997

                     82                     83                     84
                      A                      A                      A
 Frequencies --   3267.1805              3381.7723              3524.1974
 Red. masses --      1.0983                 1.0623                 1.0862
 Frc consts  --      6.9074                 7.1580                 7.9483
 IR Inten    --      0.4127                72.5037               114.2226

                     85                     86                     87
                      A                      A                      A
 Frequencies --   3631.9184              3658.2227              3734.0303
 Red. masses --      1.0784                 1.0812                 1.0647
 Frc consts  --      8.3815                 8.5252                 8.7463
 IR Inten    --     40.0737                46.9235               104.7477

 - Thermochemistry -
 -------------------
 Temperature   298.150 Kelvin.  Pressure   1.00000 Atm.
 Atom     1 has atomic number  8 and mass  15.99491

 Molecular mass:   227.11442 amu.
 Principal axes and moments of inertia in atomic units:
                           1         2         3
     Eigenvalues --  1388.155976504.434816865.28494
           X            0.97004  -0.16997   0.17361
           Y            0.24258   0.71752  -0.65293
           Z           -0.01360   0.67548   0.73725
 This molecule is an asymmetric top.
 Rotational symmetry number  1.
 Warning -- assumption of classical behavior for rotation
           may cause significant error
 Rotational temperatures (Kelvin)      0.06239     0.01332     0.01262
 Rotational constants (GHZ):           1.30010     0.27746     0.26288
 Zero-point vibrational energy     685212.3 (Joules/Mol)
                                  163.76967 (Kcal/Mol)
 Warning -- explicit consideration of  23 degrees of freedom as
           vibrations may cause significant error
 Vibrational temperatures:     11.19    54.28    88.20   119.20   126.93
          (Kelvin)            166.76   195.11   246.00   289.01   307.19
                              370.16   423.39   454.16   463.17   478.56
                              533.01   563.84   642.26   731.12   736.25
                              769.34   878.53   891.42   958.53   975.70
                             1016.94  1072.01  1090.31  1133.79  1138.98
                             1181.91  1218.27  1231.45  1254.41  1334.15
                             1346.14  1413.46  1418.64  1456.83  1470.51
                             1493.95  1552.66  1602.26  1619.62  1648.79
                             1669.19  1699.53  1734.55  1790.88  1834.49
                             1850.61  1892.68  1900.18  1905.75  1916.58
                             1961.83  1972.25  2014.39  2036.42  2075.49
                             2092.83  2155.01  2161.45  2178.88  2181.10
                             2243.53  2254.66  2319.06  2335.21  2429.42
                             2525.52  2571.71  4333.04  4402.83  4448.86
                             4464.32  4478.24  4528.48  4559.94  4568.48
                             4670.03  4700.74  4865.61  5070.53  5225.51
                             5263.36  5372.43

 Zero-point correction=                           0.260984 (Hartree/Particle)
 Thermal correction to Energy=                    0.276515
 Thermal correction to Enthalpy=                  0.277459
 Thermal correction to Gibbs Free Energy=         0.215829
 Sum of electronic and zero-point Energies=           -796.296580
 Sum of electronic and thermal Energies=              -796.281049
 Sum of electronic and thermal Enthalpies=            -796.280105
 Sum of electronic and thermal Free Energies=         -796.341735

                     E (Thermal)             CV                S
                      KCal/Mol        Cal/Mol-Kelvin    Cal/Mol-Kelvin
 Total                  173.516             57.984            129.710
 Electronic               0.000              0.000              0.000
 Translational            0.889              2.981             42.163
 Rotational               0.889              2.981             32.494
 Vibrational            171.738             52.023             55.053
 Vibration     1          0.593              1.987              8.510
 Vibration     2          0.594              1.982              5.375
 Vibration     3          0.597              1.973              4.415
 Vibration     4          0.600              1.961              3.822
 Vibration     5          0.601              1.957              3.699
 Vibration     6          0.608              1.936              3.168
 Vibration     7          0.613              1.918              2.865
 Vibration     8          0.626              1.878              2.425
 Vibration     9          0.638              1.839              2.125
 Vibration    10          0.644              1.820              2.013
 Vibration    11          0.667              1.750              1.680
 Vibration    12          0.689              1.684              1.449
 Vibration    13          0.703              1.644              1.333
 Vibration    14          0.707              1.632              1.300
 Vibration    15          0.715              1.610              1.247
 Vibration    16          0.742              1.533              1.078
 Vibration    17          0.759              1.488              0.993
 Vibration    18          0.806              1.369              0.807
 Vibration    19          0.863              1.232              0.638
 Vibration    20          0.867              1.224              0.629
 Vibration    21          0.890              1.173              0.577
 Vibration    22          0.970              1.009              0.432
 Vibration    23          0.980              0.991              0.417

 Normal termination of Gaussian 09 at Sat Jul 24 02:21:22 2021.
