 Gaussian 09, Revision D.01,
 Gaussian 09:  ES64L-G09RevD.01 24-Apr-2013

 ----------------------------------------------------------------------
 # B3LYP/6-31G(d,p) EmpiricalDispersion=GD3BJ guess=read geom=checkpoin
 t opt=readfc freq=noraman nosymm integral(ultrafinegrid)
 ----------------------------------------------------------------------

 -----------------------------------------------------------
 Candidate Structure: Conf:55 OPT and FREQ calc in gas phase
 -----------------------------------------------------------
 Structure from the checkpoint file:  "conf-55.chk"
 Charge =  1 Multiplicity = 1

 SCF Done:  E(RB3LYP) =  -796.511925852     A.U. after   12 cycles
 SCF Done:  E(RB3LYP) =  -796.528694664     A.U. after   14 cycles
 SCF Done:  E(RB3LYP) =  -796.528915450     A.U. after   15 cycles
 SCF Done:  E(RB3LYP) =  -796.529752676     A.U. after   14 cycles
 SCF Done:  E(RB3LYP) =  -796.526082551     A.U. after   13 cycles
 SCF Done:  E(RB3LYP) =  -796.530687258     A.U. after   10 cycles
 SCF Done:  E(RB3LYP) =  -796.531330038     A.U. after   12 cycles
 SCF Done:  E(RB3LYP) =  -796.531591329     A.U. after   12 cycles
 SCF Done:  E(RB3LYP) =  -796.531665621     A.U. after   11 cycles
 SCF Done:  E(RB3LYP) =  -796.531744712     A.U. after   11 cycles
 SCF Done:  E(RB3LYP) =  -796.531785907     A.U. after   11 cycles
 SCF Done:  E(RB3LYP) =  -796.531829298     A.U. after   11 cycles
 SCF Done:  E(RB3LYP) =  -796.531848562     A.U. after   11 cycles
 SCF Done:  E(RB3LYP) =  -796.531850510     A.U. after    9 cycles
 SCF Done:  E(RB3LYP) =  -796.531851866     A.U. after    8 cycles
 SCF Done:  E(RB3LYP) =  -796.531852677     A.U. after    8 cycles
 SCF Done:  E(RB3LYP) =  -796.531853339     A.U. after    8 cycles
 SCF Done:  E(RB3LYP) =  -796.531853992     A.U. after    9 cycles
 Optimization completed.
    -- Stationary point found.
 Normal termination of Gaussian 09 at Sun Aug  1 23:54:59 2021.

 ----------------------------------------------------------------------
 #N Geom=AllCheck Guess=TCheck SCRF=Check GenChk RB3LYP/6-31G(d,p) Freq
 ----------------------------------------------------------------------

 Structure from the checkpoint file:  "conf-55.chk"
 -----------------------------------------------------------
 Candidate Structure: Conf:55 OPT and FREQ calc in gas phase
 -----------------------------------------------------------
 Charge =  1 Multiplicity = 1

                          Input orientation:
 ---------------------------------------------------------------------
 Center     Atomic      Atomic             Coordinates (Angstroms)
 Number     Number       Type             X           Y           Z
 ---------------------------------------------------------------------
      1          8           0        1.427515    0.708576    1.063876
      2          6           0        1.531795    0.100432    0.001625
      3          7           0        0.528162   -0.540007   -0.617746
      4          6           0       -0.799338   -0.655691   -0.038334
      5          6           0       -1.478746   -1.815470   -0.788143
      6          8           0       -2.676306   -2.194895   -0.351268
      7          8           0       -0.940972   -2.346563   -1.736665
      8          6           0       -1.596879    0.671508   -0.140572
      9          6           0       -2.927633    0.582549    0.539058
     10          6           0       -3.293143    0.173512    1.808424
     11          7           0       -4.661651    0.223168    1.966277
     12          6           0       -5.130394    0.656219    0.817104
     13          7           0       -4.124720    0.882643   -0.083552
     14          6           0        2.892085    0.058264   -0.727447
     15          6           0        3.970621    0.200073    0.334712
     16          7           0        5.324071    0.522909   -0.289499
     17          1           0        0.663600   -1.124724   -1.438971
     18          1           0       -0.702812   -0.915333    1.022249
     19          1           0       -2.977153   -1.624114    0.385594
     20          1           0       -1.719020    0.928119   -1.198201
     21          1           0       -0.977483    1.448808    0.316910
     22          1           0       -2.644905   -0.123474    2.622070
     23          1           0       -6.171138    0.818500    0.575619
     24          1           0       -4.235099    1.203901   -1.034170
     25          1           0        3.008064   -0.859635   -1.312253
     26          1           0        2.920417    0.907248   -1.423504
     27          1           0        3.718022    1.014097    1.014955
     28          1           0        4.110465   -0.714235    0.913447
     29          1           0        5.630006   -0.215281   -0.932595
     30          1           0        5.282958    1.397606   -0.824056
     31          1           0        6.049448    0.631289    0.427827
 ---------------------------------------------------------------------

 SCF Done:  E(RB3LYP) =  -796.531853992     A.U. after    1 cycles

 Alpha  occ. eigenvalues --  -19.28967 -19.25021 -19.24010 -14.66562 -14.48837
 Alpha  occ. eigenvalues --  -14.48342 -14.39877 -10.43103 -10.42950 -10.42425
 Alpha  occ. eigenvalues --  -10.37132 -10.35807 -10.32636 -10.31990 -10.31471
 Alpha  occ. eigenvalues --  -10.29052  -1.20467  -1.20305  -1.17061  -1.12275
 Alpha  occ. eigenvalues --   -1.10357  -1.05567  -0.96390  -0.95946  -0.90946
 Alpha  occ. eigenvalues --   -0.85449  -0.82603  -0.78864  -0.78505  -0.77165
 Alpha  occ. eigenvalues --   -0.72392  -0.70719  -0.70288  -0.69028  -0.67650
 Alpha  occ. eigenvalues --   -0.66736  -0.64567  -0.62875  -0.59995  -0.59707
 Alpha  occ. eigenvalues --   -0.57745  -0.56815  -0.55801  -0.54706  -0.53678
 Alpha  occ. eigenvalues --   -0.53252  -0.52295  -0.51562  -0.50435  -0.50125
 Alpha  occ. eigenvalues --   -0.49440  -0.47907  -0.47145  -0.41524  -0.39346
 Alpha  occ. eigenvalues --   -0.38711  -0.37903  -0.37020  -0.35015  -0.31848
 Alpha virt. eigenvalues --   -0.16743  -0.11905  -0.09849  -0.09737  -0.09275
 Alpha virt. eigenvalues --   -0.06938  -0.06376  -0.03725  -0.03372  -0.02271
 Alpha virt. eigenvalues --   -0.01360  -0.01142   0.00850   0.01695   0.02604

 Mulliken charges:
               1
     1  O   -0.514541
     2  C    0.622328
     3  N   -0.539650
     4  C   -0.042937
     5  C    0.616193
     6  O   -0.464181
     7  O   -0.461415
     8  C   -0.221639
     9  C    0.222175
    10  C   -0.042145
    11  N   -0.414106
    12  C    0.270566
    13  N   -0.517282
    14  C   -0.307161
    15  C   -0.128693
    16  N   -0.547001
    17  H    0.294393
    18  H    0.164202
    19  H    0.343001
    20  H    0.119609
    21  H    0.167972
    22  H    0.113051
    23  H    0.144074
    24  H    0.278498
    25  H    0.151655
    26  H    0.161036
    27  H    0.223581
    28  H    0.198609
    29  H    0.368141
    30  H    0.367379
    31  H    0.374290
 Sum of Mulliken charges =   1.00000

 Dipole moment (field-independent basis, Debye):
    X=             19.8967    Y=              4.0416    Z=             -3.8774  Tot=             20.6699
 Quadrupole moment (field-independent basis, Debye-Ang):
   XX=             42.1144   YY=            -94.2043   ZZ=            -95.0711
   XY=             -0.2390   XZ=              1.7011   YZ=            -10.8058

  Exact polarizability: 170.746   0.814  91.256 -11.274   4.810 110.826
 Approx polarizability: 207.430   1.594 141.581 -14.028   7.434 196.305

                      1                      2                      3
                      A                      A                      A
 Frequencies --     19.5467                28.9476                42.9166
 Red. masses --      4.2995                 4.0793                 1.9562
 Frc consts  --      0.0010                 0.0020                 0.0021
 IR Inten    --      7.2576                 6.8610                 8.0187

                      4                      5                      6
                      A                      A                      A
 Frequencies --     46.6707                69.3993                85.6095
 Red. masses --      4.1283                 7.2182                 5.1252
 Frc consts  --      0.0053                 0.0205                 0.0221
 IR Inten    --      1.8214                11.8568                 8.6287

                      7                      8                      9
                      A                      A                      A
 Frequencies --     92.0354               114.1464               119.6920
 Red. masses --      5.6579                 5.1601                 4.7525
 Frc consts  --      0.0282                 0.0396                 0.0401
 IR Inten    --      5.2021                 6.1756                 7.1733

                     10                     11                     12
                      A                      A                      A
 Frequencies --    197.4978               223.3571               244.5889
 Red. masses --      5.0952                 1.5593                 2.0080
 Frc consts  --      0.1171                 0.0458                 0.0708
 IR Inten    --      4.5548                17.4242                18.8332

                     13                     14                     15
                      A                      A                      A
 Frequencies --    275.4329               321.6182               329.2443
 Red. masses --      5.4323                 2.3531                 7.2158
 Frc consts  --      0.2428                 0.1434                 0.4609
 IR Inten    --      7.2690                 5.3136                 0.5113

                     16                     17                     18
                      A                      A                      A
 Frequencies --    351.4127               380.2077               399.8081
 Red. masses --      5.4710                 3.6727                 4.3883
 Frc consts  --      0.3981                 0.3128                 0.4133
 IR Inten    --     14.2151                14.9361                16.3966

                     19                     20                     21
                      A                      A                      A
 Frequencies --    545.2997               547.0992               581.2166
 Red. masses --      1.4402                 3.3287                 2.5747
 Frc consts  --      0.2523                 0.5870                 0.5125
 IR Inten    --     81.9900                19.2698                41.0293

                     22                     23                     24
                      A                      A                      A
 Frequencies --    620.5451               655.9147               666.2618
 Red. masses --      3.4156                 1.5938                 3.0516
 Frc consts  --      0.7749                 0.4040                 0.7981
 IR Inten    --     27.0747                 9.0520                17.2883

                     25                     26                     27
                      A                      A                      A
 Frequencies --    676.7873               684.9234               718.7197
 Red. masses --      1.8881                 1.6262                 3.7890
 Frc consts  --      0.5096                 0.4495                 1.1532
 IR Inten    --     16.3703                60.2514                 5.9818

                     28                     29                     30
                      A                      A                      A
 Frequencies --    737.2399               763.1233               796.8810
 Red. masses --      3.0533                 3.3533                 1.3690
 Frc consts  --      0.9778                 1.1506                 0.5122
 IR Inten    --      1.4453                 0.5013                11.1458

                     31                     32                     33
                      A                      A                      A
 Frequencies --    823.3971               831.1573               854.0557
 Red. masses --      2.5706                 1.4152                 1.3970
 Frc consts  --      1.0269                 0.5760                 0.6004
 IR Inten    --      1.6018                21.5130                31.2993

                     34                     35                     36
                      A                      A                      A
 Frequencies --    887.4174               917.9405               938.8978
 Red. masses --      2.6974                 1.2789                 5.9681
 Frc consts  --      1.2516                 0.6349                 3.0997
 IR Inten    --     37.0446                 5.2654                14.0700

                     37                     38                     39
                      A                      A                      A
 Frequencies --    941.2550               987.1089              1016.0019
 Red. masses --      3.5292                 2.0634                 2.8660
 Frc consts  --      1.8422                 1.1846                 1.7431
 IR Inten    --     38.7283                29.3541                 5.4850

                     40                     41                     42
                      A                      A                      A
 Frequencies --   1029.4501              1042.7160              1091.8471
 Red. masses --      3.2541                 3.8475                 1.5829
 Frc consts  --      2.0319                 2.4647                 1.1118
 IR Inten    --     15.0985                 4.3549                14.1045

                     43                     44                     45
                      A                      A                      A
 Frequencies --   1115.5332              1122.9392              1156.5069
 Red. masses --      1.6119                 2.3431                 2.1191
 Frc consts  --      1.1818                 1.7408                 1.6699
 IR Inten    --     15.4163                46.7156                14.2911

                     46                     47                     48
                      A                      A                      A
 Frequencies --   1160.1590              1174.1042              1233.2708
 Red. masses --      2.8254                 1.3688                 1.4630
 Frc consts  --      2.2406                 1.1118                 1.3111
 IR Inten    --      1.7479                 0.5753                 8.9315

                     49                     50                     51
                      A                      A                      A
 Frequencies --   1245.5683              1263.3844              1287.2576
 Red. masses --      1.8816                 1.8585                 1.4751
 Frc consts  --      1.7199                 1.7478                 1.4401
 IR Inten    --      0.9177                 9.9229                 1.1366

                     52                     53                     54
                      A                      A                      A
 Frequencies --   1290.8019              1310.3957              1326.1675
 Red. masses --      1.3078                 1.3252                 1.3214
 Frc consts  --      1.2838                 1.3407                 1.3693
 IR Inten    --      1.9000                11.9597                13.5288

                     55                     56                     57
                      A                      A                      A
 Frequencies --   1335.0974              1357.0186              1371.4442
 Red. masses --      1.4234                 1.3875                 1.4675
 Frc consts  --      1.4949                 1.5054                 1.6262
 IR Inten    --     31.4968                33.2362               115.4190

                     58                     59                     60
                      A                      A                      A
 Frequencies --   1406.7828              1411.0869              1427.0761
 Red. masses --      1.3529                 2.7163                 2.3846
 Frc consts  --      1.5775                 3.1866                 2.8613
 IR Inten    --     13.6723                59.6747               229.7890

                     61                     62                     63
                      A                      A                      A
 Frequencies --   1443.8300              1489.8058              1496.0192
 Red. masses --      3.3859                 1.1169                 1.5776
 Frc consts  --      4.1586                 1.4605                 2.0802
 IR Inten    --     18.6502                 0.8376                14.6787

                     64                     65                     66
                      A                      A                      A
 Frequencies --   1506.5950              1513.0981              1518.3116
 Red. masses --      2.0113                 1.0756                 1.1774
 Frc consts  --      2.6897                 1.4509                 1.5992
 IR Inten    --     18.7973                13.0476               208.6600

                     67                     68                     69
                      A                      A                      A
 Frequencies --   1547.3529              1606.7383              1669.5265
 Red. masses --      2.6664                 4.0828                 1.0428
 Frc consts  --      3.7614                 6.2100                 1.7125
 IR Inten    --    337.2032                10.8765                54.8896

                     70                     71                     72
                      A                      A                      A
 Frequencies --   1673.5627              1775.8551              1847.8049
 Red. masses --      1.0442                10.2418                 9.2010
 Frc consts  --      1.7231                19.0301                18.5096
 IR Inten    --     43.9405               274.6787               271.3674

                     73                     74                     75
                      A                      A                      A
 Frequencies --   3042.7500              3058.8304              3069.5733
 Red. masses --      1.0637                 1.0653                 1.0784
 Frc consts  --      5.8021                 5.8729                 5.9865
 IR Inten    --      3.8375                 4.3968                14.1673

                     76                     77                     78
                      A                      A                      A
 Frequencies --   3105.4389              3110.1349              3118.8411
 Red. masses --      1.1010                 1.1053                 1.0601
 Frc consts  --      6.2557                 6.2994                 6.0758
 IR Inten    --      5.5137                 3.7871                 3.4556

                     79                     80                     81
                      A                      A                      A
 Frequencies --   3185.0519              3246.6682              3271.9762
 Red. masses --      1.1118                 1.0963                 1.0987
 Frc consts  --      6.6450                 6.8083                 6.9300
 IR Inten    --      3.2773                 3.6630                 0.5447

                     82                     83                     84
                      A                      A                      A
 Frequencies --   3401.1723              3494.1780              3495.3075
 Red. masses --      1.0302                 1.0936                 1.0939
 Frc consts  --      7.0218                 7.8665                 7.8737
 IR Inten    --     53.7980                93.5022                94.7185

                     85                     86                     87
                      A                      A                      A
 Frequencies --   3531.0033              3571.9026              3656.2429
 Red. masses --      1.0781                 1.0674                 1.0817
 Frc consts  --      7.9199                 8.0239                 8.5195
 IR Inten    --    135.3548               431.6242                61.3878

 - Thermochemistry -
 -------------------
 Temperature   298.150 Kelvin.  Pressure   1.00000 Atm.
 Atom     1 has atomic number  8 and mass  15.99491

 Molecular mass:   227.11442 amu.
 Principal axes and moments of inertia in atomic units:
                           1         2         3
     Eigenvalues --  1602.608008125.879229121.67586
           X            0.99372   0.04809   0.10102
           Y            0.02408   0.78980  -0.61290
           Z           -0.10926   0.61148   0.78368
 This molecule is an asymmetric top.
 Rotational symmetry number  1.
 Warning -- assumption of classical behavior for rotation
           may cause significant error
 Rotational temperatures (Kelvin)      0.05405     0.01066     0.00950
 Rotational constants (GHZ):           1.12613     0.22210     0.19785
 Zero-point vibrational energy     682706.1 (Joules/Mol)
                                  163.17068 (Kcal/Mol)
 Warning -- explicit consideration of  22 degrees of freedom as
           vibrations may cause significant error
 Vibrational temperatures:     28.12    41.65    61.75    67.15    99.85
          (Kelvin)            123.17   132.42   164.23   172.21   284.15
                              321.36   351.91   396.29   462.74   473.71
                              505.60   547.03   575.23   784.56   787.15
                              836.24   892.82   943.71   958.60   973.74
                              985.45  1034.08  1060.72  1097.96  1146.53
                             1184.68  1195.85  1228.79  1276.79  1320.71
                             1350.86  1354.25  1420.23  1461.80  1481.15
                             1500.23  1570.92  1605.00  1615.66  1663.95
                             1669.21  1689.27  1774.40  1792.09  1817.73
                             1852.07  1857.17  1885.36  1908.06  1920.90
                             1952.44  1973.20  2024.04  2030.24  2053.24
                             2077.35  2143.50  2152.44  2167.65  2177.01
                             2184.51  2226.29  2311.74  2402.07  2407.88
                             2555.06  2658.58  4377.83  4400.97  4416.43
                             4468.03  4474.78  4487.31  4582.57  4671.23
                             4707.64  4893.52  5027.34  5028.96  5080.32
                             5139.16  5260.51

 Zero-point correction=                           0.260029 (Hartree/Particle)
 Thermal correction to Energy=                    0.276288
 Thermal correction to Enthalpy=                  0.277232
 Thermal correction to Gibbs Free Energy=         0.212859
 Sum of electronic and zero-point Energies=           -796.271825
 Sum of electronic and thermal Energies=              -796.255566
 Sum of electronic and thermal Enthalpies=            -796.254622
 Sum of electronic and thermal Free Energies=         -796.318995

                     E (Thermal)             CV                S
                      KCal/Mol        Cal/Mol-Kelvin    Cal/Mol-Kelvin
 Total                  173.373             58.506            135.483
 Electronic               0.000              0.000              0.000
 Translational            0.889              2.981             42.163
 Rotational               0.889              2.981             33.140
 Vibrational            171.596             52.544             60.180
 Vibration     1          0.593              1.986              6.680
 Vibration     2          0.593              1.984              5.900
 Vibration     3          0.595              1.980              5.120
 Vibration     4          0.595              1.979              4.954
 Vibration     5          0.598              1.969              4.170
 Vibration     6          0.601              1.959              3.758
 Vibration     7          0.602              1.955              3.616
 Vibration     8          0.607              1.938              3.197
 Vibration     9          0.609              1.933              3.105
 Vibration    10          0.637              1.843              2.156
 Vibration    11          0.649              1.805              1.932
 Vibration    12          0.660              1.772              1.769
 Vibration    13          0.677              1.719              1.562
 Vibration    14          0.707              1.632              1.302
 Vibration    15          0.712              1.617              1.264
 Vibration    16          0.728              1.572              1.160
 Vibration    17          0.750              1.512              1.038
 Vibration    18          0.766              1.471              0.963
 Vibration    19          0.900              1.150              0.554
 Vibration    20          0.902              1.146              0.550
 Vibration    21          0.938              1.072              0.483
 Vibration    22          0.981              0.989              0.416

 Optimization completed.
    -- Stationary point found.
 Normal termination of Gaussian 09 at Mon Aug  2 00:14:37 2021.
