 Gaussian 09, Revision D.01,
 Gaussian 09:  ES64L-G09RevD.01 24-Apr-2013

 ----------------------------------------------------------------------
 # B3LYP/6-31G(d,p) EmpiricalDispersion=GD3BJ opt=calcfc freq=noraman n
 osymm integral(ultrafinegrid)
 ----------------------------------------------------------------------

 ------------------------------------------------------------
 Candidate Structure: Conf:715 OPT and FREQ calc in gas phase
 ------------------------------------------------------------
 Symbolic Z-matrix:
 Charge =  1 Multiplicity = 1

 SCF Done:  E(RB3LYP) =  -796.542583008     A.U. after   14 cycles
 SCF Done:  E(RB3LYP) =  -796.551428863     A.U. after   14 cycles
 SCF Done:  E(RB3LYP) =  -796.547381661     A.U. after   15 cycles
 SCF Done:  E(RB3LYP) =  -796.553183923     A.U. after   11 cycles
 SCF Done:  E(RB3LYP) =  -796.495946308     A.U. after   15 cycles
 SCF Done:  E(RB3LYP) =  -796.553199050     A.U. after    9 cycles
 SCF Done:  E(RB3LYP) =  -796.555300415     A.U. after   13 cycles
 SCF Done:  E(RB3LYP) =  -796.555930887     A.U. after   13 cycles
 SCF Done:  E(RB3LYP) =  -796.556775697     A.U. after   12 cycles
 SCF Done:  E(RB3LYP) =  -796.556966521     A.U. after   11 cycles
 SCF Done:  E(RB3LYP) =  -796.557810814     A.U. after   12 cycles
 SCF Done:  E(RB3LYP) =  -796.557820368     A.U. after   10 cycles
 SCF Done:  E(RB3LYP) =  -796.557821192     A.U. after    9 cycles
 SCF Done:  E(RB3LYP) =  -796.557821605     A.U. after    9 cycles
 SCF Done:  E(RB3LYP) =  -796.557821735     A.U. after    7 cycles
 SCF Done:  E(RB3LYP) =  -796.557821822     A.U. after    8 cycles
 SCF Done:  E(RB3LYP) =  -796.557821858     A.U. after    7 cycles
 SCF Done:  E(RB3LYP) =  -796.557821875     A.U. after    6 cycles
 SCF Done:  E(RB3LYP) =  -796.557821883     A.U. after    6 cycles
 Optimization completed.
    -- Stationary point found.
 Normal termination of Gaussian 09 at Sat Jul 24 01:57:27 2021.

 ----------------------------------------------------------------------
 #N Geom=AllCheck Guess=TCheck SCRF=Check GenChk RB3LYP/6-31G(d,p) Freq
 ----------------------------------------------------------------------

 Structure from the checkpoint file:  "conf-715.chk"
 ------------------------------------------------------------
 Candidate Structure: Conf:715 OPT and FREQ calc in gas phase
 ------------------------------------------------------------
 Charge =  1 Multiplicity = 1

                          Input orientation:
 ---------------------------------------------------------------------
 Center     Atomic      Atomic             Coordinates (Angstroms)
 Number     Number       Type             X           Y           Z
 ---------------------------------------------------------------------
      1          8           0       -2.238051    1.331846   -0.030153
      2          6           0       -1.561436    0.565697    0.687150
      3          7           0       -0.253026    0.758169    0.898048
      4          6           0        0.508653    1.570635   -0.030984
      5          6           0        0.375387    0.948529   -1.440312
      6          8           0        0.978428    1.624307   -2.435165
      7          8           0       -0.183430   -0.098899   -1.661359
      8          6           0        1.994186    1.608193    0.426700
      9          6           0        2.562771    0.238900    0.589409
     10          6           0        2.654692   -0.580048    1.696816
     11          7           0        3.125305   -1.826347    1.349849
     12          6           0        3.319177   -1.776136    0.050283
     13          7           0        2.986028   -0.552400   -0.465200
     14          6           0       -2.208643   -0.690510    1.244841
     15          6           0       -2.703955   -1.513518    0.042957
     16          7           0       -3.661304   -0.666149   -0.769532
     17          1           0        0.282480    0.019436    1.348570
     18          1           0        0.094720    2.583636   -0.053565
     19          1           0        1.307252    2.487162   -2.139537
     20          1           0        2.577748    2.207672   -0.280059
     21          1           0        2.036591    2.131336    1.385301
     22          1           0        2.446450   -0.319569    2.726699
     23          1           0        3.700277   -2.577719   -0.566501
     24          1           0        3.064944   -0.271964   -1.432418
     25          1           0       -1.514148   -1.303756    1.823211
     26          1           0       -3.041757   -0.414006    1.899302
     27          1           0       -3.208838   -2.430176    0.348057
     28          1           0       -1.867533   -1.749019   -0.616654
     29          1           0       -3.271037    0.338059   -0.674485
     30          1           0       -3.688752   -0.951048   -1.750376
     31          1           0       -4.613017   -0.692299   -0.397282
 ---------------------------------------------------------------------

 SCF Done:  E(RB3LYP) =  -796.557821883     A.U. after    1 cycles

 Alpha  occ. eigenvalues --  -19.33381 -19.28461 -19.27513 -14.60106 -14.51478
 Alpha  occ. eigenvalues --  -14.50025 -14.41564 -10.45799 -10.45300 -10.41304
 Alpha  occ. eigenvalues --  -10.38684 -10.36661 -10.34484 -10.34403 -10.33638
 Alpha  occ. eigenvalues --  -10.30870  -1.24054  -1.20513  -1.15780  -1.14623
 Alpha  occ. eigenvalues --   -1.12079  -1.08586  -0.97806  -0.95588  -0.92684
 Alpha  occ. eigenvalues --   -0.86258  -0.82389  -0.79225  -0.76264  -0.75052
 Alpha  occ. eigenvalues --   -0.74194  -0.72646  -0.72016  -0.70025  -0.68288
 Alpha  occ. eigenvalues --   -0.66604  -0.65753  -0.63955  -0.61815  -0.59825
 Alpha  occ. eigenvalues --   -0.59106  -0.58269  -0.56804  -0.56380  -0.56272
 Alpha  occ. eigenvalues --   -0.55613  -0.54703  -0.53218  -0.52436  -0.51726
 Alpha  occ. eigenvalues --   -0.51378  -0.51059  -0.50165  -0.45504  -0.43082
 Alpha  occ. eigenvalues --   -0.42149  -0.40673  -0.38749  -0.36775  -0.33833
 Alpha virt. eigenvalues --   -0.14767  -0.13017  -0.11497  -0.09234  -0.07103
 Alpha virt. eigenvalues --   -0.06548  -0.05664  -0.04234  -0.02965  -0.02037
 Alpha virt. eigenvalues --   -0.00462   0.00156   0.00892   0.01473   0.01852

 Mulliken charges:
               1
     1  O   -0.559514
     2  C    0.634543
     3  N   -0.489171
     4  C   -0.057749
     5  C    0.637192
     6  O   -0.465657
     7  O   -0.466565
     8  C   -0.282513
     9  C    0.261223
    10  C   -0.030093
    11  N   -0.419716
    12  C    0.273622
    13  N   -0.527601
    14  C   -0.296603
    15  C   -0.125532
    16  N   -0.565393
    17  H    0.286357
    18  H    0.173268
    19  H    0.342082
    20  H    0.130965
    21  H    0.170289
    22  H    0.115121
    23  H    0.145479
    24  H    0.281638
    25  H    0.169854
    26  H    0.173696
    27  H    0.183974
    28  H    0.212279
    29  H    0.393353
    30  H    0.355149
    31  H    0.346024
 Sum of Mulliken charges =   1.00000

 Dipole moment (field-independent basis, Debye):
    X=             -8.1969    Y=              0.4784    Z=             -1.8863  Tot=              8.4248
 Quadrupole moment (field-independent basis, Debye-Ang):
   XX=            -36.9093   YY=            -78.4170   ZZ=            -85.5466
   XY=             23.7067   XZ=             -4.7594   YZ=              2.3372

  Exact polarizability: 128.654  -1.957 120.723   0.438  -6.741 111.597
 Approx polarizability: 167.807  -5.481 195.848   0.658 -13.445 182.699

                      1                      2                      3
                      A                      A                      A
 Frequencies --      8.0360                32.4012                52.8812
 Red. masses --      3.8557                 5.2247                 6.1003
 Frc consts  --      0.0001                 0.0032                 0.0101
 IR Inten    --     13.7003                 1.7725                 4.5233

                      4                      5                      6
                      A                      A                      A
 Frequencies --     68.6656                78.6745                90.1107
 Red. masses --      5.2150                 4.5218                 6.0258
 Frc consts  --      0.0145                 0.0165                 0.0288
 IR Inten    --      4.9439                20.9535                 9.8715

                      7                      8                      9
                      A                      A                      A
 Frequencies --    128.0715               151.6028               206.2219
 Red. masses --      4.0682                 6.6900                 4.0550
 Frc consts  --      0.0393                 0.0906                 0.1016
 IR Inten    --      1.0842                 5.6537                 4.1050

                     10                     11                     12
                      A                      A                      A
 Frequencies --    221.9169               252.7872               320.5850
 Red. masses --      2.9832                 5.6393                 3.0309
 Frc consts  --      0.0866                 0.2123                 0.1835
 IR Inten    --     16.6020                20.4471                53.8298

                     13                     14                     15
                      A                      A                      A
 Frequencies --    343.1436               349.8899               373.8615
 Red. masses --      2.5255                 2.1450                 1.7240
 Frc consts  --      0.1752                 0.1547                 0.1420
 IR Inten    --     29.5034                 9.8307                 9.7963

                     16                     17                     18
                      A                      A                      A
 Frequencies --    391.7470               455.3202               470.8663
 Red. masses --      3.2847                 3.4051                 2.6205
 Frc consts  --      0.2970                 0.4159                 0.3423
 IR Inten    --     28.8394                19.3802               114.5772

                     19                     20                     21
                      A                      A                      A
 Frequencies --    519.6342               523.1862               566.5012
 Red. masses --      2.4358                 1.4510                 1.5263
 Frc consts  --      0.3875                 0.2340                 0.2886
 IR Inten    --      9.5919                29.9320                67.6743

                     22                     23                     24
                      A                      A                      A
 Frequencies --    602.5393               642.2416               669.3293
 Red. masses --      3.5147                 4.1355                 3.5325
 Frc consts  --      0.7518                 1.0050                 0.9324
 IR Inten    --     16.0314                 3.0738                41.2396

                     25                     26                     27
                      A                      A                      A
 Frequencies --    678.2964               691.0734               708.6290
 Red. masses --      2.4317                 4.0076                 1.3972
 Frc consts  --      0.6592                 1.1277                 0.4134
 IR Inten    --      1.0903                21.0762                50.6642

                     28                     29                     30
                      A                      A                      A
 Frequencies --    744.4931               779.1816               835.0911
 Red. masses --      3.5689                 4.6696                 1.4477
 Frc consts  --      1.1655                 1.6703                 0.5948
 IR Inten    --     14.3377                 1.4498                 8.1839

                     31                     32                     33
                      A                      A                      A
 Frequencies --    839.0804               854.1685               864.3281
 Red. masses --      2.0995                 1.8706                 2.2694
 Frc consts  --      0.8709                 0.8041                 0.9989
 IR Inten    --     46.8128                 3.0114                 6.4345

                     34                     35                     36
                      A                      A                      A
 Frequencies --    896.2725               934.4091               944.9091
 Red. masses --      1.9994                 4.5363                 2.8038
 Frc consts  --      0.9463                 2.3336                 1.4750
 IR Inten    --     58.0969                15.5517                 5.9164

                     37                     38                     39
                      A                      A                      A
 Frequencies --    962.6331               965.6399              1001.5697
 Red. masses --      1.4705                 2.3516                 2.8239
 Frc consts  --      0.8028                 1.2919                 1.6690
 IR Inten    --     10.9539                 1.2086                 4.0801

                     40                     41                     42
                      A                      A                      A
 Frequencies --   1008.9841              1044.7739              1109.7323
 Red. masses --      3.6152                 2.7050                 1.7295
 Frc consts  --      2.1685                 1.7396                 1.2549
 IR Inten    --     15.8528                 7.7550                10.2978

                     43                     44                     45
                      A                      A                      A
 Frequencies --   1117.2153              1135.2806              1137.1805
 Red. masses --      1.6473                 1.5287                 1.4582
 Frc consts  --      1.2114                 1.1608                 1.1110
 IR Inten    --     17.8614                53.6200                11.0323

                     46                     47                     48
                      A                      A                      A
 Frequencies --   1157.9939              1184.3120              1215.9196
 Red. masses --      2.0336                 1.6768                 1.7608
 Frc consts  --      1.6067                 1.3857                 1.5338
 IR Inten    --     16.2304                13.4111                30.1947

                     49                     50                     51
                      A                      A                      A
 Frequencies --   1238.0897              1260.3463              1274.8448
 Red. masses --      1.4929                 1.4474                 2.2164
 Frc consts  --      1.3483                 1.3546                 2.1223
 IR Inten    --     20.4405                26.9010                10.4327

                     52                     53                     54
                      A                      A                      A
 Frequencies --   1290.4952              1294.0381              1324.2523
 Red. masses --      1.5243                 1.4455                 1.4151
 Frc consts  --      1.4957                 1.4262                 1.4621
 IR Inten    --    123.7090               162.4896                60.8468

                     55                     56                     57
                      A                      A                      A
 Frequencies --   1331.0944              1365.7135              1382.1970
 Red. masses --      1.4518                 1.5645                 1.7875
 Frc consts  --      1.5156                 1.7193                 2.0120
 IR Inten    --     17.1288                28.8330                64.3702

                     58                     59                     60
                      A                      A                      A
 Frequencies --   1397.0752              1408.8661              1418.1764
 Red. masses --      2.1028                 1.9401                 1.3300
 Frc consts  --      2.4182                 2.2688                 1.5760
 IR Inten    --      5.6317                44.5056                35.6247

                     61                     62                     63
                      A                      A                      A
 Frequencies --   1441.9446              1487.6732              1489.6519
 Red. masses --      2.8066                 1.1522                 1.1205
 Frc consts  --      3.4382                 1.5024                 1.4649
 IR Inten    --     29.5038                51.5100                46.0199

                     64                     65                     66
                      A                      A                      A
 Frequencies --   1495.8085              1512.7690              1519.3876
 Red. masses --      1.2241                 3.3867                 1.1375
 Frc consts  --      1.6137                 4.5664                 1.5472
 IR Inten    --    368.6054                25.9193               340.5345

                     67                     68                     69
                      A                      A                      A
 Frequencies --   1582.0949              1614.2038              1634.0141
 Red. masses --      2.3098                 4.2514                 1.1234
 Frc consts  --      3.4064                 6.5268                 1.7672
 IR Inten    --    198.1393                 7.9021                 2.8494

                     70                     71                     72
                      A                      A                      A
 Frequencies --   1672.7674              1725.3635              1858.5930
 Red. masses --      1.0461                 3.4852                10.4166
 Frc consts  --      1.7246                 6.1129                21.2004
 IR Inten    --     32.7038               155.0590               200.6823

                     73                     74                     75
                      A                      A                      A
 Frequencies --   2559.6145              3066.9686              3079.7220
 Red. masses --      1.0961                 1.0661                 1.0636
 Frc consts  --      4.2309                 5.9086                 5.9437
 IR Inten    --    920.5734                16.8441                 1.4961

                     76                     77                     78
                      A                      A                      A
 Frequencies --   3091.2461              3114.5506              3124.7351
 Red. masses --      1.0849                 1.0604                 1.1000
 Frc consts  --      6.1080                 6.0603                 6.3279
 IR Inten    --      6.3243                 3.0304                 2.6788

                     79                     80                     81
                      A                      A                      A
 Frequencies --   3141.2843              3181.0012              3240.6340
 Red. masses --      1.1030                 1.1130                 1.0966
 Frc consts  --      6.4126                 6.6357                 6.7853
 IR Inten    --      1.2371                 0.2768                 2.6601

                     82                     83                     84
                      A                      A                      A
 Frequencies --   3270.1511              3470.0686              3511.0405
 Red. masses --      1.0987                 1.0526                 1.0787
 Frc consts  --      6.9223                 7.4680                 7.8346
 IR Inten    --      0.5066                93.6077               216.2100

                     85                     86                     87
                      A                      A                      A
 Frequencies --   3544.2439              3647.9341              3783.1311
 Red. masses --      1.0952                 1.0818                 1.0663
 Frc consts  --      8.1056                 8.4822                 8.9916
 IR Inten    --     78.0202                60.4795                59.9324

 - Thermochemistry -
 -------------------
 Temperature   298.150 Kelvin.  Pressure   1.00000 Atm.
 Atom     1 has atomic number  8 and mass  15.99491

 Molecular mass:   227.11442 amu.
 Principal axes and moments of inertia in atomic units:
                           1         2         3
     Eigenvalues --  2223.369444960.792435675.67911
           X            0.99280   0.11637  -0.02849
           Y           -0.06859   0.74709   0.66117
           Z            0.09822  -0.65446   0.74969
 This molecule is an asymmetric top.
 Rotational symmetry number  1.
 Warning -- assumption of classical behavior for rotation
           may cause significant error
 Rotational temperatures (Kelvin)      0.03896     0.01746     0.01526
 Rotational constants (GHZ):           0.81171     0.36380     0.31798
 Zero-point vibrational energy     682931.1 (Joules/Mol)
                                  163.22446 (Kcal/Mol)
 Warning -- explicit consideration of  22 degrees of freedom as
           vibrations may cause significant error
 Vibrational temperatures:     11.56    46.62    76.08    98.79   113.19
          (Kelvin)            129.65   184.27   218.12   296.71   319.29
                              363.70   461.25   493.71   503.41   537.90
                              563.64   655.10   677.47   747.64   752.75
                              815.07   866.92   924.04   963.01   975.92
                              994.30  1019.56  1071.16  1121.07  1201.51
                             1207.25  1228.96  1243.57  1289.53  1344.40
                             1359.51  1385.01  1389.34  1441.03  1451.70
                             1503.19  1596.66  1607.42  1633.41  1636.15
                             1666.09  1703.96  1749.43  1781.33  1813.35
                             1834.22  1856.73  1861.83  1905.30  1915.15
                             1964.95  1988.67  2010.08  2027.04  2040.44
                             2074.63  2140.43  2143.27  2152.13  2176.53
                             2186.06  2276.28  2322.48  2350.98  2406.74
                             2482.41  2674.10  3682.71  4412.68  4431.03
                             4447.61  4481.14  4495.79  4519.60  4576.75
                             4662.54  4705.01  4992.65  5051.60  5099.37
                             5248.56  5443.08

 Zero-point correction=                           0.260115 (Hartree/Particle)
 Thermal correction to Energy=                    0.275525
 Thermal correction to Enthalpy=                  0.276469
 Thermal correction to Gibbs Free Energy=         0.214463
 Sum of electronic and zero-point Energies=           -796.297707
 Sum of electronic and thermal Energies=              -796.282297
 Sum of electronic and thermal Enthalpies=            -796.281353
 Sum of electronic and thermal Free Energies=         -796.343358

                     E (Thermal)             CV                S
                      KCal/Mol        Cal/Mol-Kelvin    Cal/Mol-Kelvin
 Total                  172.894             57.459            130.501
 Electronic               0.000              0.000              0.000
 Translational            0.889              2.981             42.163
 Rotational               0.889              2.981             32.504
 Vibrational            171.117             51.497             55.834
 Vibration     1          0.593              1.987              8.445
 Vibration     2          0.594              1.983              5.677
 Vibration     3          0.596              1.976              4.707
 Vibration     4          0.598              1.969              4.191
 Vibration     5          0.600              1.964              3.924
 Vibration     6          0.602              1.956              3.658
 Vibration     7          0.611              1.925              2.975
 Vibration     8          0.619              1.901              2.652
 Vibration     9          0.641              1.831              2.077
 Vibration    10          0.648              1.808              1.943
 Vibration    11          0.664              1.758              1.711
 Vibration    12          0.706              1.634              1.307
 Vibration    13          0.722              1.589              1.197
 Vibration    14          0.727              1.575              1.167
 Vibration    15          0.745              1.526              1.064
 Vibration    16          0.759              1.488              0.993
 Vibration    17          0.814              1.349              0.780
 Vibration    18          0.828              1.315              0.735
 Vibration    19          0.875              1.207              0.611
 Vibration    20          0.878              1.199              0.603
 Vibration    21          0.922              1.104              0.511
 Vibration    22          0.961              1.026              0.445

 Normal termination of Gaussian 09 at Sat Jul 24 02:20:28 2021.
