 Gaussian 09, Revision D.01,
 Gaussian 09:  ES64L-G09RevD.01 24-Apr-2013

 ----------------------------------------------------------------------
 # B3LYP/6-31G(d,p) EmpiricalDispersion=GD3BJ opt=calcfc freq=noraman n
 osymm integral(ultrafinegrid)
 ----------------------------------------------------------------------

 ------------------------------------------------------------
 Candidate Structure: Conf:628 OPT and FREQ calc in gas phase
 ------------------------------------------------------------
 Symbolic Z-matrix:
 Charge =  1 Multiplicity = 1

 SCF Done:  E(RB3LYP) =  -796.550894419     A.U. after   14 cycles
 SCF Done:  E(RB3LYP) =  -796.557421719     A.U. after   13 cycles
 SCF Done:  E(RB3LYP) =  -796.559344054     A.U. after   14 cycles
 SCF Done:  E(RB3LYP) =  -796.559969432     A.U. after   12 cycles
 SCF Done:  E(RB3LYP) =  -796.560501699     A.U. after   14 cycles
 SCF Done:  E(RB3LYP) =  -796.560560532     A.U. after   11 cycles
 SCF Done:  E(RB3LYP) =  -796.560572629     A.U. after   10 cycles
 SCF Done:  E(RB3LYP) =  -796.560575691     A.U. after    8 cycles
 SCF Done:  E(RB3LYP) =  -796.560576337     A.U. after    8 cycles
 SCF Done:  E(RB3LYP) =  -796.560576414     A.U. after    8 cycles
 Optimization completed.
    -- Stationary point found.
 Normal termination of Gaussian 09 at Sat Jul 24 01:10:18 2021.

 ----------------------------------------------------------------------
 #N Geom=AllCheck Guess=TCheck SCRF=Check GenChk RB3LYP/6-31G(d,p) Freq
 ----------------------------------------------------------------------

 Structure from the checkpoint file:  "conf-628.chk"
 ------------------------------------------------------------
 Candidate Structure: Conf:628 OPT and FREQ calc in gas phase
 ------------------------------------------------------------
 Charge =  1 Multiplicity = 1

                          Input orientation:
 ---------------------------------------------------------------------
 Center     Atomic      Atomic             Coordinates (Angstroms)
 Number     Number       Type             X           Y           Z
 ---------------------------------------------------------------------
      1          8           0       -1.395165   -0.031540   -0.845160
      2          6           0       -1.524612   -0.202948    0.392347
      3          7           0       -0.481511   -0.383074    1.192311
      4          6           0        0.896013   -0.420342    0.703743
      5          6           0        1.707862   -0.991963    1.857546
      6          8           0        3.008404   -1.123868    1.557978
      7          8           0        1.231391   -1.274048    2.935715
      8          6           0        1.412144    0.981666    0.240215
      9          6           0        2.331770    0.928279   -0.930087
     10          6           0        2.127561    1.284553   -2.243890
     11          7           0        3.251749    1.051135   -2.999583
     12          6           0        4.135677    0.552640   -2.160767
     13          7           0        3.633401    0.458742   -0.892895
     14          6           0       -2.914480   -0.172346    1.024153
     15          6           0       -3.971485   -0.733675    0.066370
     16          7           0       -3.874060   -0.006809   -1.253696
     17          1           0       -0.593556   -0.596837    2.180104
     18          1           0        0.950759   -1.101094   -0.151677
     19          1           0        3.454930   -1.484101    2.345160
     20          1           0        0.537446    1.556917   -0.067516
     21          1           0        1.854087    1.507081    1.094782
     22          1           0        1.229873    1.704191   -2.677124
     23          1           0        5.142707    0.247567   -2.407983
     24          1           0        4.091094    0.067922   -0.083686
     25          1           0       -2.943704   -0.744340    1.954898
     26          1           0       -3.149325    0.867391    1.285421
     27          1           0       -3.780345   -1.786932   -0.148356
     28          1           0       -4.980450   -0.634567    0.467763
     29          1           0       -4.280811    0.930076   -1.209713
     30          1           0       -2.781305    0.065990   -1.389401
     31          1           0       -4.326041   -0.515382   -2.015578
 ---------------------------------------------------------------------

 SCF Done:  E(RB3LYP) =  -796.560576414     A.U. after    1 cycles

 Alpha  occ. eigenvalues --  -19.33594 -19.29593 -19.27992 -14.60108 -14.52362
 Alpha  occ. eigenvalues --  -14.46895 -14.38617 -10.46270 -10.46026 -10.42241
 Alpha  occ. eigenvalues --  -10.37865 -10.37856 -10.32087 -10.31546 -10.30389
 Alpha  occ. eigenvalues --  -10.27714  -1.24659  -1.21342  -1.15845  -1.14847
 Alpha  occ. eigenvalues --   -1.09110  -1.08789  -0.96193  -0.94763  -0.91927
 Alpha  occ. eigenvalues --   -0.85505  -0.82884  -0.78321  -0.77124  -0.74841
 Alpha  occ. eigenvalues --   -0.73769  -0.72407  -0.69294  -0.67904  -0.66947
 Alpha  occ. eigenvalues --   -0.65786  -0.64218  -0.62647  -0.61801  -0.61000
 Alpha  occ. eigenvalues --   -0.60345  -0.58814  -0.57954  -0.56252  -0.55954
 Alpha  occ. eigenvalues --   -0.54952  -0.54268  -0.52366  -0.51459  -0.50082
 Alpha  occ. eigenvalues --   -0.49333  -0.49219  -0.48211  -0.45636  -0.43660
 Alpha  occ. eigenvalues --   -0.42218  -0.41639  -0.35686  -0.33940  -0.30596
 Alpha virt. eigenvalues --   -0.15067  -0.12586  -0.12112  -0.07040  -0.05854
 Alpha virt. eigenvalues --   -0.05691  -0.05206  -0.04012  -0.01732  -0.01422
 Alpha virt. eigenvalues --   -0.00860  -0.00204   0.00503   0.01209   0.01596

 Mulliken charges:
               1
     1  O   -0.565113
     2  C    0.636533
     3  N   -0.523663
     4  C    0.008898
     5  C    0.597375
     6  O   -0.482450
     7  O   -0.455533
     8  C   -0.261414
     9  C    0.277305
    10  C    0.003206
    11  N   -0.429931
    12  C    0.267636
    13  N   -0.529683
    14  C   -0.305179
    15  C   -0.120722
    16  N   -0.575368
    17  H    0.307749
    18  H    0.186502
    19  H    0.354733
    20  H    0.144071
    21  H    0.137627
    22  H    0.088392
    23  H    0.131607
    24  H    0.272653
    25  H    0.176655
    26  H    0.180883
    27  H    0.191580
    28  H    0.186348
    29  H    0.342919
    30  H    0.405922
    31  H    0.350462
 Sum of Mulliken charges =   1.00000

 Dipole moment (field-independent basis, Debye):
    X=            -11.5896    Y=             -2.1676    Z=              2.8461  Tot=             12.1292
 Quadrupole moment (field-independent basis, Debye-Ang):
   XX=             -6.3900   YY=            -87.4565   ZZ=            -93.3488
   XY=             -6.2753   XZ=             24.9360   YZ=              2.4384

  Exact polarizability: 157.258  -6.225  81.651  -5.715 -16.158 132.634
 Approx polarizability: 200.951 -16.036 124.002  -5.399 -23.002 216.372

                      1                      2                      3
                      A                      A                      A
 Frequencies --     22.5693                30.6681                47.9752
 Red. masses --      4.8216                 4.1086                 4.8201
 Frc consts  --      0.0014                 0.0023                 0.0065
 IR Inten    --      4.0201                 9.9280                 2.0959

                      4                      5                      6
                      A                      A                      A
 Frequencies --     59.6766                74.7386               101.9174
 Red. masses --      5.0724                 5.3325                 5.6384
 Frc consts  --      0.0106                 0.0175                 0.0345
 IR Inten    --      5.3129                 2.3811                 6.1551

                      7                      8                      9
                      A                      A                      A
 Frequencies --    121.4664               131.5341               190.8843
 Red. masses --      5.0062                 5.4407                 5.0300
 Frc consts  --      0.0435                 0.0555                 0.1080
 IR Inten    --      2.3450                 0.3813                 7.7036

                     10                     11                     12
                      A                      A                      A
 Frequencies --    209.4171               262.5831               290.4828
 Red. masses --      2.2023                 5.1272                 4.2084
 Frc consts  --      0.0569                 0.2083                 0.2092
 IR Inten    --     27.3382                63.0087                 2.2055

                     13                     14                     15
                      A                      A                      A
 Frequencies --    324.4803               349.4935               387.7241
 Red. masses --      2.0554                 6.3920                 3.6613
 Frc consts  --      0.1275                 0.4600                 0.3243
 IR Inten    --     10.4759                 0.3639                 6.9502

                     16                     17                     18
                      A                      A                      A
 Frequencies --    404.2275               414.1864               464.3124
 Red. masses --      3.4761                 1.6716                 1.8428
 Frc consts  --      0.3347                 0.1690                 0.2341
 IR Inten    --    195.1545                16.7624                 3.7151

                     19                     20                     21
                      A                      A                      A
 Frequencies --    541.1501               546.5998               589.5458
 Red. masses --      1.9547                 2.0799                 2.2755
 Frc consts  --      0.3373                 0.3661                 0.4660
 IR Inten    --     70.8912                70.2553                11.8067

                     22                     23                     24
                      A                      A                      A
 Frequencies --    607.3486               644.1581               667.8860
 Red. masses --      2.4507                 2.9250                 2.3144
 Frc consts  --      0.5326                 0.7151                 0.6083
 IR Inten    --     25.0721                85.2759                91.5128

                     25                     26                     27
                      A                      A                      A
 Frequencies --    677.9185               681.4248               732.2249
 Red. masses --      1.2379                 2.5702                 2.8166
 Frc consts  --      0.3352                 0.7032                 0.8897
 IR Inten    --     33.9182                 0.6458                20.4481

                     28                     29                     30
                      A                      A                      A
 Frequencies --    735.2202               773.7162               820.3689
 Red. masses --      3.0514                 3.9373                 1.3762
 Frc consts  --      0.9718                 1.3887                 0.5457
 IR Inten    --     40.1676                 9.6281                17.0715

                     31                     32                     33
                      A                      A                      A
 Frequencies --    826.1134               848.0093               854.7833
 Red. masses --      2.5945                 1.4286                 2.4322
 Frc consts  --      1.0432                 0.6053                 1.0470
 IR Inten    --      5.6179                17.5398                51.3169

                     34                     35                     36
                      A                      A                      A
 Frequencies --    893.9488               937.9943               953.8848
 Red. masses --      2.1508                 5.8848                 2.3450
 Frc consts  --      1.0127                 3.0506                 1.2571
 IR Inten    --     89.5494                12.4697                 4.1944

                     37                     38                     39
                      A                      A                      A
 Frequencies --    955.6515              1005.9506              1006.9051
 Red. masses --      1.3793                 5.0109                 2.8011
 Frc consts  --      0.7422                 2.9876                 1.6732
 IR Inten    --      6.9594                 1.6455                 4.8576

                     40                     41                     42
                      A                      A                      A
 Frequencies --   1029.2317              1036.1773              1107.1591
 Red. masses --      3.6078                 3.1981                 2.6720
 Frc consts  --      2.2517                 2.0231                 1.9298
 IR Inten    --     26.0252                11.5454                 5.8007

                     43                     44                     45
                      A                      A                      A
 Frequencies --   1120.4780              1134.9535              1140.7479
 Red. masses --      1.5797                 1.4497                 1.5398
 Frc consts  --      1.1685                 1.1002                 1.1806
 IR Inten    --     35.8061               116.3405                80.7377

                     46                     47                     48
                      A                      A                      A
 Frequencies --   1160.2468              1191.5009              1204.4266
 Red. masses --      1.9876                 1.2874                 2.3734
 Frc consts  --      1.5765                 1.0768                 2.0285
 IR Inten    --     18.6514                11.6997               188.0544

                     49                     50                     51
                      A                      A                      A
 Frequencies --   1253.1843              1276.3911              1284.3378
 Red. masses --      1.4243                 1.6716                 1.7187
 Frc consts  --      1.3179                 1.6045                 1.6703
 IR Inten    --     30.2762                 9.2372                 4.6302

                     52                     53                     54
                      A                      A                      A
 Frequencies --   1293.4505              1302.0813              1312.8960
 Red. masses --      1.3326                 1.2247                 1.2756
 Frc consts  --      1.3135                 1.2234                 1.2955
 IR Inten    --     36.6780               204.2221                 1.7483

                     55                     56                     57
                      A                      A                      A
 Frequencies --   1329.8938              1367.4320              1380.5637
 Red. masses --      1.3647                 1.5010                 1.5212
 Frc consts  --      1.4221                 1.6537                 1.7082
 IR Inten    --     10.0433                54.9587                29.8124

                     58                     59                     60
                      A                      A                      A
 Frequencies --   1395.7704              1403.4132              1442.1728
 Red. masses --      1.3489                 3.3551                 2.5192
 Frc consts  --      1.5483                 3.8934                 3.0870
 IR Inten    --    158.4355                35.7941                93.9029

                     61                     62                     63
                      A                      A                      A
 Frequencies --   1446.2687              1459.8672              1475.5139
 Red. masses --      2.8228                 1.3476                 1.0904
 Frc consts  --      3.4788                 1.6921                 1.3987
 IR Inten    --     22.6614               493.2522                25.5730

                     64                     65                     66
                      A                      A                      A
 Frequencies --   1486.0108              1512.5638              1518.7848
 Red. masses --      1.1526                 3.4820                 1.0790
 Frc consts  --      1.4995                 4.6936                 1.4664
 IR Inten    --     11.7369                23.5014                39.4041

                     67                     68                     69
                      A                      A                      A
 Frequencies --   1579.2628              1620.9853              1634.0501
 Red. masses --      2.9547                 4.5178                 1.1202
 Frc consts  --      4.3418                 6.9942                 1.7623
 IR Inten    --    235.2584                 3.0125                33.1828

                     70                     71                     72
                      A                      A                      A
 Frequencies --   1678.7069              1729.0896              1837.9596
 Red. masses --      1.0692                 3.6025                 9.8346
 Frc consts  --      1.7753                 6.3458                19.5740
 IR Inten    --     75.2487               128.7866               280.0221

                     73                     74                     75
                      A                      A                      A
 Frequencies --   2321.9987              3054.4391              3058.8264
 Red. masses --      1.1070                 1.0693                 1.0683
 Frc consts  --      3.5164                 5.8780                 5.8891
 IR Inten    --   1259.5430                18.7323                 0.9399

                     76                     77                     78
                      A                      A                      A
 Frequencies --   3089.1421              3108.8112              3128.9066
 Red. masses --      1.0841                 1.0619                 1.0961
 Frc consts  --      6.0951                 6.0469                 6.3224
 IR Inten    --      3.6254                 2.5536                 0.4175

                     79                     80                     81
                      A                      A                      A
 Frequencies --   3134.6285              3169.3408              3249.4080
 Red. masses --      1.0955                 1.1113                 1.0964
 Frc consts  --      6.3424                 6.5767                 6.8210
 IR Inten    --      4.4938                 0.6507                 6.8126

                     82                     83                     84
                      A                      A                      A
 Frequencies --   3266.6452              3469.5108              3543.6073
 Red. masses --      1.0982                 1.0523                 1.0795
 Frc consts  --      6.9048                 7.4633                 7.9868
 IR Inten    --      0.3833                81.4210               157.6230

                     85                     86                     87
                      A                      A                      A
 Frequencies --   3544.3961              3671.8213              3735.4250
 Red. masses --      1.0945                 1.0811                 1.0644
 Frc consts  --      8.1014                 8.5879                 8.7509
 IR Inten    --     63.6605                80.1393               124.1284

 - Thermochemistry -
 -------------------
 Temperature   298.150 Kelvin.  Pressure   1.00000 Atm.
 Atom     1 has atomic number  8 and mass  15.99491

 Molecular mass:   227.11442 amu.
 Principal axes and moments of inertia in atomic units:
                           1         2         3
     Eigenvalues --  2503.677095880.451078068.89513
           X            0.97732   0.20777  -0.04093
           Y            0.11766  -0.37210   0.92070
           Z           -0.17607   0.90464   0.38811
 This molecule is an asymmetric top.
 Rotational symmetry number  1.
 Warning -- assumption of classical behavior for rotation
           may cause significant error
 Rotational temperatures (Kelvin)      0.03459     0.01473     0.01073
 Rotational constants (GHZ):           0.72084     0.30691     0.22367
 Zero-point vibrational energy     681163.3 (Joules/Mol)
                                  162.80195 (Kcal/Mol)
 Warning -- explicit consideration of  22 degrees of freedom as
           vibrations may cause significant error
 Vibrational temperatures:     32.47    44.12    69.03    85.86   107.53
          (Kelvin)            146.64   174.76   189.25   274.64   301.30
                              377.80   417.94   466.85   502.84   557.85
                              581.59   595.92   668.04   778.59   786.43
                              848.22   873.84   926.80   960.94   975.37
                              980.42  1053.51  1057.82  1113.20  1180.33
                             1188.59  1220.09  1229.84  1286.19  1349.56
                             1372.43  1374.97  1447.34  1448.71  1480.83
                             1490.83  1592.95  1612.12  1632.94  1641.28
                             1669.33  1714.30  1732.90  1803.05  1836.44
                             1847.87  1860.98  1873.40  1888.96  1913.42
                             1967.43  1986.32  2008.20  2019.20  2074.96
                             2080.86  2100.42  2122.93  2138.04  2176.24
                             2185.19  2272.20  2332.23  2351.03  2415.28
                             2487.77  2644.41  3340.83  4394.65  4400.96
                             4444.58  4472.88  4501.79  4510.03  4559.97
                             4675.17  4699.97  4991.85  5098.45  5099.59
                             5282.93  5374.44

 Zero-point correction=                           0.259441 (Hartree/Particle)
 Thermal correction to Energy=                    0.274942
 Thermal correction to Enthalpy=                  0.275886
 Thermal correction to Gibbs Free Energy=         0.214006
 Sum of electronic and zero-point Energies=           -796.301135
 Sum of electronic and thermal Energies=              -796.285635
 Sum of electronic and thermal Enthalpies=            -796.284690
 Sum of electronic and thermal Free Energies=         -796.346570

                     E (Thermal)             CV                S
                      KCal/Mol        Cal/Mol-Kelvin    Cal/Mol-Kelvin
 Total                  172.529             57.478            130.236
 Electronic               0.000              0.000              0.000
 Translational            0.889              2.981             42.163
 Rotational               0.889              2.981             33.140
 Vibrational            170.751             51.517             54.933
 Vibration     1          0.593              1.985              6.394
 Vibration     2          0.594              1.984              5.786
 Vibration     3          0.595              1.978              4.899
 Vibration     4          0.597              1.974              4.468
 Vibration     5          0.599              1.966              4.025
 Vibration     6          0.604              1.948              3.417
 Vibration     7          0.609              1.931              3.077
 Vibration     8          0.612              1.922              2.923
 Vibration     9          0.634              1.852              2.219
 Vibration    10          0.642              1.826              2.049
 Vibration    11          0.670              1.741              1.645
 Vibration    12          0.686              1.691              1.471
 Vibration    13          0.709              1.626              1.287
 Vibration    14          0.727              1.576              1.168
 Vibration    15          0.756              1.496              1.009
 Vibration    16          0.769              1.461              0.947
 Vibration    17          0.778              1.439              0.912
 Vibration    18          0.822              1.329              0.754
 Vibration    19          0.896              1.159              0.563
 Vibration    20          0.902              1.147              0.551
 Vibration    21          0.947              1.054              0.468
 Vibration    22          0.966              1.016              0.437

 Optimization completed.
    -- Stationary point found.
 Normal termination of Gaussian 09 at Sat Jul 24 01:30:41 2021.
