 Gaussian 09, Revision D.01,
 Gaussian 09:  ES64L-G09RevD.01 24-Apr-2013

 ----------------------------------------------------------------------
 # B3LYP/6-31G(d,p) EmpiricalDispersion=GD3BJ opt=calcfc freq=noraman n
 osymm integral(ultrafinegrid)
 ----------------------------------------------------------------------

 ------------------------------------------------------------
 Candidate Structure: Conf:661 OPT and FREQ calc in gas phase
 ------------------------------------------------------------
 Symbolic Z-matrix:
 Charge =  1 Multiplicity = 1

 SCF Done:  E(RB3LYP) =  -796.532660478     A.U. after   14 cycles
 SCF Done:  E(RB3LYP) =  -796.497890985     A.U. after   15 cycles
 SCF Done:  E(RB3LYP) =  -796.540580170     A.U. after   12 cycles
 SCF Done:  E(RB3LYP) =  -796.543889551     A.U. after   13 cycles
 SCF Done:  E(RB3LYP) =  -796.547134090     A.U. after   15 cycles
 SCF Done:  E(RB3LYP) =  -796.550496243     A.U. after   13 cycles
 SCF Done:  E(RB3LYP) =  -796.552460217     A.U. after   13 cycles
 SCF Done:  E(RB3LYP) =  -796.541743865     A.U. after   15 cycles
 SCF Done:  E(RB3LYP) =  -796.552930686     A.U. after   12 cycles
 SCF Done:  E(RB3LYP) =  -796.553348208     A.U. after   12 cycles
 SCF Done:  E(RB3LYP) =  -796.553565116     A.U. after   12 cycles
 SCF Done:  E(RB3LYP) =  -796.553602154     A.U. after   11 cycles
 SCF Done:  E(RB3LYP) =  -796.553612934     A.U. after   10 cycles
 SCF Done:  E(RB3LYP) =  -796.553614757     A.U. after   10 cycles
 SCF Done:  E(RB3LYP) =  -796.553615300     A.U. after    8 cycles
 SCF Done:  E(RB3LYP) =  -796.553615485     A.U. after    8 cycles
 SCF Done:  E(RB3LYP) =  -796.553615583     A.U. after    7 cycles
 SCF Done:  E(RB3LYP) =  -796.553615620     A.U. after    7 cycles
 SCF Done:  E(RB3LYP) =  -796.553615651     A.U. after    7 cycles
 Optimization completed.
    -- Stationary point found.
 Normal termination of Gaussian 09 at Sat Jul 24 01:32:14 2021.

 ----------------------------------------------------------------------
 #N Geom=AllCheck Guess=TCheck SCRF=Check GenChk RB3LYP/6-31G(d,p) Freq
 ----------------------------------------------------------------------

 Structure from the checkpoint file:  "conf-661.chk"
 ------------------------------------------------------------
 Candidate Structure: Conf:661 OPT and FREQ calc in gas phase
 ------------------------------------------------------------
 Charge =  1 Multiplicity = 1

                          Input orientation:
 ---------------------------------------------------------------------
 Center     Atomic      Atomic             Coordinates (Angstroms)
 Number     Number       Type             X           Y           Z
 ---------------------------------------------------------------------
      1          8           0        2.117920    1.161500    0.926611
      2          6           0        1.412430    0.983181   -0.057695
      3          7           0        0.188652    0.388866    0.027329
      4          6           0       -0.246126   -0.121909    1.303411
      5          6           0        0.787275   -1.148852    1.788923
      6          8           0        0.814365   -1.414031    3.087777
      7          8           0        1.502830   -1.789948    1.034247
      8          6           0       -1.626283   -0.834691    1.147599
      9          6           0       -2.595009   -0.030419    0.352039
     10          6           0       -2.928545   -0.096693   -0.985611
     11          7           0       -3.788899    0.919203   -1.331297
     12          6           0       -3.982000    1.602761   -0.225007
     13          7           0       -3.273035    1.080222    0.824234
     14          6           0        1.968355    1.151655   -1.465744
     15          6           0        3.111471    0.142576   -1.596478
     16          7           0        2.611509   -1.271189   -1.361868
     17          1           0       -0.502047    0.449912   -0.714296
     18          1           0       -0.316349    0.688912    2.039975
     19          1           0        0.259230   -0.802620    3.595782
     20          1           0       -2.009253   -1.078267    2.144013
     21          1           0       -1.466252   -1.784882    0.629299
     22          1           0       -2.624784   -0.849313   -1.701919
     23          1           0       -4.617293    2.470598   -0.117465
     24          1           0       -3.300333    1.408875    1.778393
     25          1           0        2.392200    2.152258   -1.580034
     26          1           0        1.212705    1.007485   -2.245004
     27          1           0        3.857283    0.333589   -0.824096
     28          1           0        3.579598    0.167177   -2.581344
     29          1           0        3.389292   -1.936434   -1.377140
     30          1           0        2.116573   -1.393421   -0.422183
     31          1           0        1.954115   -1.555994   -2.092445
 ---------------------------------------------------------------------

 SCF Done:  E(RB3LYP) =  -796.553615651     A.U. after    1 cycles

 Alpha  occ. eigenvalues --  -19.34715 -19.29512 -19.26305 -14.60797 -14.50916
 Alpha  occ. eigenvalues --  -14.50646 -14.42103 -10.47783 -10.43593 -10.41185
 Alpha  occ. eigenvalues --  -10.39291 -10.35856 -10.35064 -10.35037 -10.34282
 Alpha  occ. eigenvalues --  -10.31500  -1.25897  -1.18939  -1.17244  -1.15240
 Alpha  occ. eigenvalues --   -1.12653  -1.07743  -0.98340  -0.95316  -0.92940
 Alpha  occ. eigenvalues --   -0.87074  -0.82492  -0.79805  -0.77563  -0.74985
 Alpha  occ. eigenvalues --   -0.73825  -0.73094  -0.72605  -0.70745  -0.68011
 Alpha  occ. eigenvalues --   -0.66128  -0.65618  -0.64703  -0.64326  -0.60582
 Alpha  occ. eigenvalues --   -0.59368  -0.58503  -0.57490  -0.56869  -0.55901
 Alpha  occ. eigenvalues --   -0.55313  -0.53919  -0.53247  -0.52644  -0.52010
 Alpha  occ. eigenvalues --   -0.51890  -0.51526  -0.49953  -0.46781  -0.43837
 Alpha  occ. eigenvalues --   -0.41009  -0.40156  -0.39316  -0.37304  -0.34350
 Alpha virt. eigenvalues --   -0.14937  -0.13422  -0.11792  -0.09394  -0.07424
 Alpha virt. eigenvalues --   -0.06806  -0.05760  -0.04534  -0.03761  -0.02246
 Alpha virt. eigenvalues --   -0.01063  -0.00564   0.00254   0.00789   0.01485

 Mulliken charges:
               1
     1  O   -0.485247
     2  C    0.551143
     3  N   -0.530257
     4  C   -0.014699
     5  C    0.672621
     6  O   -0.437028
     7  O   -0.506134
     8  C   -0.277953
     9  C    0.268482
    10  C   -0.025322
    11  N   -0.415834
    12  C    0.275742
    13  N   -0.530189
    14  C   -0.267065
    15  C   -0.120951
    16  N   -0.582778
    17  H    0.281118
    18  H    0.143358
    19  H    0.349686
    20  H    0.141408
    21  H    0.153695
    22  H    0.103543
    23  H    0.149204
    24  H    0.278131
    25  H    0.193025
    26  H    0.134268
    27  H    0.210846
    28  H    0.177975
    29  H    0.355172
    30  H    0.414004
    31  H    0.340037
 Sum of Mulliken charges =   1.00000

 Dipole moment (field-independent basis, Debye):
    X=              4.4622    Y=             -1.6142    Z=             -1.2642  Tot=              4.9107
 Quadrupole moment (field-independent basis, Debye-Ang):
   XX=            -63.4319   YY=            -82.1702   ZZ=            -66.8316
   XY=            -12.7401   XZ=            -36.6137   YZ=              9.4147

  Exact polarizability: 136.718 -16.710 103.973  -1.357  -2.819 127.822
 Approx polarizability: 180.989 -21.740 160.371  10.253   7.044 209.697

                      1                      2                      3
                      A                      A                      A
 Frequencies --     27.6448                36.3590                61.4927
 Red. masses --      3.8528                 4.3388                 6.7625
 Frc consts  --      0.0017                 0.0034                 0.0151
 IR Inten    --     10.7151                 2.1104                11.0869

                      4                      5                      6
                      A                      A                      A
 Frequencies --     70.6822                78.4562               113.8652
 Red. masses --      4.1693                 5.6980                 4.5998
 Frc consts  --      0.0123                 0.0207                 0.0351
 IR Inten    --      6.2011                 5.8141                 2.0506

                      7                      8                      9
                      A                      A                      A
 Frequencies --    150.6831               160.9354               176.7304
 Red. masses --      5.4079                 6.2440                 7.0009
 Frc consts  --      0.0723                 0.0953                 0.1288
 IR Inten    --     20.4069                 3.2317                14.9283

                     10                     11                     12
                      A                      A                      A
 Frequencies --    234.7614               251.7336               281.3162
 Red. masses --      4.0349                 2.6203                 5.8490
 Frc consts  --      0.1310                 0.0978                 0.2727
 IR Inten    --     81.0779                10.0188                 7.2627

                     13                     14                     15
                      A                      A                      A
 Frequencies --    319.7518               342.1397               346.3954
 Red. masses --      3.2499                 1.2220                 3.1514
 Frc consts  --      0.1958                 0.0843                 0.2228
 IR Inten    --     10.5163                 0.5625                 6.0965

                     16                     17                     18
                      A                      A                      A
 Frequencies --    382.9133               423.5545               447.9929
 Red. masses --      3.4692                 3.7894                 2.3714
 Frc consts  --      0.2997                 0.4005                 0.2804
 IR Inten    --     15.5527                38.5699                 1.7573

                     19                     20                     21
                      A                      A                      A
 Frequencies --    517.8168               525.8026               540.5277
 Red. masses --      1.2220                 1.5010                 1.2491
 Frc consts  --      0.1931                 0.2445                 0.2150
 IR Inten    --     36.2002                29.9991               107.0940

                     22                     23                     24
                      A                      A                      A
 Frequencies --    549.4617               634.6673               656.1329
 Red. masses --      2.2249                 4.5272                 3.2924
 Frc consts  --      0.3958                 1.0744                 0.8351
 IR Inten    --     43.5074                 5.5006                 6.2267

                     25                     26                     27
                      A                      A                      A
 Frequencies --    678.0828               694.9454               715.4845
 Red. masses --      3.0998                 3.6551                 4.5874
 Frc consts  --      0.8397                 1.0400                 1.3836
 IR Inten    --      2.8212                10.3199                11.4180

                     28                     29                     30
                      A                      A                      A
 Frequencies --    746.0640               780.0194               836.2583
 Red. masses --      2.5877                 5.5256                 1.3515
 Frc consts  --      0.8486                 1.9808                 0.5569
 IR Inten    --      2.9016                 2.5373                26.3329

                     31                     32                     33
                      A                      A                      A
 Frequencies --    843.5392               845.5897               866.3637
 Red. masses --      1.7562                 2.3482                 2.2009
 Frc consts  --      0.7363                 0.9892                 0.9733
 IR Inten    --      9.9016                 1.9480                 6.6353

                     34                     35                     36
                      A                      A                      A
 Frequencies --    880.7944               934.9165               939.7446
 Red. masses --      2.1129                 5.9481                 2.5778
 Frc consts  --      0.9658                 3.0632                 1.3413
 IR Inten    --     15.0523                 9.6816                 6.1650

                     37                     38                     39
                      A                      A                      A
 Frequencies --    954.5621               963.4509              1008.5058
 Red. masses --      1.3445                 3.1461                 2.7678
 Frc consts  --      0.7218                 1.7206                 1.6586
 IR Inten    --      9.4629                 4.1833                11.5111

                     40                     41                     42
                      A                      A                      A
 Frequencies --   1018.0229              1045.7657              1095.8997
 Red. masses --      3.4803                 2.9196                 1.5050
 Frc consts  --      2.1251                 1.8812                 1.0650
 IR Inten    --     14.0976                 6.0021                 3.5719

                     43                     44                     45
                      A                      A                      A
 Frequencies --   1112.9125              1120.4992              1147.4574
 Red. masses --      1.6471                 1.3558                 1.8600
 Frc consts  --      1.2020                 1.0029                 1.4429
 IR Inten    --     21.5588                 3.4846                26.7514

                     46                     47                     48
                      A                      A                      A
 Frequencies --   1160.2535              1199.9628              1213.5136
 Red. masses --      2.0522                 1.5635                 1.6229
 Frc consts  --      1.6277                 1.3264                 1.4081
 IR Inten    --     12.5731                24.4909                43.6840

                     49                     50                     51
                      A                      A                      A
 Frequencies --   1244.4545              1268.4402              1282.0323
 Red. masses --      1.6300                 1.7316                 1.5468
 Frc consts  --      1.4873                 1.6415                 1.4979
 IR Inten    --     67.5026                 5.5865                14.8139

                     52                     53                     54
                      A                      A                      A
 Frequencies --   1288.1078              1308.0986              1334.7883
 Red. masses --      1.5596                 1.4318                 1.3462
 Frc consts  --      1.5247                 1.4435                 1.4132
 IR Inten    --     33.5000                62.8783                73.9840

                     55                     56                     57
                      A                      A                      A
 Frequencies --   1349.9305              1359.5417              1386.6194
 Red. masses --      1.4884                 1.6476                 1.4108
 Frc consts  --      1.5981                 1.7943                 1.5982
 IR Inten    --    128.3280                38.3362                 2.4834

                     58                     59                     60
                      A                      A                      A
 Frequencies --   1404.4672              1411.4200              1415.8543
 Red. masses --      3.3807                 1.3060                 2.3112
 Frc consts  --      3.9290                 1.5329                 2.7298
 IR Inten    --      7.5936                 2.7356               182.4707

                     61                     62                     63
                      A                      A                      A
 Frequencies --   1439.8535              1486.7973              1489.3058
 Red. masses --      2.9662                 1.1005                 1.1862
 Frc consts  --      3.6232                 1.4333                 1.5501
 IR Inten    --     27.1008                14.5982                14.1687

                     64                     65                     66
                      A                      A                      A
 Frequencies --   1507.3336              1512.8639              1525.6010
 Red. masses --      1.0791                 3.2565                 2.3580
 Frc consts  --      1.4446                 4.3914                 3.2335
 IR Inten    --     15.7011                54.1292               318.4615

                     67                     68                     69
                      A                      A                      A
 Frequencies --   1590.5314              1613.2192              1672.3153
 Red. masses --      1.1534                 4.3209                 1.0490
 Frc consts  --      1.7191                 6.6254                 1.7284
 IR Inten    --    109.5332                 6.5216                46.3137

                     70                     71                     72
                      A                      A                      A
 Frequencies --   1688.1655              1776.7692              1798.9948
 Red. masses --      1.0418                 8.9642                 8.6158
 Frc consts  --      1.7494                16.6733                16.4288
 IR Inten    --     45.0573               222.1550               420.3974

                     73                     74                     75
                      A                      A                      A
 Frequencies --   2720.6680              3041.1142              3065.2011
 Red. masses --      1.0950                 1.0850                 1.0615
 Frc consts  --      4.7753                 5.9122                 5.8763
 IR Inten    --   1396.4000                12.3872                12.2145

                     76                     77                     78
                      A                      A                      A
 Frequencies --   3074.0208              3114.1562              3114.8432
 Red. masses --      1.0645                 1.0602                 1.1040
 Frc consts  --      5.9264                 6.0577                 6.3107
 IR Inten    --      7.1742                 2.4058                 6.0970

                     79                     80                     81
                      A                      A                      A
 Frequencies --   3139.5890              3180.5597              3239.2086
 Red. masses --      1.1017                 1.1120                 1.0964
 Frc consts  --      6.3985                 6.6277                 6.7779
 IR Inten    --      2.1570                 0.3283                 4.0705

                     82                     83                     84
                      A                      A                      A
 Frequencies --   3270.7621              3457.4678              3523.3343
 Red. masses --      1.0988                 1.0536                 1.0930
 Frc consts  --      6.9256                 7.4209                 7.9940
 IR Inten    --      0.7755                75.5262                65.6974

                     85                     86                     87
                      A                      A                      A
 Frequencies --   3542.8707              3654.6983              3788.4414
 Red. masses --      1.0795                 1.0816                 1.0664
 Frc consts  --      7.9836                 8.5114                 9.0175
 IR Inten    --    211.3615                58.3041                72.4077

 - Thermochemistry -
 -------------------
 Temperature   298.150 Kelvin.  Pressure   1.00000 Atm.
 Atom     1 has atomic number  8 and mass  15.99491

 Molecular mass:   227.11442 amu.
 Principal axes and moments of inertia in atomic units:
                           1         2         3
     Eigenvalues --  2347.485695235.525956395.36075
           X            0.98197  -0.09291   0.16462
           Y           -0.18880  -0.43937   0.87824
           Z            0.00927   0.89349   0.44899
 This molecule is an asymmetric top.
 Rotational symmetry number  1.
 Warning -- assumption of classical behavior for rotation
           may cause significant error
 Rotational temperatures (Kelvin)      0.03690     0.01654     0.01354
 Rotational constants (GHZ):           0.76880     0.34471     0.28220
 Zero-point vibrational energy     683168.6 (Joules/Mol)
                                  163.28121 (Kcal/Mol)
 Warning -- explicit consideration of  22 degrees of freedom as
           vibrations may cause significant error
 Vibrational temperatures:     39.77    52.31    88.47   101.70   112.88
          (Kelvin)            163.83   216.80   231.55   254.28   337.77
                              362.19   404.75   460.05   492.26   498.39
                              550.93   609.40   644.56   745.02   756.51
                              777.70   790.55   913.14   944.03   975.61
                              999.87  1029.42  1073.42  1122.27  1203.19
                             1213.66  1216.61  1246.50  1267.27  1345.13
                             1352.08  1373.40  1386.19  1451.01  1464.71
                             1504.62  1576.75  1601.23  1612.15  1650.93
                             1669.34  1726.48  1745.97  1790.49  1825.00
                             1844.56  1853.30  1882.06  1920.46  1942.25
                             1956.07  1995.03  2020.71  2030.72  2037.10
                             2071.63  2139.17  2142.78  2168.71  2176.67
                             2195.00  2288.42  2321.06  2406.09  2428.89
                             2556.37  2588.35  3914.43  4375.48  4410.14
                             4422.82  4480.57  4481.56  4517.16  4576.11
                             4660.49  4705.89  4974.52  5069.29  5097.39
                             5258.29  5450.72

 Zero-point correction=                           0.260205 (Hartree/Particle)
 Thermal correction to Energy=                    0.275693
 Thermal correction to Enthalpy=                  0.276637
 Thermal correction to Gibbs Free Energy=         0.215885
 Sum of electronic and zero-point Energies=           -796.293410
 Sum of electronic and thermal Energies=              -796.277923
 Sum of electronic and thermal Enthalpies=            -796.276979
 Sum of electronic and thermal Free Energies=         -796.337731

                     E (Thermal)             CV                S
                      KCal/Mol        Cal/Mol-Kelvin    Cal/Mol-Kelvin
 Total                  173.000             57.925            127.864
 Electronic               0.000              0.000              0.000
 Translational            0.889              2.981             42.163
 Rotational               0.889              2.981             32.730
 Vibrational            171.222             51.963             52.971
 Vibration     1          0.593              1.984              5.992
 Vibration     2          0.594              1.982              5.448
 Vibration     3          0.597              1.973              4.409
 Vibration     4          0.598              1.968              4.134
 Vibration     5          0.600              1.964              3.929
 Vibration     6          0.607              1.938              3.202
 Vibration     7          0.618              1.902              2.664
 Vibration     8          0.622              1.890              2.539
 Vibration     9          0.628              1.871              2.363
 Vibration    10          0.655              1.788              1.842
 Vibration    11          0.664              1.760              1.718
 Vibration    12          0.681              1.708              1.526
 Vibration    13          0.706              1.636              1.311
 Vibration    14          0.721              1.591              1.202
 Vibration    15          0.724              1.583              1.183
 Vibration    16          0.752              1.507              1.028
 Vibration    17          0.786              1.419              0.880
 Vibration    18          0.807              1.365              0.802
 Vibration    19          0.873              1.211              0.615
 Vibration    20          0.881              1.193              0.597
 Vibration    21          0.896              1.160              0.564
 Vibration    22          0.905              1.141              0.545

 Optimization completed.
    -- Stationary point found.
 Normal termination of Gaussian 09 at Sat Jul 24 01:55:10 2021.
