 Gaussian 09, Revision D.01,
 Gaussian 09:  ES64L-G09RevD.01 24-Apr-2013

 ----------------------------------------------------------------------
 # B3LYP/6-31G(d,p) EmpiricalDispersion=GD3BJ opt=calcfc freq=noraman n
 osymm integral(ultrafinegrid)
 ----------------------------------------------------------------------

 ------------------------------------------------------------
 Candidate Structure: Conf:862 OPT and FREQ calc in gas phase
 ------------------------------------------------------------
 Symbolic Z-matrix:
 Charge =  1 Multiplicity = 1

 SCF Done:  E(RB3LYP) =  -796.566160220     A.U. after   14 cycles
 SCF Done:  E(RB3LYP) =  -796.471641834     A.U. after   15 cycles
 SCF Done:  E(RB3LYP) =  -796.574206620     A.U. after   12 cycles
 SCF Done:  E(RB3LYP) =  -796.576872039     A.U. after   12 cycles
 SCF Done:  E(RB3LYP) =  -796.574722384     A.U. after   14 cycles
 SCF Done:  E(RB3LYP) =  -796.578229756     A.U. after   11 cycles
 SCF Done:  E(RB3LYP) =  -796.579820844     A.U. after   12 cycles
 SCF Done:  E(RB3LYP) =  -796.579995548     A.U. after   12 cycles
 SCF Done:  E(RB3LYP) =  -796.580098053     A.U. after   11 cycles
 SCF Done:  E(RB3LYP) =  -796.580169378     A.U. after   11 cycles
 SCF Done:  E(RB3LYP) =  -796.580237091     A.U. after   10 cycles
 SCF Done:  E(RB3LYP) =  -796.580308765     A.U. after   11 cycles
 SCF Done:  E(RB3LYP) =  -796.580323196     A.U. after   10 cycles
 SCF Done:  E(RB3LYP) =  -796.580330290     A.U. after   10 cycles
 SCF Done:  E(RB3LYP) =  -796.580330511     A.U. after    8 cycles
 SCF Done:  E(RB3LYP) =  -796.580330626     A.U. after    7 cycles
 Optimization completed.
    -- Stationary point found.
 Normal termination of Gaussian 09 at Sat Jul 24 01:30:33 2021.

 ----------------------------------------------------------------------
 #N Geom=AllCheck Guess=TCheck SCRF=Check GenChk RB3LYP/6-31G(d,p) Freq
 ----------------------------------------------------------------------

 Structure from the checkpoint file:  "conf-862.chk"
 ------------------------------------------------------------
 Candidate Structure: Conf:862 OPT and FREQ calc in gas phase
 ------------------------------------------------------------
 Charge =  1 Multiplicity = 1

                          Input orientation:
 ---------------------------------------------------------------------
 Center     Atomic      Atomic             Coordinates (Angstroms)
 Number     Number       Type             X           Y           Z
 ---------------------------------------------------------------------
      1          8           0       -0.733530    1.773169   -0.161351
      2          6           0        0.331520    1.233765    0.172101
      3          7           0        0.487687    0.577376    1.338295
      4          6           0       -0.637117    0.177099    2.161867
      5          6           0       -0.186388    0.198910    3.612696
      6          8           0       -1.229439    0.191944    4.449960
      7          8           0        0.977649    0.156333    3.944541
      8          6           0       -1.138708   -1.282869    1.807613
      9          6           0       -0.885475   -1.603207    0.371427
     10          6           0       -1.391831   -1.064773   -0.784960
     11          7           0       -0.612324   -1.416594   -1.872635
     12          6           0        0.335971   -2.208579   -1.392445
     13          7           0        0.215230   -2.339075   -0.044567
     14          6           0        1.526452    1.180158   -0.781795
     15          6           0        1.203652    1.749101   -2.165454
     16          7           0       -0.121319    1.232188   -2.664441
     17          1           0        1.401776    0.272798    1.650400
     18          1           0       -1.447805    0.886576    1.996253
     19          1           0       -0.886487    0.151042    5.360479
     20          1           0       -2.199979   -1.351225    2.055504
     21          1           0       -0.618248   -2.008183    2.441510
     22          1           0       -2.234980   -0.397965   -0.881991
     23          1           0        1.102042   -2.705839   -1.969399
     24          1           0        0.783487   -2.931547    0.544961
     25          1           0        1.849503    0.137901   -0.865724
     26          1           0        2.371063    1.741579   -0.367707
     27          1           0        1.976259    1.478609   -2.885871
     28          1           0        1.114938    2.836089   -2.132501
     29          1           0       -0.203000    0.176041   -2.650423
     30          1           0       -0.346733    1.588367   -3.594219
     31          1           0       -0.803764    1.571019   -1.953925
 ---------------------------------------------------------------------

 SCF Done:  E(RB3LYP) =  -796.580330626     A.U. after    1 cycles

 Alpha  occ. eigenvalues --  -19.31907 -19.26910 -19.26404 -14.57793 -14.53260
 Alpha  occ. eigenvalues --  -14.50375 -14.46593 -10.44555 -10.44259 -10.40108
 Alpha  occ. eigenvalues --  -10.38428 -10.37434 -10.35822 -10.35766 -10.34026
 Alpha  occ. eigenvalues --  -10.33474  -1.23026  -1.18834  -1.15534  -1.14258
 Alpha  occ. eigenvalues --   -1.12854  -1.07195  -1.01296  -0.94565  -0.92383
 Alpha  occ. eigenvalues --   -0.88061  -0.82267  -0.80308  -0.75738  -0.74837
 Alpha  occ. eigenvalues --   -0.73375  -0.72560  -0.71681  -0.70751  -0.67717
 Alpha  occ. eigenvalues --   -0.65708  -0.63546  -0.62359  -0.61436  -0.60740
 Alpha  occ. eigenvalues --   -0.59377  -0.58530  -0.58196  -0.57147  -0.55459
 Alpha  occ. eigenvalues --   -0.55075  -0.54720  -0.53777  -0.53611  -0.52958
 Alpha  occ. eigenvalues --   -0.52058  -0.49995  -0.49778  -0.44088  -0.43244
 Alpha  occ. eigenvalues --   -0.42113  -0.41315  -0.40089  -0.39966  -0.36105
 Alpha virt. eigenvalues --   -0.13417  -0.12670  -0.11014  -0.08988  -0.08054
 Alpha virt. eigenvalues --   -0.05494  -0.03877  -0.03178  -0.02769  -0.01785
 Alpha virt. eigenvalues --   -0.01574  -0.00131   0.00015   0.00906   0.01424

 Mulliken charges:
               1
     1  O   -0.554885
     2  C    0.628460
     3  N   -0.512602
     4  C    0.009165
     5  C    0.586570
     6  O   -0.466736
     7  O   -0.454214
     8  C   -0.258671
     9  C    0.281854
    10  C    0.004633
    11  N   -0.510185
    12  C    0.268078
    13  N   -0.518292
    14  C   -0.300787
    15  C   -0.110450
    16  N   -0.566935
    17  H    0.289504
    18  H    0.185095
    19  H    0.349722
    20  H    0.175730
    21  H    0.133497
    22  H    0.129152
    23  H    0.157761
    24  H    0.293467
    25  H    0.154389
    26  H    0.184329
    27  H    0.174356
    28  H    0.186729
    29  H    0.357080
    30  H    0.340906
    31  H    0.363278
 Sum of Mulliken charges =   1.00000

 Dipole moment (field-independent basis, Debye):
    X=              2.3703    Y=              0.1591    Z=             -3.0314  Tot=              3.8514
 Quadrupole moment (field-independent basis, Debye-Ang):
   XX=            -83.3634   YY=            -73.9599   ZZ=            -50.0896
   XY=             -0.6697   XZ=            -10.8596   YZ=            -15.9759

  Exact polarizability: 107.810  -5.167 101.282  -8.163  -9.238 149.229
 Approx polarizability: 189.614 -26.438 150.764   0.502 -16.906 207.918

                      1                      2                      3
                      A                      A                      A
 Frequencies --     37.6370                53.6536                92.4843
 Red. masses --      4.8627                 8.3856                 4.4561
 Frc consts  --      0.0041                 0.0142                 0.0225
 IR Inten    --      2.9415                 1.1105                 0.0510

                      4                      5                      6
                      A                      A                      A
 Frequencies --    111.7470               113.5573               132.5971
 Red. masses --      4.3925                 5.1286                 3.9226
 Frc consts  --      0.0323                 0.0390                 0.0406
 IR Inten    --      8.8926                 4.5025                10.2853

                      7                      8                      9
                      A                      A                      A
 Frequencies --    146.8859               160.0898               188.5081
 Red. masses --      3.8651                 5.4479                 3.9695
 Frc consts  --      0.0491                 0.0823                 0.0831
 IR Inten    --     11.6452                 8.4882                11.3591

                     10                     11                     12
                      A                      A                      A
 Frequencies --    211.8057               265.2807               308.6334
 Red. masses --      2.4687                 4.7113                 5.7077
 Frc consts  --      0.0653                 0.1953                 0.3203
 IR Inten    --     32.5215                37.2210                 2.0839

                     13                     14                     15
                      A                      A                      A
 Frequencies --    314.5449               340.3029               361.4893
 Red. masses --      2.3888                 4.3749                 4.3548
 Frc consts  --      0.1393                 0.2985                 0.3353
 IR Inten    --      4.6781                 8.0266                49.0475

                     16                     17                     18
                      A                      A                      A
 Frequencies --    417.0094               442.6932               484.1938
 Red. masses --      3.5996                 2.4308                 1.2104
 Frc consts  --      0.3688                 0.2807                 0.1672
 IR Inten    --     11.2641                13.8740                 0.9499

                     19                     20                     21
                      A                      A                      A
 Frequencies --    526.8860               553.2789               596.5338
 Red. masses --      1.9265                 3.5438                 1.7487
 Frc consts  --      0.3151                 0.6392                 0.3666
 IR Inten    --     90.6147                21.8400               112.0866

                     22                     23                     24
                      A                      A                      A
 Frequencies --    622.7613               628.8040               638.3527
 Red. masses --      1.8997                 1.4058                 2.6980
 Frc consts  --      0.4341                 0.3275                 0.6478
 IR Inten    --      7.9568                51.6210                84.8499

                     25                     26                     27
                      A                      A                      A
 Frequencies --    685.4609               691.2672               691.5964
 Red. masses --      2.6804                 3.1071                 2.5709
 Frc consts  --      0.7420                 0.8748                 0.7245
 IR Inten    --     57.3727                 6.9778                 3.4740

                     28                     29                     30
                      A                      A                      A
 Frequencies --    721.9167               772.3332               811.3647
 Red. masses --      3.0073                 4.0524                 1.3987
 Frc consts  --      0.9234                 1.4242                 0.5425
 IR Inten    --     10.7774                25.4222                12.0872

                     31                     32                     33
                      A                      A                      A
 Frequencies --    843.5226               856.9129               866.9665
 Red. masses --      2.0206                 1.9766                 1.8992
 Frc consts  --      0.8471                 0.8551                 0.8410
 IR Inten    --     14.5982                18.5635                13.8105

                     34                     35                     36
                      A                      A                      A
 Frequencies --    883.1070               935.7910               952.7736
 Red. masses --      2.3559                 2.6252                 5.1393
 Frc consts  --      1.0825                 1.3545                 2.7488
 IR Inten    --      3.7762                11.5772                11.1976

                     37                     38                     39
                      A                      A                      A
 Frequencies --    963.5617               991.2720              1000.9745
 Red. masses --      3.5729                 1.5079                 3.0075
 Frc consts  --      1.9545                 0.8730                 1.7754
 IR Inten    --      1.7480                 2.7231                15.7730

                     40                     41                     42
                      A                      A                      A
 Frequencies --   1035.5892              1048.8642              1109.6386
 Red. masses --      3.3167                 2.9903                 2.0658
 Frc consts  --      2.0957                 1.9382                 1.4987
 IR Inten    --      5.2183                13.0175                11.5692

                     43                     44                     45
                      A                      A                      A
 Frequencies --   1132.8934              1140.2273              1144.7891
 Red. masses --      1.5342                 1.4707                 2.2466
 Frc consts  --      1.1602                 1.1266                 1.7347
 IR Inten    --     88.9503                10.9232                10.3983

                     46                     47                     48
                      A                      A                      A
 Frequencies --   1154.5022              1173.1559              1211.9495
 Red. masses --      1.4207                 1.8108                 1.8252
 Frc consts  --      1.1157                 1.4683                 1.5795
 IR Inten    --     50.5803               148.3706                44.8065

                     49                     50                     51
                      A                      A                      A
 Frequencies --   1250.5803              1261.4041              1282.7061
 Red. masses --      1.4922                 1.9443                 1.4338
 Frc consts  --      1.3750                 1.8228                 1.3899
 IR Inten    --     15.8954                 9.9360                 4.8881

                     52                     53                     54
                      A                      A                      A
 Frequencies --   1288.7159              1306.2255              1343.7031
 Red. masses --      1.3290                 1.6108                 1.4898
 Frc consts  --      1.3004                 1.6193                 1.5848
 IR Inten    --     13.1925                 7.5475                 3.2545

                     55                     56                     57
                      A                      A                      A
 Frequencies --   1344.8502              1357.8366              1395.0528
 Red. masses --      1.4352                 1.2061                 1.5449
 Frc consts  --      1.5294                 1.3102                 1.7714
 IR Inten    --      5.7757                22.9309                32.5323

                     58                     59                     60
                      A                      A                      A
 Frequencies --   1403.3961              1426.1149              1436.8509
 Red. masses --      2.5749                 1.3444                 2.8610
 Frc consts  --      2.9880                 1.6110                 3.4801
 IR Inten    --      4.4495                 8.3103               190.7079

                     61                     62                     63
                      A                      A                      A
 Frequencies --   1449.7582              1474.2906              1494.9209
 Red. masses --      2.7603                 1.1026                 1.1773
 Frc consts  --      3.4182                 1.4120                 1.5501
 IR Inten    --     28.0157                16.3401                11.3499

                     64                     65                     66
                      A                      A                      A
 Frequencies --   1503.3218              1511.4419              1518.1656
 Red. masses --      1.3778                 1.5081                 1.4235
 Frc consts  --      1.8346                 2.0298                 1.9331
 IR Inten    --    109.0360                26.2935               131.4613

                     67                     68                     69
                      A                      A                      A
 Frequencies --   1567.3643              1628.4257              1647.6964
 Red. masses --      2.3986                 4.1199                 1.1086
 Frc consts  --      3.4717                 6.4368                 1.7734
 IR Inten    --    196.7533                15.1686                35.6373

                     70                     71                     72
                      A                      A                      A
 Frequencies --   1712.1547              1737.6505              1844.8862
 Red. masses --      1.1623                 3.6820                10.3308
 Frc consts  --      2.0075                 6.5503                20.7169
 IR Inten    --    269.8989                67.9654               236.7753

                     73                     74                     75
                      A                      A                      A
 Frequencies --   2865.4320              3070.5332              3071.4169
 Red. masses --      1.0843                 1.0661                 1.0614
 Frc consts  --      5.2452                 5.9221                 5.8991
 IR Inten    --    925.0484                10.2120                 3.2882

                     76                     77                     78
                      A                      A                      A
 Frequencies --   3109.0780              3117.4073              3132.0869
 Red. masses --      1.0737                 1.0893                 1.0978
 Frc consts  --      6.1148                 6.2369                 6.3454
 IR Inten    --      5.1011                 5.2100                 1.7010

                     79                     80                     81
                      A                      A                      A
 Frequencies --   3149.6302              3167.6951              3178.6581
 Red. masses --      1.0882                 1.0989                 1.0804
 Frc consts  --      6.3605                 6.4967                 6.4314
 IR Inten    --      3.2711                83.1066               179.7825

                     82                     83                     84
                      A                      A                      A
 Frequencies --   3274.0576              3277.7636              3522.7156
 Red. masses --      1.0959                 1.1013                 1.0791
 Frc consts  --      6.9212                 6.9714                 7.8900
 IR Inten    --      0.9517                 2.8807               114.1229

                     85                     86                     87
                      A                      A                      A
 Frequencies --   3603.1386              3646.1747              3738.8369
 Red. masses --      1.0779                 1.0820                 1.0644
 Frc consts  --      8.2452                 8.4756                 8.7668
 IR Inten    --     75.1505                83.2760               116.5712

 - Thermochemistry -
 -------------------
 Temperature   298.150 Kelvin.  Pressure   1.00000 Atm.
 Atom     1 has atomic number  8 and mass  15.99491

 Molecular mass:   227.11442 amu.
 Principal axes and moments of inertia in atomic units:
                           1         2         3
     Eigenvalues --  2130.342764565.549985594.86030
           X           -0.10016   0.29244   0.95102
           Y           -0.04227   0.95372  -0.29772
           Z            0.99407   0.07002   0.08316
 This molecule is an asymmetric top.
 Rotational symmetry number  1.
 Warning -- assumption of classical behavior for rotation
           may cause significant error
 Rotational temperatures (Kelvin)      0.04066     0.01897     0.01548
 Rotational constants (GHZ):           0.84716     0.39530     0.32257
 Zero-point vibrational energy     685952.5 (Joules/Mol)
                                  163.94657 (Kcal/Mol)
 Warning -- explicit consideration of  21 degrees of freedom as
           vibrations may cause significant error
 Vibrational temperatures:     54.15    77.20   133.06   160.78   163.38
          (Kelvin)            190.78   211.34   230.33   271.22   304.74
                              381.68   444.05   452.56   489.62   520.10
                              599.98   636.94   696.65   758.07   796.04
                              858.28   896.01   904.71   918.45   986.22
                              994.58   995.05  1038.68  1111.21  1167.37
                             1213.64  1232.90  1247.37  1270.59  1346.39
                             1370.83  1386.35  1426.22  1440.18  1489.98
                             1509.08  1596.52  1629.98  1640.53  1647.09
                             1661.07  1687.91  1743.72  1799.30  1814.88
                             1845.53  1854.17  1879.36  1933.29  1934.94
                             1953.62  2007.17  2019.17  2051.86  2067.31
                             2085.88  2121.17  2150.86  2162.94  2174.63
                             2184.30  2255.08  2342.94  2370.66  2463.41
                             2500.09  2654.38  4122.71  4417.81  4419.08
                             4473.26  4485.25  4506.37  4531.61  4557.60
                             4573.37  4710.63  4715.96  5068.40  5184.11
                             5246.03  5379.35

 Zero-point correction=                           0.261265 (Hartree/Particle)
 Thermal correction to Energy=                    0.276253
 Thermal correction to Enthalpy=                  0.277197
 Thermal correction to Gibbs Free Energy=         0.218898
 Sum of electronic and zero-point Energies=           -796.319065
 Sum of electronic and thermal Energies=              -796.304078
 Sum of electronic and thermal Enthalpies=            -796.303133
 Sum of electronic and thermal Free Energies=         -796.361432

                     E (Thermal)             CV                S
                      KCal/Mol        Cal/Mol-Kelvin    Cal/Mol-Kelvin
 Total                  173.351             57.267            122.701
 Electronic               0.000              0.000              0.000
 Translational            0.889              2.981             42.163
 Rotational               0.889              2.981             32.365
 Vibrational            171.574             51.305             48.173
 Vibration     1          0.594              1.982              5.380
 Vibration     2          0.596              1.976              4.678
 Vibration     3          0.602              1.955              3.607
 Vibration     4          0.607              1.940              3.238
 Vibration     5          0.607              1.938              3.207
 Vibration     6          0.613              1.921              2.908
 Vibration     7          0.617              1.906              2.712
 Vibration     8          0.622              1.891              2.549
 Vibration     9          0.633              1.856              2.242
 Vibration    10          0.643              1.823              2.028
 Vibration    11          0.671              1.737              1.627
 Vibration    12          0.698              1.657              1.370
 Vibration    13          0.702              1.646              1.338
 Vibration    14          0.720              1.595              1.211
 Vibration    15          0.736              1.552              1.116
 Vibration    16          0.780              1.433              0.902
 Vibration    17          0.802              1.377              0.818
 Vibration    18          0.840              1.285              0.699
 Vibration    19          0.882              1.190              0.594
 Vibration    20          0.909              1.133              0.537
 Vibration    21          0.954              1.039              0.456

 Normal termination of Gaussian 09 at Sat Jul 24 01:55:20 2021.
