 Gaussian 09, Revision D.01,
 Gaussian 09:  ES64L-G09RevD.01 24-Apr-2013

 ----------------------------------------------------------------------
 # B3LYP/6-31G(d,p) EmpiricalDispersion=GD3BJ opt=calcfc freq=noraman n
 osymm integral(ultrafinegrid)
 ----------------------------------------------------------------------

 ------------------------------------------------------------
 Candidate Structure: Conf:719 OPT and FREQ calc in gas phase
 ------------------------------------------------------------
 Symbolic Z-matrix:
 Charge =  1 Multiplicity = 1

 SCF Done:  E(RB3LYP) =  -796.522572559     A.U. after   17 cycles
 SCF Done:  E(RB3LYP) =  -796.530779799     A.U. after   14 cycles
 SCF Done:  E(RB3LYP) =  -796.530796228     A.U. after   14 cycles
 SCF Done:  E(RB3LYP) =  -796.533312413     A.U. after   12 cycles
 SCF Done:  E(RB3LYP) =  -796.533646164     A.U. after   12 cycles
 SCF Done:  E(RB3LYP) =  -796.533694338     A.U. after   10 cycles
 SCF Done:  E(RB3LYP) =  -796.533700628     A.U. after    9 cycles
 SCF Done:  E(RB3LYP) =  -796.533701069     A.U. after    8 cycles
 SCF Done:  E(RB3LYP) =  -796.533701168     A.U. after    7 cycles
 SCF Done:  E(RB3LYP) =  -796.533701194     A.U. after    7 cycles
 Optimization completed.
    -- Stationary point found.
 Normal termination of Gaussian 09 at Sat Jul 24 01:08:55 2021.

 ----------------------------------------------------------------------
 #N Geom=AllCheck Guess=TCheck SCRF=Check GenChk RB3LYP/6-31G(d,p) Freq
 ----------------------------------------------------------------------

 Structure from the checkpoint file:  "conf-719.chk"
 ------------------------------------------------------------
 Candidate Structure: Conf:719 OPT and FREQ calc in gas phase
 ------------------------------------------------------------
 Charge =  1 Multiplicity = 1

                          Input orientation:
 ---------------------------------------------------------------------
 Center     Atomic      Atomic             Coordinates (Angstroms)
 Number     Number       Type             X           Y           Z
 ---------------------------------------------------------------------
      1          8           0       -0.928825    0.058294    1.286073
      2          6           0       -1.349369    0.210547    0.143218
      3          7           0       -0.573777    0.341697   -0.945960
      4          6           0        0.881144    0.363342   -0.852229
      5          6           0        1.363165    0.882139   -2.198037
      6          8           0        2.701571    0.971126   -2.275619
      7          8           0        0.623259    1.168843   -3.115291
      8          6           0        1.481346   -1.033761   -0.489528
      9          6           0        2.710407   -0.975051    0.350677
     10          6           0        2.893953   -1.260892    1.684657
     11          7           0        4.202695   -1.061621    2.057736
     12          6           0        4.815126   -0.653359    0.966152
     13          7           0        3.960912   -0.587196   -0.098811
     14          6           0       -2.871806    0.226032   -0.118188
     15          6           0       -3.538279    0.684278    1.169596
     16          7           0       -5.026092    0.350861    1.176070
     17          1           0       -0.953010    0.556452   -1.861936
     18          1           0        1.180930    1.067513   -0.068171
     19          1           0        2.915663    1.305163   -3.164801
     20          1           0        0.722108   -1.552058    0.097927
     21          1           0        1.631480   -1.615790   -1.406597
     22          1           0        2.148169   -1.603369    2.388839
     23          1           0        5.862036   -0.396910    0.884533
     24          1           0        4.166774   -0.247485   -1.025425
     25          1           0       -3.172391   -0.800922   -0.366043
     26          1           0       -3.131695    0.865186   -0.967811
     27          1           0       -3.464617    1.762413    1.319652
     28          1           0       -3.082657    0.176705    2.020772
     29          1           0       -5.175895   -0.659494    1.079437
     30          1           0       -5.469942    0.647484    2.052159
     31          1           0       -5.522168    0.809889    0.404661
 ---------------------------------------------------------------------

 SCF Done:  E(RB3LYP) =  -796.533701194     A.U. after    1 cycles

 Alpha  occ. eigenvalues --  -19.32007 -19.26355 -19.24928 -14.66485 -14.48979
 Alpha  occ. eigenvalues --  -14.45388 -14.37162 -10.44329 -10.42974 -10.42853
 Alpha  occ. eigenvalues --  -10.37118 -10.35661 -10.30103 -10.30093 -10.28771
 Alpha  occ. eigenvalues --  -10.26092  -1.23032  -1.20388  -1.17061  -1.14072
 Alpha  occ. eigenvalues --   -1.07524  -1.05617  -0.96288  -0.93280  -0.90186
 Alpha  occ. eigenvalues --   -0.84702  -0.82405  -0.78787  -0.78238  -0.76516
 Alpha  occ. eigenvalues --   -0.73895  -0.70573  -0.68905  -0.67792  -0.65418
 Alpha  occ. eigenvalues --   -0.64769  -0.63721  -0.62011  -0.60310  -0.59050
 Alpha  occ. eigenvalues --   -0.58835  -0.57270  -0.56701  -0.55122  -0.53801
 Alpha  occ. eigenvalues --   -0.52861  -0.52405  -0.50650  -0.49321  -0.48292
 Alpha  occ. eigenvalues --   -0.47481  -0.47267  -0.46647  -0.44048  -0.40179
 Alpha  occ. eigenvalues --   -0.38922  -0.38621  -0.34185  -0.32499  -0.29031
 Alpha virt. eigenvalues --   -0.16670  -0.11891  -0.10909  -0.09728  -0.09549
 Alpha virt. eigenvalues --   -0.06866  -0.04348  -0.03687  -0.03473  -0.02456
 Alpha virt. eigenvalues --   -0.00855   0.00237   0.01420   0.02544   0.03005

 Mulliken charges:
               1
     1  O   -0.507395
     2  C    0.625888
     3  N   -0.546361
     4  C    0.019677
     5  C    0.591585
     6  O   -0.484135
     7  O   -0.462989
     8  C   -0.259267
     9  C    0.275490
    10  C    0.000967
    11  N   -0.433102
    12  C    0.264790
    13  N   -0.528815
    14  C   -0.310113
    15  C   -0.129068
    16  N   -0.546839
    17  H    0.290596
    18  H    0.180167
    19  H    0.349362
    20  H    0.148402
    21  H    0.126957
    22  H    0.094642
    23  H    0.125668
    24  H    0.269394
    25  H    0.160889
    26  H    0.150344
    27  H    0.197950
    28  H    0.225726
    29  H    0.367681
    30  H    0.374488
    31  H    0.367422
 Sum of Mulliken charges =   1.00000

 Dipole moment (field-independent basis, Debye):
    X=            -19.4233    Y=              2.9465    Z=             -1.5498  Tot=             19.7066
 Quadrupole moment (field-independent basis, Debye-Ang):
   XX=             29.3667   YY=            -87.7578   ZZ=            -87.3861
   XY=             -0.2813   XZ=            -44.7998   YZ=              3.2076

  Exact polarizability: 163.797  -0.733  80.039   0.363 -14.723 127.525
 Approx polarizability: 206.887   5.700 121.183  10.635 -22.925 213.174

                      1                      2                      3
                      A                      A                      A
 Frequencies --     22.5628                28.5697                36.4830
 Red. masses --      4.4326                 3.0360                 4.3334
 Frc consts  --      0.0013                 0.0015                 0.0034
 IR Inten    --      7.4643                 4.5764                10.8425

                      4                      5                      6
                      A                      A                      A
 Frequencies --     38.9053                62.5042                80.9580
 Red. masses --      2.5019                 6.7735                 7.8657
 Frc consts  --      0.0022                 0.0156                 0.0304
 IR Inten    --     10.0123                 2.2236                 8.0099

                      7                      8                      9
                      A                      A                      A
 Frequencies --     93.8116               112.8653               129.2741
 Red. masses --      3.6839                 4.9630                 4.8246
 Frc consts  --      0.0191                 0.0372                 0.0475
 IR Inten    --      1.6335                 8.0952                 4.9455

                     10                     11                     12
                      A                      A                      A
 Frequencies --    190.1711               218.3735               240.8309
 Red. masses --      4.9906                 1.9769                 1.6065
 Frc consts  --      0.1063                 0.0555                 0.0549
 IR Inten    --      2.5863                12.0740                 3.3130

                     13                     14                     15
                      A                      A                      A
 Frequencies --    272.6559               309.4613               331.3821
 Red. masses --      5.1667                 2.8611                 3.3921
 Frc consts  --      0.2263                 0.1614                 0.2195
 IR Inten    --     18.7703                 3.2796                 2.9332

                     16                     17                     18
                      A                      A                      A
 Frequencies --    349.9608               377.7881               386.2662
 Red. masses --      6.4467                 3.8985                 3.8352
 Frc consts  --      0.4652                 0.3278                 0.3371
 IR Inten    --     11.0781                 1.5314                20.3033

                     19                     20                     21
                      A                      A                      A
 Frequencies --    528.5220               539.8001               558.1770
 Red. masses --      2.1039                 1.5254                 2.4638
 Frc consts  --      0.3463                 0.2619                 0.4523
 IR Inten    --     50.1070                95.5781                13.2159

                     22                     23                     24
                      A                      A                      A
 Frequencies --    597.3960               639.0707               648.3947
 Red. masses --      1.8987                 2.5113                 1.8160
 Frc consts  --      0.3992                 0.6043                 0.4498
 IR Inten    --     33.8540                51.9387                14.1592

                     25                     26                     27
                      A                      A                      A
 Frequencies --    668.2281               681.7833               713.2338
 Red. masses --      2.2325                 2.6629                 3.7632
 Frc consts  --      0.5873                 0.7293                 1.1279
 IR Inten    --     82.8221                 0.6533                 4.5041

                     28                     29                     30
                      A                      A                      A
 Frequencies --    735.5050               772.8243               799.6129
 Red. masses --      3.0197                 3.0624                 1.4414
 Frc consts  --      0.9625                 1.0776                 0.5430
 IR Inten    --     35.2832                 7.8383                12.3039

                     31                     32                     33
                      A                      A                      A
 Frequencies --    815.1138               825.3287               851.2686
 Red. masses --      1.3817                 2.5720                 1.4037
 Frc consts  --      0.5409                 1.0322                 0.5993
 IR Inten    --     15.3329                14.3310                15.5836

                     34                     35                     36
                      A                      A                      A
 Frequencies --    887.9608               918.1380               930.6134
 Red. masses --      2.6386                 1.2919                 3.5308
 Frc consts  --      1.2258                 0.6417                 1.8016
 IR Inten    --     34.1711                 4.7664                24.3472

                     37                     38                     39
                      A                      A                      A
 Frequencies --    938.8308               985.4717              1009.0377
 Red. masses --      5.8060                 2.0783                 4.1124
 Frc consts  --      3.0151                 1.1892                 2.4669
 IR Inten    --     12.2407                16.5444                16.0831

                     40                     41                     42
                      A                      A                      A
 Frequencies --   1017.3078              1033.8022              1087.9200
 Red. masses --      3.3015                 3.4806                 1.7685
 Frc consts  --      2.0131                 2.1917                 1.2332
 IR Inten    --     28.0014                12.5707                29.4246

                     43                     44                     45
                      A                      A                      A
 Frequencies --   1113.6575              1120.6170              1149.8160
 Red. masses --      2.2862                 1.5654                 2.1920
 Frc consts  --      1.6706                 1.1582                 1.7074
 IR Inten    --     45.8232                36.9364                 3.2995

                     46                     47                     48
                      A                      A                      A
 Frequencies --   1159.0798              1190.6960              1204.3391
 Red. masses --      2.0637                 1.3243                 2.4138
 Frc consts  --      1.6335                 1.1062                 2.0628
 IR Inten    --     20.0035                 5.3468               173.4686

                     49                     50                     51
                      A                      A                      A
 Frequencies --   1242.2355              1275.5694              1284.6725
 Red. masses --      1.5194                 1.8773                 1.6399
 Frc consts  --      1.3815                 1.7996                 1.5946
 IR Inten    --      8.0195                 7.5340                 5.0918

                     52                     53                     54
                      A                      A                      A
 Frequencies --   1289.2769              1307.6311              1318.9958
 Red. masses --      1.3203                 1.3301                 1.2282
 Frc consts  --      1.2931                 1.3400                 1.2590
 IR Inten    --      1.7100                 6.9503                 7.4036

                     55                     56                     57
                      A                      A                      A
 Frequencies --   1329.5970              1358.2914              1368.3930
 Red. masses --      1.2465                 1.4171                 1.5411
 Frc consts  --      1.2983                 1.5404                 1.7002
 IR Inten    --     10.4368                 9.8977                35.6528

                     58                     59                     60
                      A                      A                      A
 Frequencies --   1402.8288              1406.3070              1434.2035
 Red. masses --      3.3627                 1.3511                 2.7218
 Frc consts  --      3.8989                 1.5743                 3.2985
 IR Inten    --     48.2553                17.8009               100.4184

                     61                     62                     63
                      A                      A                      A
 Frequencies --   1445.4591              1484.1488              1489.6704
 Red. masses --      2.8944                 1.1528                 1.1171
 Frc consts  --      3.5631                 1.4961                 1.4606
 IR Inten    --     24.4087                21.1178                 0.8734

                     64                     65                     66
                      A                      A                      A
 Frequencies --   1513.1266              1513.6842              1518.3654
 Red. masses --      3.4534                 1.0750                 1.1750
 Frc consts  --      4.6585                 1.4513                 1.5960
 IR Inten    --     28.6221                14.6317               192.9487

                     67                     68                     69
                      A                      A                      A
 Frequencies --   1551.9017              1621.0358              1669.7824
 Red. masses --      2.5145                 4.5246                 1.0430
 Frc consts  --      3.5680                 7.0051                 1.7133
 IR Inten    --    309.1612                 3.8337                54.0794

                     70                     71                     72
                      A                      A                      A
 Frequencies --   1673.5251              1778.3436              1833.9361
 Red. masses --      1.0441                10.1737                 9.7187
 Frc consts  --      1.7228                18.9567                19.2588
 IR Inten    --     43.5819               237.9505               261.2683

                     73                     74                     75
                      A                      A                      A
 Frequencies --   3041.1744              3049.9874              3076.0768
 Red. masses --      1.0641                 1.0701                 1.0834
 Frc consts  --      5.7986                 5.8648                 6.0402
 IR Inten    --      4.0617                20.9960                 6.7591

                     76                     77                     78
                      A                      A                      A
 Frequencies --   3105.0397              3117.8377              3137.1514
 Red. masses --      1.1005                 1.0599                 1.0948
 Frc consts  --      6.2511                 6.0704                 6.3485
 IR Inten    --      5.6500                 4.5091                 3.4831

                     79                     80                     81
                      A                      A                      A
 Frequencies --   3183.4284              3252.0116              3264.4754
 Red. masses --      1.1120                 1.0964                 1.0982
 Frc consts  --      6.6394                 6.8316                 6.8954
 IR Inten    --      4.1252                 5.8885                 0.6014

                     82                     83                     84
                      A                      A                      A
 Frequencies --   3401.3343              3493.8798              3495.9415
 Red. masses --      1.0303                 1.0936                 1.0938
 Frc consts  --      7.0225                 7.8651                 7.8765
 IR Inten    --     52.7065                95.6867                93.3346

                     85                     86                     87
                      A                      A                      A
 Frequencies --   3572.1421              3675.6140              3738.8450
 Red. masses --      1.0785                 1.0810                 1.0644
 Frc consts  --      8.1080                 8.6043                 8.7663
 IR Inten    --    116.6190                78.4515               110.4363

 - Thermochemistry -
 -------------------
 Temperature   298.150 Kelvin.  Pressure   1.00000 Atm.
 Atom     1 has atomic number  8 and mass  15.99491

 Molecular mass:   227.11442 amu.
 Principal axes and moments of inertia in atomic units:
                           1         2         3
     Eigenvalues --  2244.521316962.893118925.26686
           X            0.98995   0.00211   0.14142
           Y           -0.13099  -0.36337   0.92239
           Z           -0.05333   0.93164   0.35944
 This molecule is an asymmetric top.
 Rotational symmetry number  1.
 Warning -- assumption of classical behavior for rotation
           may cause significant error
 Rotational temperatures (Kelvin)      0.03859     0.01244     0.00970
 Rotational constants (GHZ):           0.80407     0.25919     0.20221
 Zero-point vibrational energy     682590.9 (Joules/Mol)
                                  163.14315 (Kcal/Mol)
 Warning -- explicit consideration of  22 degrees of freedom as
           vibrations may cause significant error
 Vibrational temperatures:     32.46    41.11    52.49    55.98    89.93
          (Kelvin)            116.48   134.97   162.39   186.00   273.61
                              314.19   346.50   392.29   445.25   476.78
                              503.51   543.55   555.75   760.42   776.65
                              803.09   859.52   919.48   932.89   961.43
                              980.93  1026.18  1058.23  1111.92  1150.46
                             1172.77  1187.46  1224.78  1277.58  1320.99
                             1338.94  1350.77  1417.87  1451.78  1463.68
                             1487.41  1565.27  1602.30  1612.32  1654.33
                             1667.66  1713.14  1732.77  1787.30  1835.26
                             1848.35  1854.98  1881.39  1897.74  1912.99
                             1954.28  1968.81  2018.36  2023.36  2063.50
                             2079.69  2135.36  2143.30  2177.05  2177.85
                             2184.59  2232.84  2332.31  2402.44  2407.83
                             2558.64  2638.62  4375.57  4388.25  4425.78
                             4467.45  4485.87  4513.66  4580.24  4678.91
                             4696.85  4893.76  5026.91  5029.87  5139.51
                             5288.38  5379.36

 Zero-point correction=                           0.259985 (Hartree/Particle)
 Thermal correction to Energy=                    0.276405
 Thermal correction to Enthalpy=                  0.277350
 Thermal correction to Gibbs Free Energy=         0.212388
 Sum of electronic and zero-point Energies=           -796.273716
 Sum of electronic and thermal Energies=              -796.257296
 Sum of electronic and thermal Enthalpies=            -796.256352
 Sum of electronic and thermal Free Energies=         -796.321313

                     E (Thermal)             CV                S
                      KCal/Mol        Cal/Mol-Kelvin    Cal/Mol-Kelvin
 Total                  173.447             58.923            136.723
 Electronic               0.000              0.000              0.000
 Translational            0.889              2.981             42.163
 Rotational               0.889              2.981             33.300
 Vibrational            171.670             52.961             61.260
 Vibration     1          0.593              1.985              6.395
 Vibration     2          0.593              1.984              5.926
 Vibration     3          0.594              1.982              5.441
 Vibration     4          0.594              1.981              5.314
 Vibration     5          0.597              1.972              4.377
 Vibration     6          0.600              1.962              3.868
 Vibration     7          0.603              1.954              3.579
 Vibration     8          0.607              1.939              3.219
 Vibration     9          0.612              1.924              2.957
 Vibration    10          0.633              1.853              2.226
 Vibration    11          0.646              1.813              1.973
 Vibration    12          0.658              1.778              1.797
 Vibration    13          0.676              1.724              1.579
 Vibration    14          0.699              1.656              1.365
 Vibration    15          0.714              1.613              1.253
 Vibration    16          0.727              1.575              1.166
 Vibration    17          0.748              1.517              1.048
 Vibration    18          0.755              1.500              1.015
 Vibration    19          0.883              1.187              0.591
 Vibration    20          0.895              1.162              0.566
 Vibration    21          0.914              1.122              0.527
 Vibration    22          0.955              1.037              0.454

 Normal termination of Gaussian 09 at Sat Jul 24 01:28:23 2021.
