 Gaussian 09, Revision D.01,
 Gaussian 09:  ES64L-G09RevD.01 24-Apr-2013

 ----------------------------------------------------------------------
 # B3LYP/6-311++G(2df,2pd) guess=read geom=checkpoint opt=readfc freq=n
 oraman nosymm integral(ultrafinegrid)
 ----------------------------------------------------------------------

 ------------------------------------------------------------
 Candidate Structure: Conf:318 OPT and FREQ calc in gas phase
 ------------------------------------------------------------
 Structure from the checkpoint file:  "conf-318.chk"
 Charge =  1 Multiplicity = 1

 SCF Done:  E(RB3LYP) =  -796.731081723     A.U. after   12 cycles
 SCF Done:  E(RB3LYP) =  -796.731948584     A.U. after   12 cycles
 SCF Done:  E(RB3LYP) =  -796.731993119     A.U. after   12 cycles
 SCF Done:  E(RB3LYP) =  -796.732027068     A.U. after   12 cycles
 SCF Done:  E(RB3LYP) =  -796.732031228     A.U. after   11 cycles
 SCF Done:  E(RB3LYP) =  -796.732032887     A.U. after   11 cycles
 SCF Done:  E(RB3LYP) =  -796.732035550     A.U. after   11 cycles
 SCF Done:  E(RB3LYP) =  -796.732039152     A.U. after   12 cycles
 SCF Done:  E(RB3LYP) =  -796.732039895     A.U. after   10 cycles
 SCF Done:  E(RB3LYP) =  -796.732037966     A.U. after   11 cycles
 SCF Done:  E(RB3LYP) =  -796.732040485     A.U. after   11 cycles
 SCF Done:  E(RB3LYP) =  -796.732040646     A.U. after   11 cycles
 Optimization completed on the basis of negligible forces.
    -- Stationary point found.
 Normal termination of Gaussian 09 at Thu Jul 29 09:04:14 2021.

 ----------------------------------------------------------------------
 #N Geom=AllCheck Guess=TCheck SCRF=Check GenChk RB3LYP/6-311++G(2df,2p
 d) Freq
 ----------------------------------------------------------------------

 Structure from the checkpoint file:  "conf-318.chk"
 ------------------------------------------------------------
 Candidate Structure: Conf:318 OPT and FREQ calc in gas phase
 ------------------------------------------------------------
 Charge =  1 Multiplicity = 1

                          Input orientation:
 ---------------------------------------------------------------------
 Center     Atomic      Atomic             Coordinates (Angstroms)
 Number     Number       Type             X           Y           Z
 ---------------------------------------------------------------------
      1          8           0        1.191112    0.456579    1.639524
      2          6           0        1.132660   -0.274492    0.662250
      3          7           0        0.105983   -1.079863    0.361294
      4          6           0       -1.112576   -1.181764    1.145468
      5          6           0       -1.864598   -2.403692    0.590789
      6          8           0       -2.977097   -2.769406    1.234555
      7          8           0       -1.469868   -3.020259   -0.360519
      8          6           0       -1.949508    0.117311    1.170849
      9          6           0       -2.296354    0.690063   -0.166360
     10          6           0       -2.316390    0.198112   -1.447090
     11          7           0       -2.718989    1.165259   -2.337067
     12          6           0       -2.952003    2.231482   -1.617107
     13          7           0       -2.706624    2.002998   -0.295101
     14          6           0        2.292635   -0.305654   -0.348719
     15          6           0        3.414783    0.564821    0.186224
     16          7           0        4.562929    0.632634   -0.814301
     17          1           0        0.129427   -1.691812   -0.444819
     18          1           0       -0.846735   -1.407065    2.182568
     19          1           0       -3.181052   -2.196813    1.983862
     20          1           0       -2.855770   -0.074129    1.757059
     21          1           0       -1.376212    0.845193    1.747116
     22          1           0       -2.079543   -0.796688   -1.783336
     23          1           0       -3.296062    3.183896   -1.984657
     24          1           0       -2.830740    2.664450    0.453093
     25          1           0        1.928261    0.069670   -1.309097
     26          1           0        2.626042   -1.334997   -0.501634
     27          1           0        3.831809    0.179168    1.112246
     28          1           0        3.088134    1.585878    0.358802
     29          1           0        4.950306   -0.293983   -1.003328
     30          1           0        5.322209    1.220730   -0.465224
     31          1           0        4.253784    1.022617   -1.707139
 ---------------------------------------------------------------------

 SCF Done:  E(RB3LYP) =  -796.732040646     A.U. after    2 cycles

 Alpha  occ. eigenvalues --  -19.28681 -19.22849 -19.22789 -14.63857 -14.47065
 Alpha  occ. eigenvalues --  -14.45917 -14.37823 -10.42281 -10.41692 -10.41548
 Alpha  occ. eigenvalues --  -10.35717 -10.35571 -10.30982 -10.30672 -10.30127
 Alpha  occ. eigenvalues --  -10.27095  -1.22690  -1.20528  -1.18224  -1.14657
 Alpha  occ. eigenvalues --   -1.10864  -1.06709  -0.96806  -0.96385  -0.91856
 Alpha  occ. eigenvalues --   -0.85967  -0.83417  -0.79203  -0.79050  -0.78007
 Alpha  occ. eigenvalues --   -0.74725  -0.71647  -0.70662  -0.69315  -0.68448
 Alpha  occ. eigenvalues --   -0.67874  -0.64923  -0.64123  -0.61290  -0.60591
 Alpha  occ. eigenvalues --   -0.58822  -0.57877  -0.56884  -0.55827  -0.55439
 Alpha  occ. eigenvalues --   -0.54740  -0.53904  -0.52459  -0.51502  -0.50548
 Alpha  occ. eigenvalues --   -0.50069  -0.49703  -0.49339  -0.44120  -0.40607
 Alpha  occ. eigenvalues --   -0.40058  -0.39906  -0.37581  -0.35886  -0.32275
 Alpha virt. eigenvalues --   -0.20038  -0.14446  -0.14208  -0.13199  -0.12369
 Alpha virt. eigenvalues --   -0.11539  -0.10839  -0.10354  -0.09317  -0.09021
 Alpha virt. eigenvalues --   -0.08444  -0.07529  -0.07110  -0.06617  -0.06037

 Mulliken charges:
               1
     1  O   -0.404024
     2  C   -0.268869
     3  N    0.178430
     4  C    0.314931
     5  C    0.065874
     6  O   -0.118385
     7  O   -0.305187
     8  C   -0.071434
     9  C    0.341893
    10  C   -0.594490
    11  N   -0.266946
    12  C    0.120064
    13  N    0.006920
    14  C    0.254854
    15  C   -0.371760
    16  N    0.299419
    17  H    0.137728
    18  H    0.100967
    19  H    0.209425
    20  H    0.071319
    21  H    0.105128
    22  H    0.064106
    23  H    0.121439
    24  H    0.128163
    25  H    0.064907
    26  H    0.055302
    27  H    0.131043
    28  H    0.139257
    29  H    0.163607
    30  H    0.165245
    31  H    0.161073
 Sum of Mulliken charges =   1.00000

 Dipole moment (field-independent basis, Debye):
    X=             16.3698    Y=              4.1732    Z=              1.0120  Tot=             16.9236
 Quadrupole moment (field-independent basis, Debye-Ang):
   XX=              3.8222   YY=            -86.7737   ZZ=            -92.4666
   XY=              0.5185   XZ=            -34.4763   YZ=             -6.7125

  Exact polarizability: 146.688   1.630 138.310  -2.954  -3.054 136.873
 Approx polarizability: 184.051  -2.104 210.373  -5.639  16.963 228.311

                      1                      2                      3
                      A                      A                      A
 Frequencies --     12.0454                18.5041                35.2798
 Red. masses --      2.8352                 2.4295                 4.0009
 Frc consts  --      0.0002                 0.0005                 0.0029
 IR Inten    --      3.2344                 2.7487                 8.6391

                      4                      5                      6
                      A                      A                      A
 Frequencies --     52.3535                58.4897                86.7650
 Red. masses --      5.6406                 4.9114                 5.3470
 Frc consts  --      0.0091                 0.0099                 0.0237
 IR Inten    --     13.6969                 7.5521                19.1761

                      7                      8                      9
                      A                      A                      A
 Frequencies --     91.1219                99.2260               147.5184
 Red. masses --      9.1880                 3.5548                 5.2180
 Frc consts  --      0.0449                 0.0206                 0.0669
 IR Inten    --     10.6372                 5.4882                 1.7395

                     10                     11                     12
                      A                      A                      A
 Frequencies --    199.7415               214.5052               225.9770
 Red. masses --      5.6529                 4.6154                 1.0758
 Frc consts  --      0.1329                 0.1251                 0.0324
 IR Inten    --     15.0959                18.2190                 0.3002

                     13                     14                     15
                      A                      A                      A
 Frequencies --    265.7294               269.0260               332.2945
 Red. masses --      3.9619                 4.2493                 4.9114
 Frc consts  --      0.1648                 0.1812                 0.3195
 IR Inten    --      7.7593                 5.9770                 8.2853

                     16                     17                     18
                      A                      A                      A
 Frequencies --    336.4272               371.2383               455.2671
 Red. masses --      3.4174                 3.6332                 1.5892
 Frc consts  --      0.2279                 0.2950                 0.1941
 IR Inten    --      2.9477                24.7832                86.3497

                     19                     20                     21
                      A                      A                      A
 Frequencies --    508.4394               534.1095               549.5806
 Red. masses --      2.0549                 1.4684                 2.9662
 Frc consts  --      0.3130                 0.2468                 0.5279
 IR Inten    --     35.1413                67.3770                 8.2588

                     22                     23                     24
                      A                      A                      A
 Frequencies --    576.9562               616.1977               647.6758
 Red. masses --      2.5644                 6.0939                 1.3455
 Frc consts  --      0.5030                 1.3633                 0.3326
 IR Inten    --     44.6864                 8.1433                34.3143

                     25                     26                     27
                      A                      A                      A
 Frequencies --    653.1441               676.2333               681.6926
 Red. masses --      2.4111                 3.5799                 3.4036
 Frc consts  --      0.6060                 0.9645                 0.9319
 IR Inten    --     21.4553                 4.1721                 5.7689

                     28                     29                     30
                      A                      A                      A
 Frequencies --    716.8592               782.1733               794.7245
 Red. masses --      4.6824                 3.2761                 1.4130
 Frc consts  --      1.4177                 1.1809                 0.5258
 IR Inten    --      5.2117                 5.6506                 7.4242

                     31                     32                     33
                      A                      A                      A
 Frequencies --    839.7623               849.6890               874.8512
 Red. masses --      1.4206                 2.5435                 1.7656
 Frc consts  --      0.5902                 1.0819                 0.7962
 IR Inten    --     15.8698                13.7196                31.9679

                     34                     35                     36
                      A                      A                      A
 Frequencies --    879.2104               918.9502               923.3234
 Red. masses --      2.6329                 1.2751                 4.4343
 Frc consts  --      1.1991                 0.6344                 2.2273
 IR Inten    --     17.6457                 3.1126                 4.0712

                     37                     38                     39
                      A                      A                      A
 Frequencies --    937.9417               956.1259               983.2330
 Red. masses --      3.3632                 4.1106                 2.0356
 Frc consts  --      1.7432                 2.2140                 1.1594
 IR Inten    --     19.2618                 9.8121                27.1323

                     40                     41                     42
                      A                      A                      A
 Frequencies --   1021.6105              1038.8113              1104.3672
 Red. masses --      3.8528                 2.4010                 1.6402
 Frc consts  --      2.3692                 1.5266                 1.1786
 IR Inten    --      6.6107                15.2282                 4.1937

                     43                     44                     45
                      A                      A                      A
 Frequencies --   1110.0397              1111.2539              1148.9695
 Red. masses --      1.9959                 1.9156                 2.3303
 Frc consts  --      1.4490                 1.3937                 1.8125
 IR Inten    --     19.6697                14.9442                 6.2274

                     46                     47                     48
                      A                      A                      A
 Frequencies --   1151.1433              1187.3917              1208.8178
 Red. masses --      2.6054                 1.8122                 1.8626
 Frc consts  --      2.0342                 1.5054                 1.6036
 IR Inten    --     14.5888                14.1304                11.8880

                     49                     50                     51
                      A                      A                      A
 Frequencies --   1236.1347              1255.7167              1271.8694
 Red. masses --      1.3529                 1.3750                 1.8427
 Frc consts  --      1.2180                 1.2775                 1.7562
 IR Inten    --      6.9620                60.2433                54.9215

                     52                     53                     54
                      A                      A                      A
 Frequencies --   1290.6098              1292.6251              1306.9228
 Red. masses --      1.3283                 1.5027                 1.6393
 Frc consts  --      1.3036                 1.4794                 1.6497
 IR Inten    --      3.8696                53.8413               207.1193

                     55                     56                     57
                      A                      A                      A
 Frequencies --   1333.2631              1341.5726              1362.1840
 Red. masses --      1.4097                 1.1642                 2.5718
 Frc consts  --      1.4765                 1.2345                 2.8116
 IR Inten    --     39.5132                17.1010                50.6476

                     58                     59                     60
                      A                      A                      A
 Frequencies --   1394.1902              1407.4799              1420.8472
 Red. masses --      1.8487                 1.3438                 2.0018
 Frc consts  --      2.1172                 1.5685                 2.3810
 IR Inten    --    125.0249                30.9756                15.2448

                     61                     62                     63
                      A                      A                      A
 Frequencies --   1426.4503              1484.4265              1487.4876
 Red. masses --      2.3854                 1.1256                 1.4440
 Frc consts  --      2.8598                 1.4613                 1.8825
 IR Inten    --     27.2649                 1.7925                29.8602

                     64                     65                     66
                      A                      A                      A
 Frequencies --   1499.3312              1503.4325              1513.4050
 Red. masses --      1.0778                 2.1092                 1.1778
 Frc consts  --      1.4275                 2.8089                 1.5893
 IR Inten    --     11.5644                 4.0634               176.6676

                     67                     68                     69
                      A                      A                      A
 Frequencies --   1544.4610              1603.6855              1665.7402
 Red. masses --      2.3050                 3.9881                 1.0423
 Frc consts  --      3.2395                 6.0430                 1.7039
 IR Inten    --    321.8376                10.8783                46.5435

                     70                     71                     72
                      A                      A                      A
 Frequencies --   1669.4057              1736.7979              1827.8144
 Red. masses --      1.0453                 9.8134                 9.8181
 Frc consts  --      1.7165                17.4408                19.3261
 IR Inten    --     38.9719               304.5945               176.7571

                     73                     74                     75
                      A                      A                      A
 Frequencies --   2996.0977              3029.4566              3032.0783
 Red. masses --      1.0727                 1.0596                 1.0830
 Frc consts  --      5.6733                 5.7295                 5.8662
 IR Inten    --     37.6780                 2.8875                15.8684

                     76                     77                     78
                      A                      A                      A
 Frequencies --   3067.5725              3071.4609              3111.2999
 Red. masses --      1.0877                 1.1043                 1.0595
 Frc consts  --      6.0306                 6.1383                 6.0427
 IR Inten    --      2.2111                 2.1334                 1.1440

                     79                     80                     81
                      A                      A                      A
 Frequencies --   3167.3612              3247.7098              3251.1114
 Red. masses --      1.1119                 1.0950                 1.0997
 Frc consts  --      6.5719                 6.8048                 6.8482
 IR Inten    --      0.1212                 0.5821                 3.1806

                     82                     83                     84
                      A                      A                      A
 Frequencies --   3405.1014              3482.0421              3484.9431
 Red. masses --      1.0297                 1.0930                 1.0931
 Frc consts  --      7.0346                 7.8076                 7.8215
 IR Inten    --     50.1211                86.0507                91.4230

                     85                     86                     87
                      A                      A                      A
 Frequencies --   3541.9965              3640.3391              3796.2646
 Red. masses --      1.0779                 1.0813                 1.0662
 Frc consts  --      7.9674                 8.4423                 9.0528
 IR Inten    --    129.0994                59.4717                59.9607

 - Thermochemistry -
 -------------------
 Temperature   298.150 Kelvin.  Pressure   1.00000 Atm.
 Atom     1 has atomic number  8 and mass  15.99491

 Molecular mass:   227.11442 amu.
 Principal axes and moments of inertia in atomic units:
                           1         2         3
     Eigenvalues --  2966.473535505.528007079.08842
           X            0.99483  -0.06171  -0.08063
           Y            0.09160   0.88805   0.45052
           Z            0.04380  -0.45558   0.88912
 This molecule is an asymmetric top.
 Rotational symmetry number  1.
 Warning -- assumption of classical behavior for rotation
           may cause significant error
 Rotational temperatures (Kelvin)      0.02920     0.01573     0.01224
 Rotational constants (GHZ):           0.60838     0.32781     0.25494
 Zero-point vibrational energy     678614.4 (Joules/Mol)
                                  162.19275 (Kcal/Mol)
 Warning -- explicit consideration of  23 degrees of freedom as
           vibrations may cause significant error
 Vibrational temperatures:     17.33    26.62    50.76    75.32    84.15
          (Kelvin)            124.84   131.10   142.76   212.25   287.38
                              308.62   325.13   382.32   387.07   478.10
                              484.04   534.13   655.03   731.53   768.46
                              790.72   830.11   886.57   931.86   939.73
                              972.95   980.80  1031.40  1125.37  1143.43
                             1208.23  1222.51  1258.71  1264.99  1322.16
                             1328.45  1349.49  1375.65  1414.65  1469.87
                             1494.62  1588.94  1597.10  1598.84  1653.11
                             1656.24  1708.39  1739.22  1778.52  1806.69
                             1829.93  1856.90  1859.80  1880.37  1918.27
                             1930.22  1959.88  2005.93  2025.05  2044.28
                             2052.34  2135.76  2140.16  2157.20  2163.10
                             2177.45  2222.13  2307.34  2396.63  2401.90
                             2498.86  2629.81  4310.71  4358.71  4362.48
                             4413.55  4419.14  4476.46  4557.12  4672.72
                             4677.62  4899.18  5009.88  5014.05  5096.14
                             5237.63  5461.97

 Zero-point correction=                           0.258471 (Hartree/Particle)
 Thermal correction to Energy=                    0.275010
 Thermal correction to Enthalpy=                  0.275954
 Thermal correction to Gibbs Free Energy=         0.210107
 Sum of electronic and zero-point Energies=           -796.473570
 Sum of electronic and thermal Energies=              -796.457031
 Sum of electronic and thermal Enthalpies=            -796.456087
 Sum of electronic and thermal Free Energies=         -796.521934

                     E (Thermal)             CV                S
                      KCal/Mol        Cal/Mol-Kelvin    Cal/Mol-Kelvin
 Total                  172.571             59.243            138.587
 Electronic               0.000              0.000              0.000
 Translational            0.889              2.981             42.163
 Rotational               0.889              2.981             33.113
 Vibrational            170.794             53.281             63.310
 Vibration     1          0.593              1.987              7.641
 Vibration     2          0.593              1.986              6.789
 Vibration     3          0.594              1.982              5.508
 Vibration     4          0.596              1.977              4.726
 Vibration     5          0.596              1.974              4.508
 Vibration     6          0.601              1.958              3.732
 Vibration     7          0.602              1.955              3.636
 Vibration     8          0.604              1.950              3.469
 Vibration     9          0.617              1.905              2.704
 Vibration    10          0.638              1.840              2.135
 Vibration    11          0.644              1.819              2.005
 Vibration    12          0.650              1.801              1.911
 Vibration    13          0.672              1.736              1.624
 Vibration    14          0.673              1.730              1.602
 Vibration    15          0.714              1.611              1.249
 Vibration    16          0.717              1.603              1.229
 Vibration    17          0.743              1.531              1.075
 Vibration    18          0.814              1.349              0.780
 Vibration    19          0.864              1.231              0.637
 Vibration    20          0.889              1.175              0.578
 Vibration    21          0.905              1.141              0.545
 Vibration    22          0.933              1.081              0.491
 Vibration    23          0.976              0.998              0.423

 Optimization completed on the basis of negligible forces.
    -- Stationary point found.
 Normal termination of Gaussian 09 at Thu Jul 29 15:58:45 2021.
