 Gaussian 09, Revision D.01,
 Gaussian 09:  ES64L-G09RevD.01 24-Apr-2013

 ----------------------------------------------------------------------
 # B3LYP/6-311++G(2df,2pd) guess=read geom=checkpoint opt=readfc freq=n
 oraman nosymm integral(ultrafinegrid)
 ----------------------------------------------------------------------

 ------------------------------------------------------------
 Candidate Structure: Conf:214 OPT and FREQ calc in gas phase
 ------------------------------------------------------------
 Structure from the checkpoint file:  "conf-214.chk"
 Charge =  1 Multiplicity = 1

 SCF Done:  E(RB3LYP) =  -796.731697212     A.U. after   13 cycles
 SCF Done:  E(RB3LYP) =  -796.732493470     A.U. after   11 cycles
 SCF Done:  E(RB3LYP) =  -796.732541940     A.U. after   11 cycles
 SCF Done:  E(RB3LYP) =  -796.732552598     A.U. after   11 cycles
 SCF Done:  E(RB3LYP) =  -796.732577877     A.U. after   12 cycles
 SCF Done:  E(RB3LYP) =  -796.732577871     A.U. after   11 cycles
 SCF Done:  E(RB3LYP) =  -796.732547994     A.U. after   13 cycles
 SCF Done:  E(RB3LYP) =  -796.732545909     A.U. after    9 cycles
 SCF Done:  E(RB3LYP) =  -796.732547203     A.U. after    9 cycles
 SCF Done:  E(RB3LYP) =  -796.732542594     A.U. after   10 cycles
 SCF Done:  E(RB3LYP) =  -796.732722657     A.U. after   10 cycles
 SCF Done:  E(RB3LYP) =  -796.732736018     A.U. after   11 cycles
 SCF Done:  E(RB3LYP) =  -796.732741074     A.U. after   10 cycles
 SCF Done:  E(RB3LYP) =  -796.732745522     A.U. after   10 cycles
 SCF Done:  E(RB3LYP) =  -796.732747635     A.U. after   10 cycles
 SCF Done:  E(RB3LYP) =  -796.732748133     A.U. after   10 cycles
 SCF Done:  E(RB3LYP) =  -796.732748129     A.U. after    8 cycles
 SCF Done:  E(RB3LYP) =  -796.732748145     A.U. after    8 cycles
 SCF Done:  E(RB3LYP) =  -796.732748143     A.U. after    8 cycles
 Optimization completed on the basis of negligible forces.
    -- Stationary point found.
 Normal termination of Gaussian 09 at Thu Jul 29 17:07:54 2021.

 ----------------------------------------------------------------------
 #N Geom=AllCheck Guess=TCheck SCRF=Check GenChk RB3LYP/6-311++G(2df,2p
 d) Freq
 ----------------------------------------------------------------------

 Structure from the checkpoint file:  "conf-214.chk"
 ------------------------------------------------------------
 Candidate Structure: Conf:214 OPT and FREQ calc in gas phase
 ------------------------------------------------------------
 Charge =  1 Multiplicity = 1

                          Input orientation:
 ---------------------------------------------------------------------
 Center     Atomic      Atomic             Coordinates (Angstroms)
 Number     Number       Type             X           Y           Z
 ---------------------------------------------------------------------
      1          8           0       -1.242866   -1.148946   -0.932946
      2          6           0       -1.123624   -0.612611    0.154811
      3          7           0       -0.027342   -0.679297    0.933921
      4          6           0        1.122235   -1.505325    0.603945
      5          6           0        1.327690   -2.502227    1.754415
      6          8           0        2.029223   -3.611549    1.478923
      7          8           0        0.923125   -2.282690    2.861354
      8          6           0        2.412484   -0.670653    0.427679
      9          6           0        2.324395    0.362506   -0.649234
     10          6           0        1.537522    0.502539   -1.763115
     11          7           0        1.856911    1.652955   -2.446221
     12          6           0        2.831312    2.204723   -1.769864
     13          7           0        3.151436    1.468147   -0.667438
     14          6           0       -2.285263    0.229188    0.713908
     15          6           0       -2.986600    0.878830   -0.466750
     16          7           0       -4.321525    1.485275   -0.055195
     17          1           0       -0.075588   -0.369254    1.893816
     18          1           0        0.882919   -2.028087   -0.321727
     19          1           0        2.240687   -3.693916    0.541051
     20          1           0        2.640434   -0.192556    1.384978
     21          1           0        3.238893   -1.361992    0.234960
     22          1           0        0.760535   -0.155836   -2.111551
     23          1           0        3.340495    3.120504   -2.020001
     24          1           0        3.882589    1.677589   -0.008304
     25          1           0       -1.935946    0.969673    1.434443
     26          1           0       -2.959824   -0.458626    1.233003
     27          1           0       -3.196001    0.142231   -1.237715
     28          1           0       -2.403494    1.686994   -0.902547
     29          1           0       -4.206393    2.208294    0.657560
     30          1           0       -4.792248    1.911857   -0.855918
     31          1           0       -4.946184    0.772370    0.327567
 ---------------------------------------------------------------------

 SCF Done:  E(RB3LYP) =  -796.732748143     A.U. after    1 cycles

 Alpha  occ. eigenvalues --  -19.28525 -19.22920 -19.22488 -14.63735 -14.47636
 Alpha  occ. eigenvalues --  -14.46163 -14.38155 -10.41892 -10.41875 -10.41319
 Alpha  occ. eigenvalues --  -10.35633 -10.35401 -10.31233 -10.30855 -10.30296
 Alpha  occ. eigenvalues --  -10.27170  -1.22338  -1.20402  -1.18478  -1.14320
 Alpha  occ. eigenvalues --   -1.11091  -1.06976  -0.96809  -0.96569  -0.91995
 Alpha  occ. eigenvalues --   -0.85849  -0.83509  -0.78938  -0.78814  -0.77586
 Alpha  occ. eigenvalues --   -0.74423  -0.72666  -0.70909  -0.69305  -0.68669
 Alpha  occ. eigenvalues --   -0.68087  -0.64859  -0.63446  -0.61500  -0.60896
 Alpha  occ. eigenvalues --   -0.58488  -0.58096  -0.56901  -0.56186  -0.54725
 Alpha  occ. eigenvalues --   -0.54557  -0.53298  -0.52842  -0.52148  -0.50911
 Alpha  occ. eigenvalues --   -0.50271  -0.49778  -0.48817  -0.43962  -0.40916
 Alpha  occ. eigenvalues --   -0.40555  -0.39250  -0.37895  -0.36260  -0.32490
 Alpha virt. eigenvalues --   -0.19869  -0.14415  -0.14054  -0.13100  -0.12149
 Alpha virt. eigenvalues --   -0.11480  -0.10701  -0.10450  -0.09458  -0.08805
 Alpha virt. eigenvalues --   -0.08303  -0.07842  -0.07362  -0.06593  -0.05934

 Mulliken charges:
               1
     1  O   -0.372047
     2  C   -0.085935
     3  N    0.186646
     4  C   -0.105636
     5  C    0.146377
     6  O   -0.145696
     7  O   -0.306859
     8  C   -0.039344
     9  C    0.504225
    10  C   -0.677590
    11  N   -0.240426
    12  C    0.150712
    13  N   -0.034957
    14  C    0.130535
    15  C   -0.268042
    16  N    0.316867
    17  H    0.151306
    18  H    0.109436
    19  H    0.220978
    20  H    0.075223
    21  H    0.062520
    22  H    0.101394
    23  H    0.124281
    24  H    0.139925
    25  H    0.044156
    26  H    0.071556
    27  H    0.131788
    28  H    0.119531
    29  H    0.164825
    30  H    0.160527
    31  H    0.163726
 Sum of Mulliken charges =   1.00000

 Dipole moment (field-independent basis, Debye):
    X=            -12.7596    Y=              6.4693    Z=              1.9678  Tot=             14.4406
 Quadrupole moment (field-independent basis, Debye-Ang):
   XX=              8.4964   YY=            -77.2967   ZZ=           -109.6870
   XY=            -25.8380   XZ=             -0.6846   YZ=             11.4193

  Exact polarizability: 151.036  -4.387 138.715   4.063 -17.679 135.705
 Approx polarizability: 202.207   2.352 199.786  16.497  -4.213 222.340

                      1                      2                      3
                      A                      A                      A
 Frequencies --     13.5033                38.0850                47.2234
 Red. masses --      4.7637                 1.9316                 4.4579
 Frc consts  --      0.0005                 0.0017                 0.0059
 IR Inten    --     12.5770                 0.1744                 8.4345

                      4                      5                      6
                      A                      A                      A
 Frequencies --     51.9682                63.3028                71.0407
 Red. masses --      3.8013                 4.9296                 4.3551
 Frc consts  --      0.0060                 0.0116                 0.0129
 IR Inten    --     15.4398                14.0048                10.3696

                      7                      8                      9
                      A                      A                      A
 Frequencies --     84.4505               107.2321               136.1827
 Red. masses --      7.5044                 6.3434                 3.9103
 Frc consts  --      0.0315                 0.0430                 0.0427
 IR Inten    --      9.6837                 5.8121                 5.5601

                     10                     11                     12
                      A                      A                      A
 Frequencies --    174.5834               212.0823               230.0132
 Red. masses --      5.8944                 2.2801                 1.3837
 Frc consts  --      0.1059                 0.0604                 0.0431
 IR Inten    --      9.5454                18.9780                 6.3721

                     13                     14                     15
                      A                      A                      A
 Frequencies --    252.7056               279.7524               331.3704
 Red. masses --      4.9525                 3.3017                 4.5738
 Frc consts  --      0.1863                 0.1522                 0.2959
 IR Inten    --      3.0987                 9.6394                 7.9541

                     16                     17                     18
                      A                      A                      A
 Frequencies --    333.1682               375.3350               445.9086
 Red. masses --      3.5859                 3.3412                 2.7700
 Frc consts  --      0.2345                 0.2773                 0.3245
 IR Inten    --      6.4077                13.4838                32.0860

                     19                     20                     21
                      A                      A                      A
 Frequencies --    494.1086               525.7962               535.8189
 Red. masses --      1.2594                 2.2660                 1.8248
 Frc consts  --      0.1812                 0.3691                 0.3087
 IR Inten    --     77.9922                40.4915                50.3624

                     22                     23                     24
                      A                      A                      A
 Frequencies --    541.1106               617.5830               654.1423
 Red. masses --      1.5552                 2.6963                 2.8659
 Frc consts  --      0.2683                 0.6059                 0.7225
 IR Inten    --     56.5966                 7.9937                14.3531

                     25                     26                     27
                      A                      A                      A
 Frequencies --    662.1652               681.0786               693.5842
 Red. masses --      4.3702                 3.2511                 5.0009
 Frc consts  --      1.1290                 0.8885                 1.4174
 IR Inten    --      8.0543                 7.2103                15.3319

                     28                     29                     30
                      A                      A                      A
 Frequencies --    720.1889               784.4722               791.5658
 Red. masses --      3.8600                 5.3735                 1.2831
 Frc consts  --      1.1796                 1.9483                 0.4737
 IR Inten    --      3.5152                 2.9981                 9.4345

                     31                     32                     33
                      A                      A                      A
 Frequencies --    839.1839               865.6043               879.9770
 Red. masses --      1.4052                 1.5285                 2.0815
 Frc consts  --      0.5831                 0.6748                 0.9497
 IR Inten    --     17.9080                17.6019                41.2384

                     34                     35                     36
                      A                      A                      A
 Frequencies --    896.4754               907.8006               919.1699
 Red. masses --      2.4471                 3.4675                 1.3302
 Frc consts  --      1.1587                 1.6836                 0.6622
 IR Inten    --      6.9393                 8.2889                 6.3931

                     37                     38                     39
                      A                      A                      A
 Frequencies --    935.1765               963.6135               986.1409
 Red. masses --      5.7760                 3.0471                 2.5046
 Frc consts  --      2.9762                 1.6670                 1.4351
 IR Inten    --     11.4820                 8.6450                24.7492

                     40                     41                     42
                      A                      A                      A
 Frequencies --   1023.6861              1049.0002              1088.1327
 Red. masses --      3.8248                 3.2515                 2.1503
 Frc consts  --      2.3615                 2.1081                 1.5001
 IR Inten    --     11.6414                10.9875                14.0582

                     43                     44                     45
                      A                      A                      A
 Frequencies --   1110.8478              1114.4826              1139.8167
 Red. masses --      1.6848                 1.8943                 2.2301
 Frc consts  --      1.2249                 1.3862                 1.7070
 IR Inten    --     17.9405                20.2601                 0.8502

                     46                     47                     48
                      A                      A                      A
 Frequencies --   1146.4913              1169.0860              1208.2795
 Red. masses --      2.4248                 1.7393                 1.8215
 Frc consts  --      1.8779                 1.4006                 1.5668
 IR Inten    --     20.0673                 5.1630                 7.6655

                     49                     50                     51
                      A                      A                      A
 Frequencies --   1240.5099              1251.7896              1282.7518
 Red. masses --      1.5836                 1.5820                 1.4492
 Frc consts  --      1.4358                 1.4606                 1.4050
 IR Inten    --      2.5512               147.9134               119.6642

                     52                     53                     54
                      A                      A                      A
 Frequencies --   1289.4311              1295.5896              1320.7734
 Red. masses --      1.3183                 1.4570                 1.9040
 Frc consts  --      1.2914                 1.4409                 1.9569
 IR Inten    --      4.9731                11.3452               205.2116

                     55                     56                     57
                      A                      A                      A
 Frequencies --   1328.0263              1353.4290              1354.2049
 Red. masses --      1.2512                 1.7888                 1.4283
 Frc consts  --      1.3001                 1.9305                 1.5433
 IR Inten    --      5.1751                33.3053                 3.6769

                     58                     59                     60
                      A                      A                      A
 Frequencies --   1390.8232              1409.1458              1411.9483
 Red. masses --      1.6986                 1.3330                 2.2010
 Frc consts  --      1.9359                 1.5595                 2.5853
 IR Inten    --    135.9558                21.0452                15.4445

                     61                     62                     63
                      A                      A                      A
 Frequencies --   1427.1867              1479.3163              1484.9806
 Red. masses --      2.5914                 1.1082                 1.3299
 Frc consts  --      3.1100                 1.4288                 1.7278
 IR Inten    --     21.2150                 1.1516                34.6377

                     64                     65                     66
                      A                      A                      A
 Frequencies --   1500.8704              1507.2039              1513.5613
 Red. masses --      2.4254                 1.0789                 1.1686
 Frc consts  --      3.2189                 1.4440                 1.5773
 IR Inten    --      7.6082                32.8330               133.4219

                     67                     68                     69
                      A                      A                      A
 Frequencies --   1554.9429              1604.4602              1665.2975
 Red. masses --      1.9214                 3.9987                 1.0428
 Frc consts  --      2.7372                 6.0649                 1.7038
 IR Inten    --    227.6871                 9.8706                45.8303

                     70                     71                     72
                      A                      A                      A
 Frequencies --   1669.4180              1745.0433              1833.7384
 Red. masses --      1.0442                 9.3867                10.0588
 Frc consts  --      1.7146                16.8414                19.9284
 IR Inten    --     36.1504               257.4822               236.3666

                     73                     74                     75
                      A                      A                      A
 Frequencies --   3012.4453              3028.7293              3039.5220
 Red. masses --      1.0601                 1.0627                 1.1009
 Frc consts  --      5.6679                 5.7437                 5.9927
 IR Inten    --     22.4671                 3.7570                 6.6273

                     76                     77                     78
                      A                      A                      A
 Frequencies --   3084.9515              3090.1557              3097.7067
 Red. masses --      1.1005                 1.0852                 1.0601
 Frc consts  --      6.1708                 6.1057                 5.9933
 IR Inten    --      5.3745                 8.0848                 3.9109

                     79                     80                     81
                      A                      A                      A
 Frequencies --   3157.4615              3248.5898              3252.3745
 Red. masses --      1.1112                 1.0954                 1.0994
 Frc consts  --      6.5273                 6.8107                 6.8518
 IR Inten    --      2.3417                 0.0949                 2.4130

                     82                     83                     84
                      A                      A                      A
 Frequencies --   3404.2581              3481.7673              3484.3699
 Red. masses --      1.0297                 1.0930                 1.0931
 Frc consts  --      7.0308                 7.8065                 7.8192
 IR Inten    --     52.6362                88.6786                87.7279

                     85                     86                     87
                      A                      A                      A
 Frequencies --   3586.6927              3639.9130              3797.0293
 Red. masses --      1.0772                 1.0813                 1.0664
 Frc consts  --      8.1649                 8.4410                 9.0588
 IR Inten    --     65.4819                64.7239                69.8472

 - Thermochemistry -
 -------------------
 Temperature   298.150 Kelvin.  Pressure   1.00000 Atm.
 Atom     1 has atomic number  8 and mass  15.99491

 Molecular mass:   227.11442 amu.
 Principal axes and moments of inertia in atomic units:
                           1         2         3
     Eigenvalues --  3698.266694601.320507470.01329
           X            0.96100   0.25026   0.11769
           Y           -0.26808   0.73851   0.61866
           Z            0.06791  -0.62608   0.77680
 This molecule is an asymmetric top.
 Rotational symmetry number  1.
 Warning -- assumption of classical behavior for rotation
           may cause significant error
 Rotational temperatures (Kelvin)      0.02342     0.01882     0.01159
 Rotational constants (GHZ):           0.48800     0.39222     0.24160
 Zero-point vibrational energy     678957.9 (Joules/Mol)
                                  162.27483 (Kcal/Mol)
 Warning -- explicit consideration of  23 degrees of freedom as
           vibrations may cause significant error
 Vibrational temperatures:     19.43    54.80    67.94    74.77    91.08
          (Kelvin)            102.21   121.51   154.28   195.94   251.19
                              305.14   330.94   363.59   402.50   476.77
                              479.35   540.02   641.56   710.91   756.50
                              770.92   778.54   888.56   941.16   952.71
                              979.92   997.91  1036.19  1128.68  1138.89
                             1207.40  1245.41  1266.09  1289.83  1306.12
                             1322.48  1345.51  1386.42  1418.84  1472.85
                             1509.28  1565.58  1598.26  1603.49  1639.94
                             1649.54  1682.05  1738.44  1784.81  1801.04
                             1845.59  1855.20  1864.06  1900.30  1910.73
                             1947.28  1948.40  2001.08  2027.44  2031.48
                             2053.40  2128.40  2136.55  2159.41  2168.53
                             2177.67  2237.21  2308.46  2395.99  2401.92
                             2510.72  2638.34  4334.23  4357.66  4373.19
                             4438.55  4446.04  4456.90  4542.88  4673.99
                             4679.44  4897.96  5009.48  5013.22  5160.44
                             5237.02  5463.07

 Zero-point correction=                           0.258601 (Hartree/Particle)
 Thermal correction to Energy=                    0.275186
 Thermal correction to Enthalpy=                  0.276130
 Thermal correction to Gibbs Free Energy=         0.210928
 Sum of electronic and zero-point Energies=           -796.474147
 Sum of electronic and thermal Energies=              -796.457562
 Sum of electronic and thermal Enthalpies=            -796.456618
 Sum of electronic and thermal Free Energies=         -796.521820

                     E (Thermal)             CV                S
                      KCal/Mol        Cal/Mol-Kelvin    Cal/Mol-Kelvin
 Total                  172.682             59.359            137.229
 Electronic               0.000              0.000              0.000
 Translational            0.889              2.981             42.163
 Rotational               0.889              2.981             33.208
 Vibrational            170.904             53.398             61.859
 Vibration     1          0.593              1.987              7.414
 Vibration     2          0.594              1.982              5.356
 Vibration     3          0.595              1.979              4.930
 Vibration     4          0.596              1.977              4.741
 Vibration     5          0.597              1.972              4.351
 Vibration     6          0.598              1.968              4.124
 Vibration     7          0.601              1.960              3.785
 Vibration     8          0.606              1.943              3.318
 Vibration     9          0.614              1.917              2.857
 Vibration    10          0.627              1.874              2.386
 Vibration    11          0.643              1.822              2.026
 Vibration    12          0.652              1.795              1.879
 Vibration    13          0.664              1.758              1.712
 Vibration    14          0.680              1.711              1.535
 Vibration    15          0.714              1.613              1.253
 Vibration    16          0.715              1.609              1.245
 Vibration    17          0.746              1.523              1.058
 Vibration    18          0.805              1.370              0.808
 Vibration    19          0.850              1.263              0.673
 Vibration    20          0.881              1.193              0.597
 Vibration    21          0.891              1.171              0.574
 Vibration    22          0.896              1.159              0.563
 Vibration    23          0.977              0.995              0.420

 Optimization completed on the basis of negligible forces.
    -- Stationary point found.
 Normal termination of Gaussian 09 at Thu Jul 29 23:31:58 2021.
