 Gaussian 09, Revision D.01,
 Gaussian 09:  ES64L-G09RevD.01 24-Apr-2013

 ----------------------------------------------------------------------
 # B3LYP/6-311++G(2df,2pd) guess=read geom=checkpoint opt=readfc freq=n
 oraman nosymm integral(ultrafinegrid)
 ----------------------------------------------------------------------

 ------------------------------------------------------------
 Candidate Structure: Conf:342 OPT and FREQ calc in gas phase
 ------------------------------------------------------------
 Structure from the checkpoint file:  "conf-342.chk"
 Charge =  1 Multiplicity = 1

 SCF Done:  E(RB3LYP) =  -796.736993019     A.U. after   13 cycles
 SCF Done:  E(RB3LYP) =  -796.737723471     A.U. after   12 cycles
 SCF Done:  E(RB3LYP) =  -796.737735596     A.U. after   12 cycles
 SCF Done:  E(RB3LYP) =  -796.737740110     A.U. after   10 cycles
 SCF Done:  E(RB3LYP) =  -796.737744110     A.U. after   10 cycles
 SCF Done:  E(RB3LYP) =  -796.737751069     A.U. after   11 cycles
 SCF Done:  E(RB3LYP) =  -796.736754992     A.U. after   15 cycles
 SCF Done:  E(RB3LYP) =  -796.737759072     A.U. after   13 cycles
 SCF Done:  E(RB3LYP) =  -796.657977797     A.U. after   13 cycles
 SCF Done:  E(RB3LYP) =  -796.737759258     A.U. after    7 cycles
 SCF Done:  E(RB3LYP) =  -796.737793898     A.U. after   11 cycles
 SCF Done:  E(RB3LYP) =  -796.737544076     A.U. after   12 cycles
 SCF Done:  E(RB3LYP) =  -796.737831474     A.U. after   14 cycles
 SCF Done:  E(RB3LYP) =  -796.737834781     A.U. after   10 cycles
 SCF Done:  E(RB3LYP) =  -796.737835759     A.U. after   11 cycles
 SCF Done:  E(RB3LYP) =  -796.737835663     A.U. after   10 cycles
 SCF Done:  E(RB3LYP) =  -796.737835765     A.U. after   10 cycles
 SCF Done:  E(RB3LYP) =  -796.737835762     A.U. after    9 cycles
 SCF Done:  E(RB3LYP) =  -796.737835770     A.U. after    7 cycles
 Optimization completed.
    -- Stationary point found.
 Normal termination of Gaussian 09 at Thu Jul 29 18:54:53 2021.

 ----------------------------------------------------------------------
 #N Geom=AllCheck Guess=TCheck SCRF=Check GenChk RB3LYP/6-311++G(2df,2p
 d) Freq
 ----------------------------------------------------------------------

 Structure from the checkpoint file:  "conf-342.chk"
 ------------------------------------------------------------
 Candidate Structure: Conf:342 OPT and FREQ calc in gas phase
 ------------------------------------------------------------
 Charge =  1 Multiplicity = 1

                          Input orientation:
 ---------------------------------------------------------------------
 Center     Atomic      Atomic             Coordinates (Angstroms)
 Number     Number       Type             X           Y           Z
 ---------------------------------------------------------------------
      1          8           0        1.074858   -1.144659    0.480723
      2          6           0        1.418298   -0.064638    0.021608
      3          7           0        0.582657    0.849770   -0.488615
      4          6           0       -0.843398    0.613457   -0.647190
      5          6           0       -1.317325    1.610887   -1.716954
      6          8           0       -2.607933    1.590811   -2.028187
      7          8           0       -0.548490    2.368039   -2.251626
      8          6           0       -1.617893    0.735050    0.697154
      9          6           0       -2.979560    0.126988    0.663303
     10          6           0       -4.239832    0.671507    0.585104
     11          7           0       -5.198659   -0.311083    0.588261
     12          6           0       -4.544513   -1.440066    0.671523
     13          7           0       -3.196017   -1.237784    0.713707
     14          6           0        2.904430    0.340736    0.041403
     15          6           0        3.743840   -0.924003    0.043834
     16          7           0        5.207014   -0.609825    0.327463
     17          1           0        0.920631    1.660635   -0.994431
     18          1           0       -0.986828   -0.396974   -1.037816
     19          1           0       -3.127887    1.018934   -1.433426
     20          1           0       -1.696421    1.785521    0.977413
     21          1           0       -1.011657    0.244603    1.459369
     22          1           0       -4.504603    1.716162    0.553965
     23          1           0       -4.981993   -2.424173    0.702837
     24          1           0       -2.490852   -1.949174    0.815835
     25          1           0        3.071226    0.914494    0.958269
     26          1           0        3.148881    0.986816   -0.803300
     27          1           0        3.722768   -1.439506   -0.913384
     28          1           0        3.408292   -1.610406    0.816247
     29          1           0        5.602701    0.015861   -0.377161
     30          1           0        5.316103   -0.155464    1.236660
     31          1           0        5.771890   -1.461576    0.337404
 ---------------------------------------------------------------------

 SCF Done:  E(RB3LYP) =  -796.737835771     A.U. after    2 cycles

 Alpha  occ. eigenvalues --  -19.27220 -19.23407 -19.22090 -14.64311 -14.47544
 Alpha  occ. eigenvalues --  -14.46480 -14.38289 -10.42197 -10.41997 -10.41539
 Alpha  occ. eigenvalues --  -10.36120 -10.35162 -10.31621 -10.30779 -10.30407
 Alpha  occ. eigenvalues --  -10.27949  -1.21687  -1.20975  -1.18730  -1.13692
 Alpha  occ. eigenvalues --   -1.11464  -1.06925  -0.97311  -0.96955  -0.91761
 Alpha  occ. eigenvalues --   -0.86522  -0.83693  -0.79495  -0.79265  -0.78033
 Alpha  occ. eigenvalues --   -0.73856  -0.71768  -0.71080  -0.69850  -0.69133
 Alpha  occ. eigenvalues --   -0.67850  -0.65577  -0.63964  -0.61250  -0.61129
 Alpha  occ. eigenvalues --   -0.58997  -0.58025  -0.56903  -0.56089  -0.55162
 Alpha  occ. eigenvalues --   -0.54840  -0.53787  -0.52600  -0.51403  -0.51223
 Alpha  occ. eigenvalues --   -0.50484  -0.49515  -0.48252  -0.43299  -0.41151
 Alpha  occ. eigenvalues --   -0.40519  -0.39557  -0.38178  -0.36223  -0.33224
 Alpha virt. eigenvalues --   -0.20399  -0.15018  -0.14504  -0.13877  -0.12443
 Alpha virt. eigenvalues --   -0.11165  -0.10818  -0.09781  -0.09565  -0.08919
 Alpha virt. eigenvalues --   -0.08495  -0.07668  -0.07081  -0.06665  -0.06415

 Mulliken charges:
               1
     1  O   -0.401889
     2  C   -0.024795
     3  N    0.135825
     4  C   -0.089758
     5  C    0.070334
     6  O   -0.220627
     7  O   -0.348006
     8  C   -0.161316
     9  C    0.540089
    10  C   -0.553899
    11  N   -0.230984
    12  C    0.174464
    13  N   -0.006595
    14  C    0.133711
    15  C   -0.283986
    16  N    0.300839
    17  H    0.141737
    18  H    0.106750
    19  H    0.315383
    20  H    0.099804
    21  H    0.095816
    22  H    0.093021
    23  H    0.120709
    24  H    0.149814
    25  H    0.059350
    26  H    0.054181
    27  H    0.109841
    28  H    0.131817
    29  H    0.164930
    30  H    0.163019
    31  H    0.160424
 Sum of Mulliken charges =   1.00000

 Dipole moment (field-independent basis, Debye):
    X=             21.6965    Y=             -3.8852    Z=              2.8228  Tot=             22.2216
 Quadrupole moment (field-independent basis, Debye-Ang):
   XX=             14.4172   YY=            -87.8572   ZZ=            -97.1754
   XY=             -4.0917   XZ=              3.7996   YZ=              6.4613

  Exact polarizability: 191.601   3.840 134.696  -1.159 -15.384 108.604
 Approx polarizability: 239.873   6.866 221.771  -0.143 -21.412 166.449

                      1                      2                      3
                      A                      A                      A
 Frequencies --     24.8873                32.4432                40.4489
 Red. masses --      2.1909                 5.0451                 2.7437
 Frc consts  --      0.0008                 0.0031                 0.0026
 IR Inten    --      0.6896                 1.9938                 7.7824

                      4                      5                      6
                      A                      A                      A
 Frequencies --     57.9859                80.7083                87.4582
 Red. masses --      5.4530                 6.7581                 4.6297
 Frc consts  --      0.0108                 0.0259                 0.0209
 IR Inten    --      4.4946                10.8377                 5.9023

                      7                      8                      9
                      A                      A                      A
 Frequencies --     92.0169               116.0196               123.0415
 Red. masses --      6.4328                 5.1145                 4.4693
 Frc consts  --      0.0321                 0.0406                 0.0399
 IR Inten    --      9.9688                 2.9052                13.0730

                     10                     11                     12
                      A                      A                      A
 Frequencies --    193.6752               219.7686               232.1016
 Red. masses --      5.3002                 1.5831                 1.9672
 Frc consts  --      0.1171                 0.0450                 0.0624
 IR Inten    --      6.8707                10.7558                11.5827

                     13                     14                     15
                      A                      A                      A
 Frequencies --    268.1835               328.3943               332.1551
 Red. masses --      5.3984                 6.9931                 2.1334
 Frc consts  --      0.2288                 0.4443                 0.1387
 IR Inten    --     12.8745                 3.1959                 3.0899

                     16                     17                     18
                      A                      A                      A
 Frequencies --    347.3619               375.9275               388.7342
 Red. masses --      5.0114                 3.7578                 4.5676
 Frc consts  --      0.3563                 0.3129                 0.4067
 IR Inten    --      6.2022                18.5450                17.8634

                     19                     20                     21
                      A                      A                      A
 Frequencies --    549.9886               555.8512               588.8638
 Red. masses --      3.7943                 1.5089                 2.2063
 Frc consts  --      0.6762                 0.2747                 0.4508
 IR Inten    --     11.0950                53.0924                33.5782

                     22                     23                     24
                      A                      A                      A
 Frequencies --    611.5965               650.0619               666.9128
 Red. masses --      2.3655                 1.6562                 1.5564
 Frc consts  --      0.5213                 0.4124                 0.4079
 IR Inten    --     57.3303                13.8507                18.9580

                     25                     26                     27
                      A                      A                      A
 Frequencies --    670.2836               684.3651               717.4682
 Red. masses --      2.4380                 2.6000                 3.2850
 Frc consts  --      0.6454                 0.7175                 0.9963
 IR Inten    --     67.3251                 2.0637                16.7291

                     28                     29                     30
                      A                      A                      A
 Frequencies --    739.4387               767.2603               795.3876
 Red. masses --      3.5509                 3.4316                 1.3908
 Frc consts  --      1.1439                 1.1902                 0.5184
 IR Inten    --      1.3850                 1.1368                11.0195

                     31                     32                     33
                      A                      A                      A
 Frequencies --    821.4434               855.4341               878.9949
 Red. masses --      3.1974                 1.4146                 1.3813
 Frc consts  --      1.2712                 0.6099                 0.6288
 IR Inten    --      5.3316                17.3689                12.1594

                     34                     35                     36
                      A                      A                      A
 Frequencies --    883.6657               917.4961               929.2854
 Red. masses --      2.6870                 1.2779                 4.3110
 Frc consts  --      1.2362                 0.6338                 2.1935
 IR Inten    --     30.8648                 3.8137                 1.0885

                     37                     38                     39
                      A                      A                      A
 Frequencies --    933.5238               980.0236               999.9387
 Red. masses --      4.4058                 2.1581                 3.7327
 Frc consts  --      2.2622                 1.2212                 2.1990
 IR Inten    --     33.7475                18.0993                32.8536

                     40                     41                     42
                      A                      A                      A
 Frequencies --   1022.6566              1028.2786              1091.0453
 Red. masses --      3.8936                 3.2962                 1.8850
 Frc consts  --      2.3991                 2.0534                 1.3221
 IR Inten    --     10.6174                 2.1506                14.2492

                     43                     44                     45
                      A                      A                      A
 Frequencies --   1103.7392              1115.6161              1146.6406
 Red. masses --      1.7145                 2.1060                 2.1082
 Frc consts  --      1.2306                 1.5443                 1.6331
 IR Inten    --     15.8613                28.0893                15.2731

                     46                     47                     48
                      A                      A                      A
 Frequencies --   1147.9526              1175.2827              1228.0369
 Red. masses --      2.6150                 1.3554                 1.9882
 Frc consts  --      2.0304                 1.1031                 1.7666
 IR Inten    --      2.5746                 2.5423                 9.1390

                     49                     50                     51
                      A                      A                      A
 Frequencies --   1242.0918              1255.7659              1284.8182
 Red. masses --      1.5314                 2.2811                 1.3713
 Frc consts  --      1.3921                 2.1194                 1.3337
 IR Inten    --     22.8812                20.0933                 0.6320

                     52                     53                     54
                      A                      A                      A
 Frequencies --   1290.9784              1307.2185              1325.4564
 Red. masses --      1.3140                 1.3539                 1.3740
 Frc consts  --      1.2903                 1.3632                 1.4223
 IR Inten    --      3.0554                40.6497                44.5289

                     55                     56                     57
                      A                      A                      A
 Frequencies --   1329.9917              1349.9353              1359.4307
 Red. masses --      1.2837                 1.5858                 1.4357
 Frc consts  --      1.3379                 1.7026                 1.5632
 IR Inten    --      7.3320               130.6901                18.7421

                     58                     59                     60
                      A                      A                      A
 Frequencies --   1383.7803              1407.6976              1408.3200
 Red. masses --      2.3224                 2.1528                 1.3614
 Frc consts  --      2.6201                 2.5134                 1.5909
 IR Inten    --      0.9248               163.3701                50.5674

                     61                     62                     63
                      A                      A                      A
 Frequencies --   1424.6062              1480.1580              1487.2074
 Red. masses --      2.6184                 1.1120                 1.1027
 Frc consts  --      3.1310                 1.4354                 1.4370
 IR Inten    --     24.6478                 1.1838                12.4805

                     64                     65                     66
                      A                      A                      A
 Frequencies --   1498.5189              1506.1340              1514.4163
 Red. masses --      3.7300                 1.0757                 1.1872
 Frc consts  --      4.9350                 1.4377                 1.6042
 IR Inten    --     38.3440                24.9469               203.9992

                     67                     68                     69
                      A                      A                      A
 Frequencies --   1532.5900              1597.7388              1665.2334
 Red. masses --      2.3380                 4.0942                 1.0425
 Frc consts  --      3.2355                 6.1579                 1.7033
 IR Inten    --    291.1920                 7.7362                45.7491

                     70                     71                     72
                      A                      A                      A
 Frequencies --   1669.5728              1731.2546              1811.6016
 Red. masses --      1.0447                 9.6215                 9.3855
 Frc consts  --      1.7158                16.9909                18.1481
 IR Inten    --     39.5116               285.2497               342.6265

                     73                     74                     75
                      A                      A                      A
 Frequencies --   3027.6742              3043.6750              3056.6014
 Red. masses --      1.0627                 1.0810                 1.0622
 Frc consts  --      5.7395                 5.9000                 5.8472
 IR Inten    --      3.4820                 3.9664                13.2783

                     76                     77                     78
                      A                      A                      A
 Frequencies --   3080.1967              3099.5602              3100.3919
 Red. masses --      1.1008                 1.1044                 1.0600
 Frc consts  --      6.1532                 6.2512                 6.0033
 IR Inten    --      4.2314                 2.3548                 3.4621

                     79                     80                     81
                      A                      A                      A
 Frequencies --   3159.3131              3234.0776              3249.8921
 Red. masses --      1.1110                 1.0966                 1.0985
 Frc consts  --      6.5335                 6.7578                 6.8357
 IR Inten    --      1.9785                 2.4665                 1.8107

                     82                     83                     84
                      A                      A                      A
 Frequencies --   3403.8574              3481.2083              3482.9102
 Red. masses --      1.0298                 1.0930                 1.0931
 Frc consts  --      7.0295                 7.8041                 7.8127
 IR Inten    --     55.0701                87.8717                91.4378

                     85                     86                     87
                      A                      A                      A
 Frequencies --   3524.4760              3579.4040              3634.8983
 Red. masses --      1.0776                 1.0677                 1.0815
 Frc consts  --      7.8870                 8.0596                 8.4187
 IR Inten    --    131.4191               509.0060                59.0214

 - Thermochemistry -
 -------------------
 Temperature   298.150 Kelvin.  Pressure   1.00000 Atm.
 Atom     1 has atomic number  8 and mass  15.99491

 Molecular mass:   227.11442 amu.
 Principal axes and moments of inertia in atomic units:
                           1         2         3
     Eigenvalues --  1873.414467618.541589091.61097
           X            0.99890   0.02514   0.03961
           Y           -0.04502   0.75147   0.65823
           Z           -0.01322  -0.65929   0.75177
 This molecule is an asymmetric top.
 Rotational symmetry number  1.
 Warning -- assumption of classical behavior for rotation
           may cause significant error
 Rotational temperatures (Kelvin)      0.04623     0.01137     0.00953
 Rotational constants (GHZ):           0.96334     0.23689     0.19851
 Zero-point vibrational energy     679601.5 (Joules/Mol)
                                  162.42865 (Kcal/Mol)
 Warning -- explicit consideration of  22 degrees of freedom as
           vibrations may cause significant error
 Vibrational temperatures:     35.81    46.68    58.20    83.43   116.12
          (Kelvin)            125.83   132.39   166.93   177.03   278.66
                              316.20   333.94   385.86   472.49   477.90
                              499.78   540.88   559.30   791.31   799.74
                              847.24   879.95   935.29   959.54   964.39
                              984.65  1032.28  1063.89  1103.92  1144.38
                             1181.87  1230.78  1264.68  1271.40  1320.07
                             1337.03  1343.13  1410.03  1438.69  1471.37
                             1479.46  1569.77  1588.03  1605.12  1649.76
                             1651.65  1690.97  1766.87  1787.09  1806.76
                             1848.56  1857.43  1880.79  1907.03  1913.56
                             1942.25  1955.92  1990.95  2025.36  2026.26
                             2049.69  2129.61  2139.76  2156.03  2166.99
                             2178.90  2205.05  2298.79  2395.90  2402.14
                             2490.89  2606.49  4356.14  4379.16  4397.76
                             4431.71  4459.57  4460.77  4545.54  4653.11
                             4675.86  4897.39  5008.68  5011.12  5070.93
                             5149.96  5229.80

 Zero-point correction=                           0.258847 (Hartree/Particle)
 Thermal correction to Energy=                    0.275083
 Thermal correction to Enthalpy=                  0.276027
 Thermal correction to Gibbs Free Energy=         0.212184
 Sum of electronic and zero-point Energies=           -796.478989
 Sum of electronic and thermal Energies=              -796.462753
 Sum of electronic and thermal Enthalpies=            -796.461808
 Sum of electronic and thermal Free Energies=         -796.525651

                     E (Thermal)             CV                S
                      KCal/Mol        Cal/Mol-Kelvin    Cal/Mol-Kelvin
 Total                  172.617             58.650            134.369
 Electronic               0.000              0.000              0.000
 Translational            0.889              2.981             42.163
 Rotational               0.889              2.981             33.228
 Vibrational            170.840             52.688             58.977
 Vibration     1          0.593              1.985              6.200
 Vibration     2          0.594              1.983              5.674
 Vibration     3          0.594              1.981              5.237
 Vibration     4          0.596              1.974              4.525
 Vibration     5          0.600              1.962              3.874
 Vibration     6          0.601              1.958              3.716
 Vibration     7          0.602              1.955              3.617
 Vibration     8          0.608              1.936              3.166
 Vibration     9          0.610              1.930              3.052
 Vibration    10          0.635              1.849              2.192
 Vibration    11          0.647              1.811              1.961
 Vibration    12          0.653              1.792              1.863
 Vibration    13          0.673              1.732              1.608
 Vibration    14          0.712              1.619              1.268
 Vibration    15          0.714              1.611              1.250
 Vibration    16          0.725              1.581              1.178
 Vibration    17          0.747              1.521              1.056
 Vibration    18          0.757              1.494              1.005
 Vibration    19          0.905              1.140              0.544
 Vibration    20          0.911              1.127              0.532
 Vibration    21          0.946              1.056              0.469
 Vibration    22          0.971              1.007              0.430

 Optimization completed.
    -- Stationary point found.
 Normal termination of Gaussian 09 at Fri Jul 30 01:08:12 2021.
