 Gaussian 09, Revision D.01,
 Gaussian 09:  ES64L-G09RevD.01 24-Apr-2013

 ----------------------------------------------------------------------
 # B3LYP/6-311++G(2df,2pd) guess=read geom=checkpoint opt=readfc freq=n
 oraman nosymm integral(ultrafinegrid)
 ----------------------------------------------------------------------

 ------------------------------------------------------------
 Candidate Structure: Conf:661 OPT and FREQ calc in gas phase
 ------------------------------------------------------------
 Structure from the checkpoint file:  "conf-661.chk"
 Charge =  1 Multiplicity = 1

 SCF Done:  E(RB3LYP) =  -796.753449603     A.U. after   14 cycles
 SCF Done:  E(RB3LYP) =  -796.754277443     A.U. after   13 cycles
 SCF Done:  E(RB3LYP) =  -796.754299054     A.U. after   12 cycles
 SCF Done:  E(RB3LYP) =  -796.754299984     A.U. after    8 cycles
 SCF Done:  E(RB3LYP) =  -796.754300017     A.U. after    8 cycles
 Optimization completed.
    -- Stationary point found.
 Normal termination of Gaussian 09 at Thu Jul 29 04:43:05 2021.

 ----------------------------------------------------------------------
 #N Geom=AllCheck Guess=TCheck SCRF=Check GenChk RB3LYP/6-311++G(2df,2p
 d) Freq
 ----------------------------------------------------------------------

 Structure from the checkpoint file:  "conf-661.chk"
 ------------------------------------------------------------
 Candidate Structure: Conf:661 OPT and FREQ calc in gas phase
 ------------------------------------------------------------
 Charge =  1 Multiplicity = 1

                          Input orientation:
 ---------------------------------------------------------------------
 Center     Atomic      Atomic             Coordinates (Angstroms)
 Number     Number       Type             X           Y           Z
 ---------------------------------------------------------------------
      1          8           0        2.103974    1.136107    0.868113
      2          6           0        1.399328    0.928621   -0.103520
      3          7           0        0.160522    0.385222    0.004734
      4          6           0       -0.283136   -0.147280    1.269275
      5          6           0        0.720903   -1.216208    1.733297
      6          8           0        0.728078   -1.523138    3.022086
      7          8           0        1.442932   -1.825458    0.972707
      8          6           0       -1.691265   -0.802927    1.120306
      9          6           0       -2.664341    0.037544    0.371022
     10          6           0       -3.107004   -0.056882   -0.925192
     11          7           0       -3.965621    0.968838   -1.226110
     12          6           0       -4.055193    1.682248   -0.133547
     13          7           0       -3.280772    1.169522    0.867078
     14          6           0        1.961988    1.071775   -1.512654
     15          6           0        3.204342    0.188319   -1.596401
     16          7           0        2.872167   -1.265147   -1.308399
     17          1           0       -0.478822    0.353067   -0.776560
     18          1           0       -0.314455    0.646274    2.020547
     19          1           0        0.170594   -0.938410    3.551419
     20          1           0       -2.059193   -1.056796    2.116225
     21          1           0       -1.581416   -1.744760    0.581385
     22          1           0       -2.879221   -0.829578   -1.642355
     23          1           0       -4.657791    2.565416   -0.000657
     24          1           0       -3.226379    1.526476    1.806564
     25          1           0        2.281318    2.101448   -1.672237
     26          1           0        1.235765    0.822220   -2.287568
     27          1           0        3.922502    0.490844   -0.839322
     28          1           0        3.669788    0.225791   -2.578038
     29          1           0        3.725596   -1.816379   -1.216475
     30          1           0        2.317862   -1.398545   -0.420963
     31          1           0        2.326548   -1.678117   -2.064753
 ---------------------------------------------------------------------

 SCF Done:  E(RB3LYP) =  -796.754300017     A.U. after    1 cycles

 Alpha  occ. eigenvalues --  -19.32420 -19.27025 -19.23960 -14.58991 -14.49098
 Alpha  occ. eigenvalues --  -14.48427 -14.40149 -10.46382 -10.42324 -10.39824
 Alpha  occ. eigenvalues --  -10.38183 -10.34606 -10.33562 -10.33436 -10.32698
 Alpha  occ. eigenvalues --  -10.29866  -1.26689  -1.19905  -1.18155  -1.16034
 Alpha  occ. eigenvalues --   -1.13360  -1.08526  -0.98917  -0.95891  -0.93546
 Alpha  occ. eigenvalues --   -0.87662  -0.83131  -0.80412  -0.78349  -0.75603
 Alpha  occ. eigenvalues --   -0.74629  -0.74062  -0.73097  -0.71332  -0.69129
 Alpha  occ. eigenvalues --   -0.66722  -0.66351  -0.65355  -0.65058  -0.61452
 Alpha  occ. eigenvalues --   -0.60568  -0.59359  -0.58436  -0.57590  -0.56777
 Alpha  occ. eigenvalues --   -0.56146  -0.54749  -0.54040  -0.53353  -0.52891
 Alpha  occ. eigenvalues --   -0.52564  -0.52223  -0.50837  -0.48061  -0.44870
 Alpha  occ. eigenvalues --   -0.41944  -0.41368  -0.40137  -0.38125  -0.35074
 Alpha virt. eigenvalues --   -0.16752  -0.15976  -0.14732  -0.13261  -0.12479
 Alpha virt. eigenvalues --   -0.11300  -0.10479  -0.09854  -0.09515  -0.09060
 Alpha virt. eigenvalues --   -0.08204  -0.07905  -0.06647  -0.06540  -0.06005

 Mulliken charges:
               1
     1  O   -0.349874
     2  C   -0.191379
     3  N    0.211072
     4  C   -0.121105
     5  C    0.101779
     6  O   -0.120846
     7  O   -0.383258
     8  C   -0.360032
     9  C    0.408385
    10  C   -0.360848
    11  N   -0.217930
    12  C    0.146214
    13  N    0.027819
    14  C    0.169872
    15  C   -0.136955
    16  N    0.087005
    17  H    0.149761
    18  H    0.129836
    19  H    0.221904
    20  H    0.066107
    21  H    0.105357
    22  H    0.088054
    23  H    0.120766
    24  H    0.138308
    25  H    0.091952
    26  H    0.060021
    27  H    0.127799
    28  H    0.110707
    29  H    0.164199
    30  H    0.378525
    31  H    0.136783
 Sum of Mulliken charges =   1.00000

 Dipole moment (field-independent basis, Debye):
    X=              5.6680    Y=             -1.7941    Z=             -1.4396  Tot=              6.1170
 Quadrupole moment (field-independent basis, Debye-Ang):
   XX=            -61.8755   YY=            -84.0862   ZZ=            -68.6295
   XY=            -13.4244   XZ=            -38.2982   YZ=              9.1370

  Exact polarizability: 160.701 -16.553 124.126  -0.348  -4.512 142.676
 Approx polarizability: 210.409 -18.969 191.515  10.243   7.017 228.588

                      1                      2                      3
                      A                      A                      A
 Frequencies --     32.3362                40.6390                61.3568
 Red. masses --      4.1836                 3.9775                 6.8127
 Frc consts  --      0.0026                 0.0039                 0.0151
 IR Inten    --     13.3073                 1.2888                12.7709

                      4                      5                      6
                      A                      A                      A
 Frequencies --     65.8871                82.1282               111.4252
 Red. masses --      4.2632                 5.6226                 4.7933
 Frc consts  --      0.0109                 0.0223                 0.0351
 IR Inten    --      4.5847                 6.4372                 6.3806

                      7                      8                      9
                      A                      A                      A
 Frequencies --    147.5820               160.0246               177.0653
 Red. masses --      5.2277                 5.8168                 6.5855
 Frc consts  --      0.0671                 0.0878                 0.1216
 IR Inten    --     21.9914                 4.0708                 9.8145

                     10                     11                     12
                      A                      A                      A
 Frequencies --    215.7669               247.2216               276.3701
 Red. masses --      3.9010                 2.7229                 5.7081
 Frc consts  --      0.1070                 0.0981                 0.2569
 IR Inten    --     67.6775                13.4363                10.9637

                     13                     14                     15
                      A                      A                      A
 Frequencies --    319.6559               333.3527               345.6095
 Red. masses --      3.1704                 1.1455                 3.0751
 Frc consts  --      0.1909                 0.0750                 0.2164
 IR Inten    --      9.4053                 0.2903                 3.7936

                     16                     17                     18
                      A                      A                      A
 Frequencies --    377.5982               420.1223               437.3574
 Red. masses --      3.4530                 3.8502                 2.6360
 Frc consts  --      0.2901                 0.4004                 0.2971
 IR Inten    --     13.1208                32.5781                 3.7470

                     19                     20                     21
                      A                      A                      A
 Frequencies --    492.3447               516.1784               533.1638
 Red. masses --      1.1632                 1.2116                 2.1659
 Frc consts  --      0.1661                 0.1902                 0.3628
 IR Inten    --     51.5444                46.6616                26.7828

                     22                     23                     24
                      A                      A                      A
 Frequencies --    547.8700               629.2078               651.7535
 Red. masses --      1.7097                 4.2568                 3.1700
 Frc consts  --      0.3024                 0.9929                 0.7934
 IR Inten    --     80.2591                 7.1308                 7.0302

                     25                     26                     27
                      A                      A                      A
 Frequencies --    677.9116               696.2075               712.9479
 Red. masses --      2.9877                 3.8099                 4.2687
 Frc consts  --      0.8090                 1.0880                 1.2784
 IR Inten    --      5.8509                 6.6838                17.9501

                     28                     29                     30
                      A                      A                      A
 Frequencies --    735.4204               779.2430               836.7563
 Red. masses --      2.4879                 5.7704                 3.1870
 Frc consts  --      0.7928                 2.0644                 1.3147
 IR Inten    --      1.5185                 2.7405                 1.7197

                     31                     32                     33
                      A                      A                      A
 Frequencies --    850.7235               855.7450               870.5535
 Red. masses --      1.9637                 1.4167                 2.1016
 Frc consts  --      0.8374                 0.6113                 0.9384
 IR Inten    --      9.3831                24.4426                 8.3469

                     34                     35                     36
                      A                      A                      A
 Frequencies --    876.6932               928.0732               929.7221
 Red. masses --      1.7601                 2.5072                 5.9471
 Frc consts  --      0.7971                 1.2723                 3.0287
 IR Inten    --     12.5875                 5.0983                 8.8880

                     37                     38                     39
                      A                      A                      A
 Frequencies --    947.9227               955.2888              1001.2369
 Red. masses --      1.3491                 3.3696                 2.8551
 Frc consts  --      0.7142                 1.8117                 1.6863
 IR Inten    --      7.9027                 6.3496                 9.4286

                     40                     41                     42
                      A                      A                      A
 Frequencies --   1010.6508              1040.9923              1091.8045
 Red. masses --      3.7260                 3.0508                 1.6282
 Frc consts  --      2.2423                 1.9479                 1.1435
 IR Inten    --     15.1310                 3.6699                 5.7532

                     43                     44                     45
                      A                      A                      A
 Frequencies --   1104.3846              1115.2292              1138.6636
 Red. masses --      1.7450                 1.3581                 2.0018
 Frc consts  --      1.2540                 0.9952                 1.5292
 IR Inten    --     19.9668                 6.2111                26.8215

                     46                     47                     48
                      A                      A                      A
 Frequencies --   1149.5757              1190.0693              1206.1469
 Red. masses --      2.1504                 1.5198                 1.6756
 Frc consts  --      1.6743                 1.2682                 1.4362
 IR Inten    --     11.2826                15.3842                20.6278

                     49                     50                     51
                      A                      A                      A
 Frequencies --   1239.6044              1260.2536              1276.3852
 Red. masses --      1.6978                 2.1303                 1.4601
 Frc consts  --      1.5371                 1.9935                 1.4015
 IR Inten    --     96.1103                 4.7366                16.5099

                     52                     53                     54
                      A                      A                      A
 Frequencies --   1282.2333              1305.7145              1326.3181
 Red. masses --      1.4977                 1.4263                 1.8223
 Frc consts  --      1.4508                 1.4328                 1.8887
 IR Inten    --     61.5504                83.9881               230.4287

                     55                     56                     57
                      A                      A                      A
 Frequencies --   1339.4559              1356.7984              1385.0849
 Red. masses --      1.4329                 1.4232                 1.3923
 Frc consts  --      1.5147                 1.5436                 1.5738
 IR Inten    --     25.9795                 7.9746                 6.9108

                     58                     59                     60
                      A                      A                      A
 Frequencies --   1389.7723              1400.3963              1412.6113
 Red. masses --      3.0532                 1.6858                 1.2909
 Frc consts  --      3.4745                 1.9479                 1.5177
 IR Inten    --      8.2010                88.8872                 2.9855

                     61                     62                     63
                      A                      A                      A
 Frequencies --   1425.1224              1478.3071              1481.3384
 Red. masses --      2.6489                 1.0966                 1.2250
 Frc consts  --      3.1697                 1.4120                 1.5838
 IR Inten    --     27.6887                15.2585                19.2483

                     64                     65                     66
                      A                      A                      A
 Frequencies --   1499.7404              1500.0223              1518.3294
 Red. masses --      1.0782                 2.8158                 2.1422
 Frc consts  --      1.4288                 3.7329                 2.9097
 IR Inten    --     14.6872                35.3936               322.7399

                     67                     68                     69
                      A                      A                      A
 Frequencies --   1572.5936              1599.7150              1672.3655
 Red. masses --      1.1579                 4.1269                 1.0530
 Frc consts  --      1.6871                 6.2224                 1.7352
 IR Inten    --    101.5220                 5.9038                67.8656

                     70                     71                     72
                      A                      A                      A
 Frequencies --   1682.0062              1740.2042              1770.5277
 Red. masses --      1.0532                 7.5905                 8.9224
 Frc consts  --      1.7556                13.5431                16.4792
 IR Inten    --     18.2246               239.2993               406.4086

                     73                     74                     75
                      A                      A                      A
 Frequencies --   2893.9173              3034.2170              3045.8127
 Red. masses --      1.0830                 1.0847                 1.0618
 Frc consts  --      5.3439                 5.8839                 5.8034
 IR Inten    --   1096.8035                 8.7005                11.8102

                     76                     77                     78
                      A                      A                      A
 Frequencies --   3058.5030              3090.0271              3096.9773
 Red. masses --      1.0626                 1.1020                 1.0623
 Frc consts  --      5.8566                 6.1995                 6.0032
 IR Inten    --      6.4387                 5.9546                 2.1158

                     79                     80                     81
                      A                      A                      A
 Frequencies --   3111.0331              3156.3791              3226.5217
 Red. masses --      1.0998                 1.1111                 1.0964
 Frc consts  --      6.2716                 6.5222                 6.7251
 IR Inten    --      2.5005                 0.1205                 4.0079

                     82                     83                     84
                      A                      A                      A
 Frequencies --   3251.5201              3452.4143              3506.6835
 Red. masses --      1.0986                 1.0533                 1.0924
 Frc consts  --      6.8432                 7.3967                 7.9146
 IR Inten    --      2.2506                79.7391                71.2039

                     85                     86                     87
                      A                      A                      A
 Frequencies --   3564.3904              3639.3992              3787.6385
 Red. masses --      1.0792                 1.0814                 1.0664
 Frc consts  --      8.0782                 8.4389                 9.0134
 IR Inten    --    148.1546                60.5304                87.0101

 - Thermochemistry -
 -------------------
 Temperature   298.150 Kelvin.  Pressure   1.00000 Atm.
 Atom     1 has atomic number  8 and mass  15.99491

 Molecular mass:   227.11442 amu.
 Principal axes and moments of inertia in atomic units:
                           1         2         3
     Eigenvalues --  2295.282465490.902876649.89198
           X            0.98058  -0.07855   0.17969
           Y           -0.19513  -0.48227   0.85402
           Z           -0.01957   0.87250   0.48823
 This molecule is an asymmetric top.
 Rotational symmetry number  1.
 Warning -- assumption of classical behavior for rotation
           may cause significant error
 Rotational temperatures (Kelvin)      0.03774     0.01577     0.01302
 Rotational constants (GHZ):           0.78628     0.32868     0.27139
 Zero-point vibrational energy     680401.9 (Joules/Mol)
                                  162.61996 (Kcal/Mol)
 Warning -- explicit consideration of  22 degrees of freedom as
           vibrations may cause significant error
 Vibrational temperatures:     46.52    58.47    88.28    94.80   118.16
          (Kelvin)            160.32   212.34   230.24   254.76   310.44
                              355.70   397.63   459.91   479.62   497.25
                              543.28   604.46   629.26   708.37   742.66
                              767.10   788.26   905.29   937.73   975.36
                             1001.69  1025.77  1058.10  1121.16  1203.90
                             1224.00  1231.22  1252.53  1261.36  1335.29
                             1337.66  1363.85  1374.45  1440.55  1454.10
                             1497.75  1570.86  1588.96  1604.56  1638.28
                             1653.98  1712.24  1735.37  1783.51  1813.22
                             1836.43  1844.85  1878.63  1908.27  1927.18
                             1952.13  1992.83  1999.57  2014.86  2032.43
                             2050.43  2126.95  2131.31  2157.79  2158.19
                             2184.53  2262.61  2301.63  2406.16  2420.03
                             2503.76  2547.39  4163.70  4365.56  4382.24
                             4400.50  4445.85  4455.85  4476.08  4541.32
                             4642.24  4678.21  4967.25  5045.33  5128.36
                             5236.28  5449.56

 Zero-point correction=                           0.259151 (Hartree/Particle)
 Thermal correction to Energy=                    0.274757
 Thermal correction to Enthalpy=                  0.275701
 Thermal correction to Gibbs Free Energy=         0.214870
 Sum of electronic and zero-point Energies=           -796.495149
 Sum of electronic and thermal Energies=              -796.479543
 Sum of electronic and thermal Enthalpies=            -796.478599
 Sum of electronic and thermal Free Energies=         -796.539430

                     E (Thermal)             CV                S
                      KCal/Mol        Cal/Mol-Kelvin    Cal/Mol-Kelvin
 Total                  172.413             58.315            128.029
 Electronic               0.000              0.000              0.000
 Translational            0.889              2.981             42.163
 Rotational               0.889              2.981             32.794
 Vibrational            170.635             52.353             53.072
 Vibration     1          0.594              1.983              5.681
 Vibration     2          0.594              1.981              5.228
 Vibration     3          0.597              1.973              4.413
 Vibration     4          0.597              1.971              4.273
 Vibration     5          0.600              1.961              3.839
 Vibration     6          0.607              1.940              3.244
 Vibration     7          0.617              1.905              2.703
 Vibration     8          0.622              1.891              2.550
 Vibration     9          0.628              1.871              2.359
 Vibration    10          0.645              1.817              1.994
 Vibration    11          0.661              1.767              1.750
 Vibration    12          0.678              1.717              1.556
 Vibration    13          0.706              1.636              1.312
 Vibration    14          0.715              1.609              1.244
 Vibration    15          0.724              1.584              1.186
 Vibration    16          0.748              1.518              1.049
 Vibration    17          0.783              1.427              0.892
 Vibration    18          0.798              1.389              0.835
 Vibration    19          0.848              1.267              0.678
 Vibration    20          0.871              1.214              0.619
 Vibration    21          0.888              1.177              0.580
 Vibration    22          0.903              1.144              0.549

 Optimization completed.
    -- Stationary point found.
 Normal termination of Gaussian 09 at Thu Jul 29 12:08:25 2021.
