 Gaussian 09, Revision D.01,
 Gaussian 09:  ES64L-G09RevD.01 24-Apr-2013

 ----------------------------------------------------------------------
 # B3LYP/6-311++G(2df,2pd) guess=read geom=checkpoint opt=readfc freq=n
 oraman nosymm integral(ultrafinegrid)
 ----------------------------------------------------------------------

 ------------------------------------------------------------
 Candidate Structure: Conf:715 OPT and FREQ calc in gas phase
 ------------------------------------------------------------
 Structure from the checkpoint file:  "conf-715.chk"
 Charge =  1 Multiplicity = 1

 SCF Done:  E(RB3LYP) =  -796.757073163     A.U. after   12 cycles
 SCF Done:  E(RB3LYP) =  -796.758090613     A.U. after   12 cycles
 SCF Done:  E(RB3LYP) =  -796.758131216     A.U. after   12 cycles
 SCF Done:  E(RB3LYP) =  -796.758143228     A.U. after   11 cycles
 SCF Done:  E(RB3LYP) =  -796.758144419     A.U. after   10 cycles
 SCF Done:  E(RB3LYP) =  -796.758144780     A.U. after    8 cycles
 Optimization completed.
    -- Stationary point found.
 Normal termination of Gaussian 09 at Thu Jul 29 05:17:16 2021.

 ----------------------------------------------------------------------
 #N Geom=AllCheck Guess=TCheck SCRF=Check GenChk RB3LYP/6-311++G(2df,2p
 d) Freq
 ----------------------------------------------------------------------

 Structure from the checkpoint file:  "conf-715.chk"
 ------------------------------------------------------------
 Candidate Structure: Conf:715 OPT and FREQ calc in gas phase
 ------------------------------------------------------------
 Charge =  1 Multiplicity = 1

                          Input orientation:
 ---------------------------------------------------------------------
 Center     Atomic      Atomic             Coordinates (Angstroms)
 Number     Number       Type             X           Y           Z
 ---------------------------------------------------------------------
      1          8           0       -2.162931    1.091934   -0.365462
      2          6           0       -1.495949    0.325470    0.352604
      3          7           0       -0.196838    0.508780    0.574071
      4          6           0        0.584878    1.479475   -0.167850
      5          6           0        0.630477    1.076064   -1.653783
      6          8           0        1.025593    2.037252   -2.506628
      7          8           0        0.382386   -0.028017   -2.044513
      8          6           0        2.015185    1.567446    0.445118
      9          6           0        2.659188    0.245443    0.690104
     10          6           0        2.766440   -0.492436    1.845020
     11          7           0        3.400823   -1.684519    1.607810
     12          6           0        3.684231   -1.680498    0.329602
     13          7           0        3.256608   -0.537976   -0.277396
     14          6           0       -2.176745   -0.865576    1.012571
     15          6           0       -3.114036   -1.566254    0.025283
     16          7           0       -4.100661   -0.565731   -0.531678
     17          1           0        0.335001   -0.203125    1.061938
     18          1           0        0.103082    2.455029   -0.087726
     19          1           0        1.121771    2.899093   -2.082815
     20          1           0        2.630352    2.199481   -0.197878
     21          1           0        1.932477    2.086602    1.399371
     22          1           0        2.454352   -0.207152    2.837223
     23          1           0        4.194312   -2.462172   -0.208378
     24          1           0        3.351126   -0.323160   -1.256543
     25          1           0       -1.455228   -1.593898    1.378884
     26          1           0       -2.735094   -0.504775    1.880348
     27          1           0       -3.658213   -2.381811    0.493379
     28          1           0       -2.557392   -1.956232   -0.824130
     29          1           0       -3.509928    0.326418   -0.651936
     30          1           0       -4.500085   -0.868351   -1.417854
     31          1           0       -4.865023   -0.376789    0.114855
 ---------------------------------------------------------------------

 SCF Done:  E(RB3LYP) =  -796.758144780     A.U. after    1 cycles

 Alpha  occ. eigenvalues --  -19.30007 -19.26461 -19.23956 -14.58158 -14.49887
 Alpha  occ. eigenvalues --  -14.47522 -14.39424 -10.44258 -10.43325 -10.40381
 Alpha  occ. eigenvalues --  -10.37237 -10.35764 -10.32643 -10.32598 -10.31879
 Alpha  occ. eigenvalues --  -10.29114  -1.23818  -1.21582  -1.15798  -1.15434
 Alpha  occ. eigenvalues --   -1.12571  -1.09385  -0.98130  -0.96349  -0.93173
 Alpha  occ. eigenvalues --   -0.86900  -0.83323  -0.79428  -0.77237  -0.75411
 Alpha  occ. eigenvalues --   -0.74830  -0.73513  -0.72210  -0.70429  -0.68751
 Alpha  occ. eigenvalues --   -0.67566  -0.66254  -0.65130  -0.62421  -0.60819
 Alpha  occ. eigenvalues --   -0.59372  -0.58872  -0.57377  -0.57139  -0.56889
 Alpha  occ. eigenvalues --   -0.56359  -0.55408  -0.53852  -0.52747  -0.52286
 Alpha  occ. eigenvalues --   -0.51648  -0.51415  -0.50974  -0.45586  -0.44171
 Alpha  occ. eigenvalues --   -0.43416  -0.40932  -0.39333  -0.37431  -0.34389
 Alpha virt. eigenvalues --   -0.16853  -0.15385  -0.13533  -0.12405  -0.12116
 Alpha virt. eigenvalues --   -0.11970  -0.10701  -0.09126  -0.08862  -0.08646
 Alpha virt. eigenvalues --   -0.08180  -0.07275  -0.06907  -0.06583  -0.06375

 Mulliken charges:
               1
     1  O   -0.399032
     2  C   -0.103177
     3  N    0.124515
     4  C    0.053039
     5  C    0.126576
     6  O   -0.142019
     7  O   -0.288981
     8  C   -0.503496
     9  C    0.455361
    10  C   -0.320513
    11  N   -0.228432
    12  C    0.132089
    13  N    0.029109
    14  C    0.130725
    15  C   -0.189410
    16  N    0.186031
    17  H    0.139258
    18  H    0.093797
    19  H    0.204837
    20  H    0.072244
    21  H    0.097133
    22  H    0.090622
    23  H    0.120093
    24  H    0.163127
    25  H    0.060261
    26  H    0.099635
    27  H    0.123148
    28  H    0.114407
    29  H    0.258325
    30  H    0.154172
    31  H    0.146558
 Sum of Mulliken charges =   1.00000

 Dipole moment (field-independent basis, Debye):
    X=            -10.7118    Y=              0.5960    Z=             -0.3302  Tot=             10.7335
 Quadrupole moment (field-independent basis, Debye-Ang):
   XX=            -25.1822   YY=            -77.8582   ZZ=            -94.4531
   XY=             22.8046   XZ=             -6.8899   YZ=              3.1594

  Exact polarizability: 155.754  -4.559 138.026   4.312 -10.202 129.476
 Approx polarizability: 198.546 -11.284 219.278   2.484 -12.222 206.885

                      1                      2                      3
                      A                      A                      A
 Frequencies --     24.2940                30.0071                51.1938
 Red. masses --      4.4834                 5.1730                 5.5442
 Frc consts  --      0.0016                 0.0027                 0.0086
 IR Inten    --      2.2794                17.0888                12.7969

                      4                      5                      6
                      A                      A                      A
 Frequencies --     58.1708                66.4143                83.8775
 Red. masses --      4.7788                 4.8823                 4.5343
 Frc consts  --      0.0095                 0.0127                 0.0188
 IR Inten    --     10.6771                 5.3488                 5.7122

                      7                      8                      9
                      A                      A                      A
 Frequencies --    105.0414               130.7555               197.6989
 Red. masses --      7.7114                 4.2922                 4.7915
 Frc consts  --      0.0501                 0.0432                 0.1103
 IR Inten    --      5.7783                 3.1147                 4.0487

                     10                     11                     12
                      A                      A                      A
 Frequencies --    215.3893               242.2484               320.3688
 Red. masses --      2.3475                 5.2114                 3.9792
 Frc consts  --      0.0642                 0.1802                 0.2406
 IR Inten    --     22.5954                15.0183                 4.4454

                     13                     14                     15
                      A                      A                      A
 Frequencies --    328.7142               340.2247               374.0791
 Red. masses --      4.1105                 2.5029                 3.2864
 Frc consts  --      0.2617                 0.1707                 0.2710
 IR Inten    --     11.7842                51.7933                63.9871

                     16                     17                     18
                      A                      A                      A
 Frequencies --    391.7224               450.9158               461.4575
 Red. masses --      1.2603                 2.8588                 1.9515
 Frc consts  --      0.1139                 0.3425                 0.2448
 IR Inten    --      2.5196                34.6793               135.3271

                     19                     20                     21
                      A                      A                      A
 Frequencies --    500.0890               533.3808               558.2057
 Red. masses --      1.5909                 2.7808                 1.4377
 Frc consts  --      0.2344                 0.4661                 0.2639
 IR Inten    --     16.3098                 4.0219                58.9186

                     22                     23                     24
                      A                      A                      A
 Frequencies --    596.2038               636.3768               669.8031
 Red. masses --      3.5664                 3.7471                 1.6266
 Frc consts  --      0.7469                 0.8941                 0.4300
 IR Inten    --      5.4968                 4.9957                40.2970

                     25                     26                     27
                      A                      A                      A
 Frequencies --    682.0143               686.6414               703.5358
 Red. masses --      2.7492                 2.3236                 4.1396
 Frc consts  --      0.7534                 0.6455                 1.2072
 IR Inten    --     41.2926                 5.4893                 1.7096

                     28                     29                     30
                      A                      A                      A
 Frequencies --    740.8339               773.4521               834.0019
 Red. masses --      3.4108                 5.1267                 2.5790
 Frc consts  --      1.1029                 1.8070                 1.0569
 IR Inten    --     18.0177                 3.6115                31.1473

                     31                     32                     33
                      A                      A                      A
 Frequencies --    852.6525               857.6079               875.0277
 Red. masses --      2.8854                 1.3961                 1.5868
 Frc consts  --      1.2360                 0.6050                 0.7158
 IR Inten    --      0.5234                26.5973                 1.8775

                     34                     35                     36
                      A                      A                      A
 Frequencies --    887.6116               930.0420               942.4130
 Red. masses --      2.0227                 5.2732                 2.7119
 Frc consts  --      0.9389                 2.6874                 1.4191
 IR Inten    --     60.8136                13.3906                 9.0045

                     37                     38                     39
                      A                      A                      A
 Frequencies --    953.6313               960.1884               995.7500
 Red. masses --      1.3877                 2.6532                 3.2100
 Frc consts  --      0.7435                 1.4412                 1.8752
 IR Inten    --      5.6199                 1.5633                 4.6229

                     40                     41                     42
                      A                      A                      A
 Frequencies --   1011.8519              1038.7096              1105.9137
 Red. masses --      3.5767                 2.9992                 2.2831
 Frc consts  --      2.1576                 1.9065                 1.6452
 IR Inten    --     15.7819                 8.2201                14.6129

                     43                     44                     45
                      A                      A                      A
 Frequencies --   1114.3876              1129.3609              1136.5241
 Red. masses --      1.7569                 1.4775                 1.5088
 Frc consts  --      1.2855                 1.1103                 1.1482
 IR Inten    --     14.5687                85.0175                20.4020

                     46                     47                     48
                      A                      A                      A
 Frequencies --   1149.5449              1162.5823              1205.6098
 Red. masses --      2.0281                 1.9066                 1.6134
 Frc consts  --      1.5791                 1.5183                 1.3817
 IR Inten    --     18.0315                 5.2600                39.6232

                     49                     50                     51
                      A                      A                      A
 Frequencies --   1237.7206              1264.0548              1267.9490
 Red. masses --      1.4138                 1.8107                 1.7073
 Frc consts  --      1.2761                 1.7046                 1.6172
 IR Inten    --     37.9602               100.5288                17.5184

                     52                     53                     54
                      A                      A                      A
 Frequencies --   1281.3895              1293.5351              1317.3355
 Red. masses --      1.6690                 1.3420                 1.6195
 Frc consts  --      1.6146                 1.3230                 1.6559
 IR Inten    --    264.4107                19.0142                32.1802

                     55                     56                     57
                      A                      A                      A
 Frequencies --   1331.1159              1368.5710              1381.9956
 Red. masses --      1.2805                 1.5008                 1.8322
 Frc consts  --      1.3368                 1.6562                 2.0617
 IR Inten    --     39.8426                12.4266                20.1764

                     58                     59                     60
                      A                      A                      A
 Frequencies --   1390.6157              1400.9568              1412.9872
 Red. masses --      2.3513                 1.3548                 1.4625
 Frc consts  --      2.6790                 1.5666                 1.7204
 IR Inten    --      9.9692                69.0357                32.6573

                     61                     62                     63
                      A                      A                      A
 Frequencies --   1430.0760              1472.1060              1474.4800
 Red. masses --      2.5253                 1.1227                 1.2469
 Frc consts  --      3.0429                 1.4335                 1.5972
 IR Inten    --     29.4322               118.4134               612.8413

                     64                     65                     66
                      A                      A                      A
 Frequencies --   1480.4395              1498.1101              1512.1515
 Red. masses --      1.1663                 3.0905                 1.0741
 Frc consts  --      1.5061                 4.0867                 1.4471
 IR Inten    --      7.4663                21.1752                44.5522

                     67                     68                     69
                      A                      A                      A
 Frequencies --   1570.9765              1598.2512              1631.2683
 Red. masses --      2.3507                 3.9004                 1.1945
 Frc consts  --      3.4181                 5.8701                 1.8728
 IR Inten    --    245.8413                10.5207                10.9690

                     70                     71                     72
                      A                      A                      A
 Frequencies --   1678.9207              1691.3802              1837.7107
 Red. masses --      1.0557                 2.9253                10.4052
 Frc consts  --      1.7532                 4.9306                20.7040
 IR Inten    --     30.3143               187.9053               189.7382

                     73                     74                     75
                      A                      A                      A
 Frequencies --   2585.3663              3046.6399              3051.2146
 Red. masses --      1.0897                 1.0678                 1.0650
 Frc consts  --      4.2914                 5.8395                 5.8415
 IR Inten    --   1059.3868                 0.6280                 8.6517

                     76                     77                     78
                      A                      A                      A
 Frequencies --   3067.0290              3091.9679              3098.6466
 Red. masses --      1.0841                 1.0613                 1.1004
 Frc consts  --      6.0082                 5.9778                 6.2249
 IR Inten    --     10.1565                 0.9763                 2.4915

                     79                     80                     81
                      A                      A                      A
 Frequencies --   3112.8086              3147.6549              3227.2782
 Red. masses --      1.0957                 1.1113                 1.0965
 Frc consts  --      6.2555                 6.4873                 6.7286
 IR Inten    --      0.5223                 0.2073                 3.2955

                     82                     83                     84
                      A                      A                      A
 Frequencies --   3251.7507              3464.1406              3508.2728
 Red. masses --      1.0985                 1.0520                 1.0789
 Frc consts  --      6.8435                 7.4379                 7.8241
 IR Inten    --      1.7953                91.1808               238.6618

                     85                     86                     87
                      A                      A                      A
 Frequencies --   3527.7086              3636.3415              3791.6863
 Red. masses --      1.0944                 1.0817                 1.0663
 Frc consts  --      8.0246                 8.4274                 9.0326
 IR Inten    --     74.0004                66.3697                74.1454

 - Thermochemistry -
 -------------------
 Temperature   298.150 Kelvin.  Pressure   1.00000 Atm.
 Atom     1 has atomic number  8 and mass  15.99491

 Molecular mass:   227.11442 amu.
 Principal axes and moments of inertia in atomic units:
                           1         2         3
     Eigenvalues --  2309.481025448.214376567.80255
           X            0.99162   0.11003  -0.06772
           Y           -0.03096   0.71123   0.70227
           Z            0.12544  -0.69429   0.70868
 This molecule is an asymmetric top.
 Rotational symmetry number  1.
 Warning -- assumption of classical behavior for rotation
           may cause significant error
 Rotational temperatures (Kelvin)      0.03750     0.01590     0.01319
 Rotational constants (GHZ):           0.78145     0.33125     0.27479
 Zero-point vibrational energy     679055.0 (Joules/Mol)
                                  162.29803 (Kcal/Mol)
 Warning -- explicit consideration of  22 degrees of freedom as
           vibrations may cause significant error
 Vibrational temperatures:     34.95    43.17    73.66    83.69    95.56
          (Kelvin)            120.68   151.13   188.13   284.44   309.90
                              348.54   460.94   472.95   489.51   538.22
                              563.60   648.77   663.93   719.52   767.42
                              803.13   857.80   915.60   963.70   981.27
                              987.92  1012.23  1065.89  1112.82  1199.94
                             1226.78  1233.91  1258.97  1277.07  1338.12
                             1355.92  1372.06  1381.50  1432.66  1455.83
                             1494.47  1591.16  1603.35  1624.90  1635.20
                             1653.94  1672.69  1734.60  1780.80  1818.69
                             1824.29  1843.63  1861.11  1895.35  1915.18
                             1969.07  1988.38  2000.78  2015.66  2032.97
                             2057.56  2118.03  2121.45  2130.02  2155.44
                             2175.65  2260.28  2299.52  2347.03  2415.59
                             2433.52  2644.05  3719.76  4383.43  4390.01
                             4412.77  4448.65  4458.26  4478.63  4528.77
                             4643.33  4678.54  4984.12  5047.62  5075.58
                             5231.88  5455.38

 Zero-point correction=                           0.258638 (Hartree/Particle)
 Thermal correction to Energy=                    0.274268
 Thermal correction to Enthalpy=                  0.275212
 Thermal correction to Gibbs Free Energy=         0.213103
 Sum of electronic and zero-point Energies=           -796.499506
 Sum of electronic and thermal Energies=              -796.483877
 Sum of electronic and thermal Enthalpies=            -796.482933
 Sum of electronic and thermal Free Energies=         -796.545042

                     E (Thermal)             CV                S
                      KCal/Mol        Cal/Mol-Kelvin    Cal/Mol-Kelvin
 Total                  172.106             57.821            130.719
 Electronic               0.000              0.000              0.000
 Translational            0.889              2.981             42.163
 Rotational               0.889              2.981             32.780
 Vibrational            170.328             51.859             55.776
 Vibration     1          0.593              1.985              6.248
 Vibration     2          0.594              1.984              5.829
 Vibration     3          0.595              1.977              4.771
 Vibration     4          0.596              1.974              4.518
 Vibration     5          0.598              1.970              4.257
 Vibration     6          0.601              1.960              3.798
 Vibration     7          0.605              1.945              3.359
 Vibration     8          0.612              1.923              2.935
 Vibration     9          0.637              1.843              2.154
 Vibration    10          0.645              1.818              1.998
 Vibration    11          0.658              1.776              1.786
 Vibration    12          0.706              1.635              1.308
 Vibration    13          0.712              1.618              1.266
 Vibration    14          0.720              1.595              1.211
 Vibration    15          0.745              1.525              1.063
 Vibration    16          0.759              1.488              0.994
 Vibration    17          0.810              1.359              0.793
 Vibration    18          0.819              1.336              0.762
 Vibration    19          0.856              1.250              0.658
 Vibration    20          0.888              1.176              0.580
 Vibration    21          0.914              1.122              0.527
 Vibration    22          0.954              1.040              0.456

 Optimization completed.
    -- Stationary point found.
 Normal termination of Gaussian 09 at Thu Jul 29 12:19:49 2021.
