 Gaussian 09, Revision D.01,
 Gaussian 09:  ES64L-G09RevD.01 24-Apr-2013

 ----------------------------------------------------------------------
 # B3LYP/6-311++G(2df,2pd) guess=read geom=checkpoint opt=readfc freq=n
 oraman nosymm integral(ultrafinegrid)
 ----------------------------------------------------------------------

 ------------------------------------------------------------
 Candidate Structure: Conf:628 OPT and FREQ calc in gas phase
 ------------------------------------------------------------
 Structure from the checkpoint file:  "conf-628.chk"
 Charge =  1 Multiplicity = 1

 SCF Done:  E(RB3LYP) =  -796.761969194     A.U. after   13 cycles
 SCF Done:  E(RB3LYP) =  -796.762738235     A.U. after   12 cycles
 SCF Done:  E(RB3LYP) =  -796.762747854     A.U. after   11 cycles
 SCF Done:  E(RB3LYP) =  -796.762748738     A.U. after    9 cycles
 SCF Done:  E(RB3LYP) =  -796.762748748     A.U. after    7 cycles
 Optimization completed.
    -- Stationary point found.
 Normal termination of Gaussian 09 at Thu Jul 29 04:21:02 2021.

 ----------------------------------------------------------------------
 #N Geom=AllCheck Guess=TCheck SCRF=Check GenChk RB3LYP/6-311++G(2df,2p
 d) Freq
 ----------------------------------------------------------------------

 Structure from the checkpoint file:  "conf-628.chk"
 ------------------------------------------------------------
 Candidate Structure: Conf:628 OPT and FREQ calc in gas phase
 ------------------------------------------------------------
 Charge =  1 Multiplicity = 1

                          Input orientation:
 ---------------------------------------------------------------------
 Center     Atomic      Atomic             Coordinates (Angstroms)
 Number     Number       Type             X           Y           Z
 ---------------------------------------------------------------------
      1          8           0       -1.437402   -0.097355   -0.874674
      2          6           0       -1.542126   -0.192206    0.363535
      3          7           0       -0.490840   -0.327610    1.161194
      4          6           0        0.886879   -0.413403    0.680264
      5          6           0        1.673139   -1.031180    1.828659
      6          8           0        2.953869   -1.257892    1.511498
      7          8           0        1.199378   -1.268734    2.909629
      8          6           0        1.459719    0.974872    0.236637
      9          6           0        2.392462    0.938377   -0.923937
     10          6           0        2.209018    1.357266   -2.216809
     11          7           0        3.340749    1.157495   -2.962838
     12          6           0        4.209830    0.622926   -2.141924
     13          7           0        3.691003    0.470420   -0.891219
     14          6           0       -2.920931   -0.115139    1.013782
     15          6           0       -4.004155   -0.734593    0.129035
     16          7           0       -3.951297   -0.114415   -1.246752
     17          1           0       -0.608907   -0.486955    2.154840
     18          1           0        0.919291   -1.085902   -0.177396
     19          1           0        3.393832   -1.646093    2.284619
     20          1           0        0.608744    1.582421   -0.064062
     21          1           0        1.905853    1.471692    1.101815
     22          1           0        1.323810    1.800910   -2.641841
     23          1           0        5.216510    0.329275   -2.388760
     24          1           0        4.148418    0.048670   -0.101454
     25          1           0       -2.935627   -0.615758    1.980897
     26          1           0       -3.142646    0.938616    1.205562
     27          1           0       -3.831487   -1.799784   -0.009242
     28          1           0       -4.996361   -0.595417    0.549394
     29          1           0       -4.363965    0.816848   -1.267673
     30          1           0       -2.888236   -0.042292   -1.432725
     31          1           0       -4.418507   -0.684778   -1.948658
 ---------------------------------------------------------------------

 SCF Done:  E(RB3LYP) =  -796.762748748     A.U. after    1 cycles

 Alpha  occ. eigenvalues --  -19.31107 -19.26760 -19.25531 -14.58339 -14.50241
 Alpha  occ. eigenvalues --  -14.45311 -14.37267 -10.44638 -10.44564 -10.40825
 Alpha  occ. eigenvalues --  -10.36820 -10.36301 -10.31000 -10.30504 -10.29502
 Alpha  occ. eigenvalues --  -10.26716  -1.25459  -1.21872  -1.16727  -1.15724
 Alpha  occ. eigenvalues --   -1.10371  -1.09414  -0.96724  -0.95887  -0.92630
 Alpha  occ. eigenvalues --   -0.86361  -0.83537  -0.79211  -0.77776  -0.75607
 Alpha  occ. eigenvalues --   -0.74566  -0.73197  -0.70283  -0.68695  -0.68039
 Alpha  occ. eigenvalues --   -0.66509  -0.64987  -0.63551  -0.62803  -0.61923
 Alpha  occ. eigenvalues --   -0.61044  -0.59822  -0.58762  -0.57020  -0.56635
 Alpha  occ. eigenvalues --   -0.55836  -0.55038  -0.53445  -0.52535  -0.51256
 Alpha  occ. eigenvalues --   -0.50331  -0.50195  -0.49319  -0.46853  -0.44331
 Alpha  occ. eigenvalues --   -0.43122  -0.42636  -0.37126  -0.35342  -0.31923
 Alpha virt. eigenvalues --   -0.17182  -0.15531  -0.13799  -0.12866  -0.12641
 Alpha virt. eigenvalues --   -0.11463  -0.10502  -0.09709  -0.08916  -0.07893
 Alpha virt. eigenvalues --   -0.07589  -0.07300  -0.06913  -0.06565  -0.06132

 Mulliken charges:
               1
     1  O   -0.405286
     2  C   -0.125510
     3  N    0.155744
     4  C   -0.125179
     5  C    0.343726
     6  O   -0.235849
     7  O   -0.372420
     8  C    0.356154
     9  C   -0.082681
    10  C   -0.306118
    11  N   -0.274644
    12  C    0.120474
    13  N    0.011941
    14  C   -0.015985
    15  C   -0.199400
    16  N    0.148740
    17  H    0.170176
    18  H    0.111048
    19  H    0.275511
    20  H    0.090717
    21  H    0.074596
    22  H    0.060451
    23  H    0.116593
    24  H    0.149063
    25  H    0.059223
    26  H    0.092533
    27  H    0.100840
    28  H    0.127705
    29  H    0.146029
    30  H    0.273765
    31  H    0.158043
 Sum of Mulliken charges =   1.00000

 Dipole moment (field-independent basis, Debye):
    X=            -12.0978    Y=             -2.3703    Z=              2.6238  Tot=             12.6039
 Quadrupole moment (field-independent basis, Debye-Ang):
   XX=             -5.0607   YY=            -89.1887   ZZ=            -96.7647
   XY=             -5.6097   XZ=             24.7212   YZ=              3.2836

  Exact polarizability: 176.775  -3.304 103.982  -7.198 -16.123 151.121
 Approx polarizability: 225.401 -13.320 160.879  -4.933 -18.872 237.210

                      1                      2                      3
                      A                      A                      A
 Frequencies --     26.1183                33.0131                50.3467
 Red. masses --      4.8509                 3.9882                 4.6987
 Frc consts  --      0.0019                 0.0026                 0.0070
 IR Inten    --      3.4916                 9.3715                 2.7959

                      4                      5                      6
                      A                      A                      A
 Frequencies --     59.3596                72.1663                96.0762
 Red. masses --      5.7986                 5.2616                 5.0098
 Frc consts  --      0.0120                 0.0161                 0.0272
 IR Inten    --      4.9869                 4.5408                 7.1753

                      7                      8                      9
                      A                      A                      A
 Frequencies --    110.9914               132.7203               187.0950
 Red. masses --      5.1051                 5.5114                 4.9050
 Frc consts  --      0.0371                 0.0572                 0.1012
 IR Inten    --      2.4049                 0.5819                 7.2370

                     10                     11                     12
                      A                      A                      A
 Frequencies --    204.7589               262.3901               288.0175
 Red. masses --      2.1607                 5.3673                 4.0586
 Frc consts  --      0.0534                 0.2177                 0.1984
 IR Inten    --     23.0053                54.7951                 3.8707

                     13                     14                     15
                      A                      A                      A
 Frequencies --    321.0577               345.2376               387.9893
 Red. masses --      2.0996                 6.0971                 4.0225
 Frc consts  --      0.1275                 0.4282                 0.3568
 IR Inten    --      9.8257                 1.1782                18.3439

                     16                     17                     18
                      A                      A                      A
 Frequencies --    394.0724               405.2704               451.5053
 Red. masses --      2.9897                 1.5897                 2.0807
 Frc consts  --      0.2735                 0.1538                 0.2499
 IR Inten    --    132.3859                14.1805                 4.0288

                     19                     20                     21
                      A                      A                      A
 Frequencies --    543.0033               550.0702               590.1013
 Red. masses --      2.7055                 1.5102                 2.0392
 Frc consts  --      0.4700                 0.2692                 0.4184
 IR Inten    --     58.7650                57.4666                18.1434

                     22                     23                     24
                      A                      A                      A
 Frequencies --    605.3509               641.8140               664.1564
 Red. masses --      2.2947                 3.1567                 2.0603
 Frc consts  --      0.4954                 0.7661                 0.5355
 IR Inten    --     28.3438                69.0181                60.7977

                     25                     26                     27
                      A                      A                      A
 Frequencies --    673.5851               679.7790               733.0763
 Red. masses --      1.2531                 2.7738                 3.1260
 Frc consts  --      0.3350                 0.7552                 0.9898
 IR Inten    --     55.2143                 8.9039                12.0154

                     28                     29                     30
                      A                      A                      A
 Frequencies --    739.3872               770.0844               818.5879
 Red. masses --      3.2934                 4.1141                 2.6178
 Frc consts  --      1.0608                 1.4375                 1.0335
 IR Inten    --     25.8729                 7.8350                 6.1753

                     31                     32                     33
                      A                      A                      A
 Frequencies --    843.9904               849.8055               865.3996
 Red. masses --      1.4097                 2.6424                 1.4617
 Frc consts  --      0.5916                 1.1243                 0.6450
 IR Inten    --     22.3920                33.4612                11.7644

                     34                     35                     36
                      A                      A                      A
 Frequencies --    885.1537               931.9964               946.0557
 Red. masses --      2.0408                 5.7258                 2.3588
 Frc consts  --      0.9421                 2.9303                 1.2439
 IR Inten    --     88.1845                11.5480                 2.8765

                     37                     38                     39
                      A                      A                      A
 Frequencies --    952.5299               992.9832              1002.4191
 Red. masses --      1.4179                 4.2714                 3.3026
 Frc consts  --      0.7580                 2.4814                 1.9553
 IR Inten    --      3.4183                 1.4805                 2.7586

                     40                     41                     42
                      A                      A                      A
 Frequencies --   1020.2461              1028.5083              1091.6762
 Red. masses --      3.7501                 3.4542                 3.3678
 Frc consts  --      2.2998                 2.1528                 2.3647
 IR Inten    --     31.8851                13.4500                15.1289

                     43                     44                     45
                      A                      A                      A
 Frequencies --   1110.1841              1127.9966              1137.4457
 Red. masses --      1.6626                 1.4026                 1.5254
 Frc consts  --      1.2073                 1.0515                 1.1628
 IR Inten    --     30.8066               151.7178                24.2384

                     46                     47                     48
                      A                      A                      A
 Frequencies --   1149.7903              1186.4728              1191.5520
 Red. masses --      2.0467                 2.4256                 1.3210
 Frc consts  --      1.5942                 2.0118                 1.1050
 IR Inten    --     19.7778               137.0960                48.9500

                     49                     50                     51
                      A                      A                      A
 Frequencies --   1252.7238              1265.9452              1278.9208
 Red. masses --      1.5685                 1.9956                 1.4337
 Frc consts  --      1.4502                 1.8843                 1.3816
 IR Inten    --      3.9692                 9.1348                 1.6039

                     52                     53                     54
                      A                      A                      A
 Frequencies --   1292.3816              1309.1127              1326.1569
 Red. masses --      1.3062                 1.3178                 1.2908
 Frc consts  --      1.2854                 1.3306                 1.3376
 IR Inten    --     14.7642                 0.6868                31.6589

                     55                     56                     57
                      A                      A                      A
 Frequencies --   1328.1197              1358.1245              1381.4515
 Red. masses --      1.3043                 1.4776                 1.6544
 Frc consts  --      1.3556                 1.6058                 1.8602
 IR Inten    --     47.0479                40.6725                 7.9464

                     58                     59                     60
                      A                      A                      A
 Frequencies --   1389.9915              1399.0508              1425.0839
 Red. masses --      3.2346                 1.2460                 2.1792
 Frc consts  --      3.6821                 1.4369                 2.6075
 IR Inten    --     29.0626                98.8122                78.6628

                     61                     62                     63
                      A                      A                      A
 Frequencies --   1428.4313              1461.1973              1468.9789
 Red. masses --      2.7184                 1.3058                 1.0818
 Frc consts  --      3.2680                 1.6426                 1.3754
 IR Inten    --     34.5513               536.1201                21.5576

                     64                     65                     66
                      A                      A                      A
 Frequencies --   1478.7283              1497.3535              1511.9499
 Red. masses --      1.1356                 3.2589                 1.0751
 Frc consts  --      1.4630                 4.3050                 1.4481
 IR Inten    --     11.0802                24.5263                27.6412

                     67                     68                     69
                      A                      A                      A
 Frequencies --   1565.8504              1601.6394              1630.9966
 Red. masses --      2.6399                 4.1909                 1.1993
 Frc consts  --      3.8136                 6.3342                 1.8796
 IR Inten    --    231.7738                 3.5784                31.2911

                     70                     71                     72
                      A                      A                      A
 Frequencies --   1678.6836              1693.5927              1804.4751
 Red. masses --      1.1983                 2.2531                 9.6758
 Frc consts  --      1.9895                 3.8075                18.5626
 IR Inten    --    100.8622               105.7936               325.3867

                     73                     74                     75
                      A                      A                      A
 Frequencies --   2529.0139              3034.6565              3041.0335
 Red. masses --      1.0913                 1.0697                 1.0688
 Frc consts  --      4.1123                 5.8042                 5.8237
 IR Inten    --   1228.9740                17.6054                 0.6624

                     76                     77                     78
                      A                      A                      A
 Frequencies --   3077.6831              3090.9236              3107.5815
 Red. masses --      1.0837                 1.0623                 1.0934
 Frc consts  --      6.0481                 5.9795                 6.2211
 IR Inten    --      3.5044                 1.6326                 0.3919

                     79                     80                     81
                      A                      A                      A
 Frequencies --   3108.6500              3145.4166              3236.6328
 Red. masses --      1.0938                 1.1107                 1.0962
 Frc consts  --      6.2280                 6.4745                 6.7659
 IR Inten    --      4.3769                 0.3337                 5.1603

                     82                     83                     84
                      A                      A                      A
 Frequencies --   3249.6909              3463.9483              3527.7878
 Red. masses --      1.0983                 1.0519                 1.0944
 Frc consts  --      6.8335                 7.4367                 8.0251
 IR Inten    --      1.2051                82.3303                75.5070

                     85                     86                     87
                      A                      A                      A
 Frequencies --   3537.0183              3655.8692              3727.2584
 Red. masses --      1.0782                 1.0810                 1.0645
 Frc consts  --      7.9476                 8.5128                 8.7128
 IR Inten    --    137.2787                77.5472               137.9548

 - Thermochemistry -
 -------------------
 Temperature   298.150 Kelvin.  Pressure   1.00000 Atm.
 Atom     1 has atomic number  8 and mass  15.99491

 Molecular mass:   227.11442 amu.
 Principal axes and moments of inertia in atomic units:
                           1         2         3
     Eigenvalues --  2475.961126064.957298196.74376
           X            0.97528   0.21641  -0.04474
           Y            0.12762  -0.38626   0.91352
           Z           -0.18041   0.89664   0.40433
 This molecule is an asymmetric top.
 Rotational symmetry number  1.
 Warning -- assumption of classical behavior for rotation
           may cause significant error
 Rotational temperatures (Kelvin)      0.03498     0.01428     0.01057
 Rotational constants (GHZ):           0.72891     0.29757     0.22018
 Zero-point vibrational energy     678961.5 (Joules/Mol)
                                  162.27568 (Kcal/Mol)
 Warning -- explicit consideration of  22 degrees of freedom as
           vibrations may cause significant error
 Vibrational temperatures:     37.58    47.50    72.44    85.41   103.83
          (Kelvin)            138.23   159.69   190.95   269.19   294.60
                              377.52   414.39   461.93   496.72   558.23
                              566.98   583.09   649.61   781.26   791.43
                              849.02   870.96   923.43   955.57   969.14
                              978.05  1054.73  1063.81  1107.98  1177.76
                             1214.31  1222.68  1245.12  1273.54  1340.93
                             1361.16  1370.48  1428.68  1442.26  1467.90
                             1479.79  1570.68  1597.31  1622.93  1636.53
                             1654.29  1707.07  1714.38  1802.39  1821.41
                             1840.08  1859.45  1883.52  1908.04  1910.87
                             1954.04  1987.60  1999.89  2012.92  2050.38
                             2055.19  2102.33  2113.53  2127.56  2154.35
                             2175.36  2252.91  2304.40  2346.64  2415.25
                             2436.70  2596.23  3638.68  4366.19  4375.36
                             4428.09  4447.14  4471.11  4472.65  4525.55
                             4656.79  4675.57  4983.84  5075.69  5088.97
                             5259.97  5362.69

 Zero-point correction=                           0.258603 (Hartree/Particle)
 Thermal correction to Energy=                    0.274187
 Thermal correction to Enthalpy=                  0.275131
 Thermal correction to Gibbs Free Energy=         0.213192
 Sum of electronic and zero-point Energies=           -796.504146
 Sum of electronic and thermal Energies=              -796.488562
 Sum of electronic and thermal Enthalpies=            -796.487618
 Sum of electronic and thermal Free Energies=         -796.549556

                     E (Thermal)             CV                S
                      KCal/Mol        Cal/Mol-Kelvin    Cal/Mol-Kelvin
 Total                  172.055             57.720            130.361
 Electronic               0.000              0.000              0.000
 Translational            0.889              2.981             42.163
 Rotational               0.889              2.981             33.176
 Vibrational            170.278             51.758             55.022
 Vibration     1          0.593              1.985              6.104
 Vibration     2          0.594              1.983              5.640
 Vibration     3          0.595              1.977              4.804
 Vibration     4          0.597              1.974              4.478
 Vibration     5          0.598              1.967              4.093
 Vibration     6          0.603              1.952              3.532
 Vibration     7          0.607              1.940              3.252
 Vibration     8          0.613              1.921              2.906
 Vibration     9          0.632              1.858              2.256
 Vibration    10          0.640              1.833              2.090
 Vibration    11          0.670              1.742              1.646
 Vibration    12          0.685              1.696              1.486
 Vibration    13          0.707              1.633              1.305
 Vibration    14          0.724              1.585              1.188
 Vibration    15          0.756              1.496              1.008
 Vibration    16          0.761              1.483              0.985
 Vibration    17          0.770              1.459              0.943
 Vibration    18          0.810              1.358              0.791
 Vibration    19          0.898              1.155              0.559
 Vibration    20          0.905              1.140              0.544
 Vibration    21          0.947              1.053              0.467
 Vibration    22          0.964              1.020              0.441

 Optimization completed.
    -- Stationary point found.
 Normal termination of Gaussian 09 at Thu Jul 29 11:08:29 2021.
