 Gaussian 09, Revision D.01,
 Gaussian 09:  ES64L-G09RevD.01 24-Apr-2013

 ----------------------------------------------------------------------
 # B3LYP/6-311++G(2df,2pd) guess=read geom=checkpoint opt=readfc freq=n
 oraman nosymm integral(ultrafinegrid)
 ----------------------------------------------------------------------

 ------------------------------------------------------------
 Candidate Structure: Conf:301 OPT and FREQ calc in gas phase
 ------------------------------------------------------------
 Structure from the checkpoint file:  "conf-301.chk"
 Charge =  1 Multiplicity = 1

 SCF Done:  E(RB3LYP) =  -796.775293682     A.U. after   14 cycles
 SCF Done:  E(RB3LYP) =  -796.776078365     A.U. after   12 cycles
 SCF Done:  E(RB3LYP) =  -796.776085955     A.U. after   10 cycles
 SCF Done:  E(RB3LYP) =  -796.776086179     A.U. after    9 cycles
 Optimization completed.
    -- Stationary point found.
 Normal termination of Gaussian 09 at Thu Jul 29 04:21:29 2021.

 ----------------------------------------------------------------------
 #N Geom=AllCheck Guess=TCheck SCRF=Check GenChk RB3LYP/6-311++G(2df,2p
 d) Freq
 ----------------------------------------------------------------------

 Structure from the checkpoint file:  "conf-301.chk"
 ------------------------------------------------------------
 Candidate Structure: Conf:301 OPT and FREQ calc in gas phase
 ------------------------------------------------------------
 Charge =  1 Multiplicity = 1

                          Input orientation:
 ---------------------------------------------------------------------
 Center     Atomic      Atomic             Coordinates (Angstroms)
 Number     Number       Type             X           Y           Z
 ---------------------------------------------------------------------
      1          8           0       -0.023374   -0.204219   -1.698875
      2          6           0        0.419522    0.727312   -1.020951
      3          7           0       -0.354257    1.489374   -0.232075
      4          6           0       -1.718553    1.140902    0.112607
      5          6           0       -2.471133    2.429841    0.408412
      6          8           0       -3.793669    2.234062    0.410884
      7          8           0       -1.928877    3.474683    0.651678
      8          6           0       -1.777618    0.210869    1.380544
      9          6           0       -0.873927   -0.964666    1.259391
     10          6           0        0.473328   -1.075205    1.485311
     11          7           0        0.955821   -2.269839    1.000677
     12          6           0       -0.097381   -2.902027    0.522366
     13          7           0       -1.220037   -2.154275    0.656778
     14          6           0        1.916594    1.036250   -0.984585
     15          6           0        2.768124    0.006633   -1.727836
     16          7           0        2.293790   -1.400635   -1.470304
     17          1           0        0.023710    2.307140    0.226119
     18          1           0       -2.175866    0.632888   -0.733234
     19          1           0       -4.234436    3.066550    0.643021
     20          1           0       -1.479347    0.797488    2.250111
     21          1           0       -2.814770   -0.086144    1.535758
     22          1           0        1.117289   -0.363814    1.974570
     23          1           0       -0.103214   -3.890348    0.093946
     24          1           0       -2.145371   -2.427404    0.367157
     25          1           0        2.232397    1.110757    0.056459
     26          1           0        2.102558    2.013845   -1.433734
     27          1           0        2.701192    0.146808   -2.804056
     28          1           0        3.811018    0.081825   -1.432076
     29          1           0        2.844795   -2.084530   -1.984486
     30          1           0        1.302425   -1.398263   -1.785452
     31          1           0        2.249460   -1.686272   -0.472451
 ---------------------------------------------------------------------

 SCF Done:  E(RB3LYP) =  -796.776086179     A.U. after    1 cycles

 Alpha  occ. eigenvalues --  -19.29945 -19.24735 -19.24409 -14.56555 -14.50300
 Alpha  occ. eigenvalues --  -14.48618 -14.43562 -10.43503 -10.43112 -10.39035
 Alpha  occ. eigenvalues --  -10.36634 -10.36026 -10.34568 -10.34001 -10.32556
 Alpha  occ. eigenvalues --  -10.31568  -1.24258  -1.20033  -1.15608  -1.15601
 Alpha  occ. eigenvalues --   -1.14093  -1.08159  -1.01211  -0.95336  -0.93136
 Alpha  occ. eigenvalues --   -0.88599  -0.83019  -0.80968  -0.76176  -0.75278
 Alpha  occ. eigenvalues --   -0.73954  -0.73057  -0.72820  -0.71981  -0.68308
 Alpha  occ. eigenvalues --   -0.66550  -0.64498  -0.63551  -0.62267  -0.61553
 Alpha  occ. eigenvalues --   -0.60691  -0.59539  -0.58874  -0.57577  -0.56525
 Alpha  occ. eigenvalues --   -0.55807  -0.55123  -0.54698  -0.54514  -0.53786
 Alpha  occ. eigenvalues --   -0.53140  -0.51340  -0.50599  -0.45681  -0.43433
 Alpha  occ. eigenvalues --   -0.42570  -0.41899  -0.41481  -0.41164  -0.36655
 Alpha virt. eigenvalues --   -0.14841  -0.14462  -0.13898  -0.11965  -0.11796
 Alpha virt. eigenvalues --   -0.11205  -0.10188  -0.09988  -0.09681  -0.08836
 Alpha virt. eigenvalues --   -0.08214  -0.07761  -0.07384  -0.06709  -0.05929

 Mulliken charges:
               1
     1  O   -0.382417
     2  C   -0.142953
     3  N    0.178745
     4  C   -0.155054
     5  C    0.270181
     6  O   -0.165339
     7  O   -0.339983
     8  C   -0.416976
     9  C    0.483428
    10  C   -0.331288
    11  N   -0.257116
    12  C    0.059749
    13  N    0.063103
    14  C    0.174642
    15  C   -0.298734
    16  N    0.228905
    17  H    0.160997
    18  H    0.116320
    19  H    0.254004
    20  H    0.099374
    21  H    0.089155
    22  H    0.108067
    23  H    0.126176
    24  H    0.155095
    25  H    0.096930
    26  H    0.088699
    27  H    0.096266
    28  H    0.104062
    29  H    0.181298
    30  H    0.193630
    31  H    0.161035
 Sum of Mulliken charges =   1.00000

 Dipole moment (field-independent basis, Debye):
    X=              2.9314    Y=             -2.2620    Z=             -3.3247  Tot=              4.9762
 Quadrupole moment (field-independent basis, Debye-Ang):
   XX=            -49.3139   YY=            -75.1484   ZZ=            -84.4922
   XY=             -5.4366   XZ=            -20.2974   YZ=              7.8182

  Exact polarizability: 153.179 -14.609 151.559 -14.060   8.824 111.348
 Approx polarizability: 225.212  -3.327 225.852  -1.439  27.450 174.964

                      1                      2                      3
                      A                      A                      A
 Frequencies --     56.0166                67.6332                95.2941
 Red. masses --     10.8785                 4.7150                 4.7260
 Frc consts  --      0.0201                 0.0127                 0.0253
 IR Inten    --      1.5949                 0.5276                 6.7435

                      4                      5                      6
                      A                      A                      A
 Frequencies --    100.7907               108.9212               113.4266
 Red. masses --      3.9459                 4.2433                 4.0951
 Frc consts  --      0.0236                 0.0297                 0.0310
 IR Inten    --     13.1039                 3.4229                10.7527

                      7                      8                      9
                      A                      A                      A
 Frequencies --    137.2937               152.3438               163.0910
 Red. masses --      3.6919                 4.1387                 5.7190
 Frc consts  --      0.0410                 0.0566                 0.0896
 IR Inten    --     11.3339                 6.0368                 7.5247

                     10                     11                     12
                      A                      A                      A
 Frequencies --    191.0436               255.9289               306.3932
 Red. masses --      2.4283                 4.3259                 5.4921
 Frc consts  --      0.0522                 0.1669                 0.3038
 IR Inten    --     26.8337                48.1148                 0.8112

                     13                     14                     15
                      A                      A                      A
 Frequencies --    312.9058               341.2341               349.1313
 Red. masses --      3.9013                 2.7503                 2.4221
 Frc consts  --      0.2251                 0.1887                 0.1740
 IR Inten    --      1.6004                12.2809                26.1674

                     16                     17                     18
                      A                      A                      A
 Frequencies --    386.3358               415.9876               443.1652
 Red. masses --      1.7886                 2.9741                 2.2892
 Frc consts  --      0.1573                 0.3032                 0.2649
 IR Inten    --     18.4460                 6.4319                 2.5071

                     19                     20                     21
                      A                      A                      A
 Frequencies --    546.3419               550.1486               596.7445
 Red. masses --      2.2052                 3.0263                 1.5717
 Frc consts  --      0.3878                 0.5397                 0.3298
 IR Inten    --     41.7111                23.6903               154.2005

                     22                     23                     24
                      A                      A                      A
 Frequencies --    609.8266               623.0220               636.3859
 Red. masses --      1.3030                 1.5145                 4.0169
 Frc consts  --      0.2855                 0.3464                 0.9585
 IR Inten    --      4.1584                11.1318                77.1085

                     25                     26                     27
                      A                      A                      A
 Frequencies --    674.2405               689.0361               692.2269
 Red. masses --      2.5967                 2.8423                 3.0605
 Frc consts  --      0.6955                 0.7951                 0.8641
 IR Inten    --     74.7331                 8.4827                 1.3917

                     28                     29                     30
                      A                      A                      A
 Frequencies --    723.7177               770.5667               842.9117
 Red. masses --      3.4659                 4.3476                 1.5676
 Frc consts  --      1.0696                 1.5210                 0.6562
 IR Inten    --      1.7594                12.9933                11.4409

                     31                     32                     33
                      A                      A                      A
 Frequencies --    845.7322               847.2520               863.7301
 Red. masses --      1.8674                 1.8552                 2.0652
 Frc consts  --      0.7870                 0.7846                 0.9078
 IR Inten    --     35.1082                 7.3614                21.2202

                     34                     35                     36
                      A                      A                      A
 Frequencies --    878.8551               917.3123               939.9810
 Red. masses --      1.9640                 2.6522                 5.6636
 Frc consts  --      0.8938                 1.3149                 2.9484
 IR Inten    --      6.4032                14.1781                11.1045

                     37                     38                     39
                      A                      A                      A
 Frequencies --    959.1752               972.6124              1002.3527
 Red. masses --      1.6087                 3.0356                 3.1941
 Frc consts  --      0.8720                 1.6919                 1.8908
 IR Inten    --      8.2450                 5.5959                 8.8978

                     40                     41                     42
                      A                      A                      A
 Frequencies --   1027.9680              1040.0291              1091.8667
 Red. masses --      3.7810                 3.0562                 2.3028
 Frc consts  --      2.3541                 1.9477                 1.6175
 IR Inten    --      2.3381                17.1171                 8.7887

                     43                     44                     45
                      A                      A                      A
 Frequencies --   1120.1623              1129.4115              1131.5673
 Red. masses --      1.4898                 1.6530                 1.7776
 Frc consts  --      1.1014                 1.2423                 1.3411
 IR Inten    --     95.5778                18.7519                37.2575

                     46                     47                     48
                      A                      A                      A
 Frequencies --   1142.1708              1166.2418              1204.3325
 Red. masses --      1.7700                 2.0706                 1.7520
 Frc consts  --      1.3604                 1.6593                 1.4972
 IR Inten    --      3.1550               217.6371                 4.9184

                     49                     50                     51
                      A                      A                      A
 Frequencies --   1251.5770              1257.7648              1279.0874
 Red. masses --      1.6427                 1.6565                 1.5804
 Frc consts  --      1.5161                 1.5440                 1.5234
 IR Inten    --      1.7365                26.0491                 0.4431

                     52                     53                     54
                      A                      A                      A
 Frequencies --   1284.6214              1288.7354              1333.2243
 Red. masses --      1.4457                 1.4586                 1.3364
 Frc consts  --      1.4057                 1.4273                 1.3996
 IR Inten    --     14.3519                 1.3160                24.4457

                     55                     56                     57
                      A                      A                      A
 Frequencies --   1342.0817              1352.2850              1384.5328
 Red. masses --      1.4292                 1.2684                 1.6421
 Frc consts  --      1.5167                 1.3666                 1.8546
 IR Inten    --     18.4933                 6.8706                70.7342

                     58                     59                     60
                      A                      A                      A
 Frequencies --   1390.2105              1414.2691              1426.2643
 Red. masses --      3.0122                 2.1774                 1.3280
 Frc consts  --      3.4300                 2.5659                 1.5916
 IR Inten    --      6.3897               120.8355                 7.7078

                     61                     62                     63
                      A                      A                      A
 Frequencies --   1432.0381              1469.1480              1479.3707
 Red. masses --      2.6161                 1.1041                 1.2374
 Frc consts  --      3.1609                 1.4040                 1.5956
 IR Inten    --     23.0739                46.9301               153.9575

                     64                     65                     66
                      A                      A                      A
 Frequencies --   1489.3673              1500.6064              1509.2490
 Red. masses --      1.1280                 2.8199                 1.0854
 Frc consts  --      1.4743                 3.7412                 1.4567
 IR Inten    --     18.5079                36.5701                 9.6065

                     67                     68                     69
                      A                      A                      A
 Frequencies --   1556.9267              1606.9440              1634.4079
 Red. masses --      2.2110                 4.0072                 1.1585
 Frc consts  --      3.1577                 6.0966                 1.8233
 IR Inten    --    212.9900                 7.0528               129.1850

                     70                     71                     72
                      A                      A                      A
 Frequencies --   1685.9341              1702.2019              1814.8066
 Red. masses --      1.1766                 2.9532                10.1892
 Frc consts  --      1.9704                 5.0416                19.7720
 IR Inten    --    170.2651                82.4289               283.6550

                     73                     74                     75
                      A                      A                      A
 Frequencies --   3057.3443              3058.9067              3088.9217
 Red. masses --      1.0611                 1.0605                 1.0840
 Frc consts  --      5.8440                 5.8465                 6.0938
 IR Inten    --      2.4959                 4.8877                 5.6318

                     76                     77                     78
                      A                      A                      A
 Frequencies --   3097.3133              3100.8444              3117.2575
 Red. masses --      1.0777                 1.0999                 1.0897
 Frc consts  --      6.0914                 6.2309                 6.2391
 IR Inten    --     14.7442                 1.2222                 4.2250

                     79                     80                     81
                      A                      A                      A
 Frequencies --   3136.3216              3149.8642              3163.6694
 Red. masses --      1.0914                 1.0955                 1.0661
 Frc consts  --      6.3251                 6.4037                 6.2870
 IR Inten    --    182.4900                88.7852               404.9923

                     82                     83                     84
                      A                      A                      A
 Frequencies --   3241.3807              3252.7802              3508.1098
 Red. masses --      1.0964                 1.0990                 1.0787
 Frc consts  --      6.7870                 6.8510                 7.8217
 IR Inten    --      2.2706                 3.7152               107.5071

                     85                     86                     87
                      A                      A                      A
 Frequencies --   3576.5017              3634.2394              3733.5653
 Red. masses --      1.0778                 1.0819                 1.0645
 Frc consts  --      8.1228                 8.4190                 8.7431
 IR Inten    --     92.7056                87.4316               142.8136

 - Thermochemistry -
 -------------------
 Temperature   298.150 Kelvin.  Pressure   1.00000 Atm.
 Atom     1 has atomic number  8 and mass  15.99491

 Molecular mass:   227.11442 amu.
 Principal axes and moments of inertia in atomic units:
                           1         2         3
     Eigenvalues --  2263.264744470.273945939.38529
           X            0.73079   0.47356   0.49161
           Y           -0.65340   0.69369   0.30308
           Z           -0.19750  -0.54271   0.81637
 This molecule is an asymmetric top.
 Rotational symmetry number  1.
 Warning -- assumption of classical behavior for rotation
           may cause significant error
 Rotational temperatures (Kelvin)      0.03827     0.01938     0.01458
 Rotational constants (GHZ):           0.79741     0.40372     0.30386
 Zero-point vibrational energy     682084.0 (Joules/Mol)
                                  163.02198 (Kcal/Mol)
 Warning -- explicit consideration of  22 degrees of freedom as
           vibrations may cause significant error
 Vibrational temperatures:     80.60    97.31   137.11   145.02   156.71
          (Kelvin)            163.20   197.53   219.19   234.65   274.87
                              368.22   440.83   450.20   490.96   502.32
                              555.85   598.51   637.62   786.06   791.54
                              858.58   877.40   896.39   915.62   970.08
                              991.37   995.96  1041.27  1108.67  1212.76
                             1216.82  1219.01  1242.71  1264.47  1319.81
                             1352.42  1380.04  1399.37  1442.16  1479.01
                             1496.37  1570.95  1611.66  1624.97  1628.07
                             1643.33  1677.96  1732.76  1800.74  1809.64
                             1840.32  1848.28  1854.20  1918.21  1930.95
                             1945.63  1992.03  2000.20  2034.82  2052.07
                             2060.38  2113.77  2128.48  2142.86  2159.04
                             2171.47  2240.07  2312.03  2351.55  2425.68
                             2449.09  2611.10  4398.83  4401.08  4444.26
                             4456.34  4461.42  4485.03  4512.46  4531.95
                             4551.81  4663.62  4680.02  5047.38  5145.78
                             5228.85  5371.76

 Zero-point correction=                           0.259792 (Hartree/Particle)
 Thermal correction to Energy=                    0.275018
 Thermal correction to Enthalpy=                  0.275962
 Thermal correction to Gibbs Free Energy=         0.217389
 Sum of electronic and zero-point Energies=           -796.516294
 Sum of electronic and thermal Energies=              -796.501069
 Sum of electronic and thermal Enthalpies=            -796.500124
 Sum of electronic and thermal Free Energies=         -796.558697

                     E (Thermal)             CV                S
                      KCal/Mol        Cal/Mol-Kelvin    Cal/Mol-Kelvin
 Total                  172.576             57.850            123.276
 Electronic               0.000              0.000              0.000
 Translational            0.889              2.981             42.163
 Rotational               0.889              2.981             32.463
 Vibrational            170.799             51.888             48.650
 Vibration     1          0.596              1.975              4.593
 Vibration     2          0.598              1.970              4.221
 Vibration     3          0.603              1.953              3.548
 Vibration     4          0.604              1.948              3.439
 Vibration     5          0.606              1.942              3.288
 Vibration     6          0.607              1.938              3.209
 Vibration     7          0.614              1.916              2.841
 Vibration     8          0.619              1.900              2.643
 Vibration     9          0.623              1.888              2.514
 Vibration    10          0.634              1.852              2.218
 Vibration    11          0.666              1.753              1.689
 Vibration    12          0.697              1.662              1.382
 Vibration    13          0.701              1.649              1.347
 Vibration    14          0.721              1.593              1.206
 Vibration    15          0.726              1.577              1.170
 Vibration    16          0.755              1.499              1.014
 Vibration    17          0.779              1.436              0.906
 Vibration    18          0.803              1.376              0.817
 Vibration    19          0.902              1.148              0.552
 Vibration    20          0.905              1.139              0.544
 Vibration    21          0.955              1.039              0.455
 Vibration    22          0.969              1.011              0.433

 Optimization completed.
    -- Stationary point found.
 Normal termination of Gaussian 09 at Thu Jul 29 11:47:18 2021.
