 Gaussian 09, Revision D.01,
 Gaussian 09:  ES64L-G09RevD.01 24-Apr-2013

 ----------------------------------------------------------------------
 # B3LYP/6-311++G(2df,2pd) guess=read geom=checkpoint opt=readfc freq=n
 oraman nosymm integral(ultrafinegrid)
 ----------------------------------------------------------------------

 -----------------------------------------------------------
 Candidate Structure: Conf:55 OPT and FREQ calc in gas phase
 -----------------------------------------------------------
 Structure from the checkpoint file:  "conf-55.chk"
 Charge =  1 Multiplicity = 1

 SCF Done:  E(RB3LYP) =  -796.736544089     A.U. after   14 cycles
 SCF Done:  E(RB3LYP) =  -796.737272037     A.U. after   11 cycles
 SCF Done:  E(RB3LYP) =  -796.737281054     A.U. after   11 cycles
 SCF Done:  E(RB3LYP) =  -796.737281336     A.U. after    9 cycles
 SCF Done:  E(RB3LYP) =  -796.737281414     A.U. after    9 cycles
 SCF Done:  E(RB3LYP) =  -796.737281423     A.U. after    7 cycles
 Optimization completed.
    -- Stationary point found.
 Normal termination of Gaussian 09 at Thu Jul 29 04:44:37 2021.

 ----------------------------------------------------------------------
 #N Geom=AllCheck Guess=TCheck SCRF=Check GenChk RB3LYP/6-311++G(2df,2p
 d) Freq
 ----------------------------------------------------------------------

 Structure from the checkpoint file:  "conf-55.chk"
 -----------------------------------------------------------
 Candidate Structure: Conf:55 OPT and FREQ calc in gas phase
 -----------------------------------------------------------
 Charge =  1 Multiplicity = 1

                          Input orientation:
 ---------------------------------------------------------------------
 Center     Atomic      Atomic             Coordinates (Angstroms)
 Number     Number       Type             X           Y           Z
 ---------------------------------------------------------------------
      1          8           0        1.409089    0.675113    1.093390
      2          6           0        1.525886    0.110820    0.017459
      3          7           0        0.529548   -0.502917   -0.638599
      4          6           0       -0.803103   -0.667718   -0.079337
      5          6           0       -1.412903   -1.884082   -0.796695
      6          8           0       -2.598268   -2.301558   -0.365464
      7          8           0       -0.842525   -2.427449   -1.707526
      8          6           0       -1.660925    0.614560   -0.231544
      9          6           0       -2.961310    0.543733    0.506365
     10          6           0       -3.281957    0.146839    1.784315
     11          7           0       -4.629187    0.284099    2.014974
     12          6           0       -5.129318    0.759989    0.904541
     13          7           0       -4.164510    0.932724   -0.044330
     14          6           0        2.891144    0.102680   -0.698831
     15          6           0        3.975182    0.220183    0.357501
     16          7           0        5.331028    0.509320   -0.273390
     17          1           0        0.701053   -1.074523   -1.457567
     18          1           0       -0.707286   -0.894156    0.984303
     19          1           0       -2.951982   -1.722822    0.334754
     20          1           0       -1.835999    0.797967   -1.293603
     21          1           0       -1.058131    1.444204    0.141395
     22          1           0       -2.617412   -0.200201    2.558824
     23          1           0       -6.165603    0.991631    0.723456
     24          1           0       -4.307766    1.275723   -0.979757
     25          1           0        3.015257   -0.792738   -1.309791
     26          1           0        2.910632    0.968654   -1.367677
     27          1           0        3.759256    1.036627    1.041230
     28          1           0        4.096023   -0.694223    0.933490
     29          1           0        5.615424   -0.232433   -0.916240
     30          1           0        5.310783    1.383410   -0.802904
     31          1           0        6.057718    0.596544    0.440032
 ---------------------------------------------------------------------

 SCF Done:  E(RB3LYP) =  -796.737281423     A.U. after    2 cycles

 Alpha  occ. eigenvalues --  -19.27252 -19.22953 -19.22093 -14.64041 -14.47270
 Alpha  occ. eigenvalues --  -14.46490 -14.38302 -10.41828 -10.41660 -10.41497
 Alpha  occ. eigenvalues --  -10.35822 -10.35083 -10.31412 -10.30876 -10.30482
 Alpha  occ. eigenvalues --  -10.27890  -1.21690  -1.20703  -1.18388  -1.13694
 Alpha  occ. eigenvalues --   -1.11451  -1.06662  -0.97040  -0.96838  -0.91827
 Alpha  occ. eigenvalues --   -0.86212  -0.83403  -0.79235  -0.79086  -0.77899
 Alpha  occ. eigenvalues --   -0.73637  -0.71839  -0.71160  -0.69559  -0.68615
 Alpha  occ. eigenvalues --   -0.67797  -0.65318  -0.63933  -0.60943  -0.60783
 Alpha  occ. eigenvalues --   -0.58782  -0.57974  -0.56734  -0.55903  -0.54867
 Alpha  occ. eigenvalues --   -0.54442  -0.53764  -0.52729  -0.51542  -0.51246
 Alpha  occ. eigenvalues --   -0.50414  -0.49268  -0.48510  -0.43312  -0.40733
 Alpha  occ. eigenvalues --   -0.40127  -0.39451  -0.38223  -0.36232  -0.32991
 Alpha virt. eigenvalues --   -0.20169  -0.14770  -0.14271  -0.13576  -0.12122
 Alpha virt. eigenvalues --   -0.11057  -0.10701  -0.09490  -0.09266  -0.08532
 Alpha virt. eigenvalues --   -0.08296  -0.08042  -0.07215  -0.06355  -0.06073

 Mulliken charges:
               1
     1  O   -0.383920
     2  C   -0.053038
     3  N    0.133454
     4  C    0.025331
     5  C    0.124190
     6  O   -0.184498
     7  O   -0.345187
     8  C   -0.075114
     9  C    0.159727
    10  C   -0.355586
    11  N   -0.243736
    12  C    0.121852
    13  N    0.032738
    14  C    0.118000
    15  C   -0.276500
    16  N    0.300154
    17  H    0.144720
    18  H    0.127523
    19  H    0.287601
    20  H    0.045399
    21  H    0.112544
    22  H    0.091786
    23  H    0.118578
    24  H    0.134541
    25  H    0.054581
    26  H    0.057203
    27  H    0.132723
    28  H    0.107450
    29  H    0.164658
    30  H    0.162292
    31  H    0.160534
 Sum of Mulliken charges =   1.00000

 Dipole moment (field-independent basis, Debye):
    X=             19.6912    Y=              4.2171    Z=             -3.9878  Tot=             20.5288
 Quadrupole moment (field-independent basis, Debye-Ang):
   XX=             41.4035   YY=            -96.6281   ZZ=            -98.2235
   XY=             -0.9373   XZ=              2.7621   YZ=            -11.3058

  Exact polarizability: 190.957  -0.350 113.851 -13.549   6.287 128.899
 Approx polarizability: 230.210  -1.685 175.152 -13.686   5.677 220.224

                      1                      2                      3
                      A                      A                      A
 Frequencies --     26.6057                31.6620                39.8427
 Red. masses --      3.3524                 2.9845                 2.5401
 Frc consts  --      0.0014                 0.0018                 0.0024
 IR Inten    --      6.2812                 3.8749                 9.6944

                      4                      5                      6
                      A                      A                      A
 Frequencies --     46.7580                65.8104                85.6585
 Red. masses --      4.8088                 7.1871                 5.5893
 Frc consts  --      0.0062                 0.0183                 0.0242
 IR Inten    --      1.5559                14.2087                 8.4835

                      7                      8                      9
                      A                      A                      A
 Frequencies --     91.4523               115.4336               123.6090
 Red. masses --      5.2399                 4.7965                 4.8338
 Frc consts  --      0.0258                 0.0377                 0.0435
 IR Inten    --      5.8496                 8.4893                 5.6459

                     10                     11                     12
                      A                      A                      A
 Frequencies --    193.5026               220.0041               235.7402
 Red. masses --      5.1479                 1.4423                 2.2336
 Frc consts  --      0.1136                 0.0411                 0.0731
 IR Inten    --      4.7314                12.3086                19.1920

                     13                     14                     15
                      A                      A                      A
 Frequencies --    266.5141               314.3201               327.4623
 Red. masses --      5.4922                 2.3598                 7.1526
 Frc consts  --      0.2298                 0.1374                 0.4519
 IR Inten    --      9.5408                 4.5945                 1.4836

                     16                     17                     18
                      A                      A                      A
 Frequencies --    346.9225               375.1369               404.5535
 Red. masses --      5.1391                 3.7571                 4.3014
 Frc consts  --      0.3644                 0.3115                 0.4148
 IR Inten    --     15.2021                13.7944                11.7228

                     19                     20                     21
                      A                      A                      A
 Frequencies --    547.9490               554.3512               588.0072
 Red. masses --      3.7472                 1.4357                 2.2137
 Frc consts  --      0.6629                 0.2599                 0.4509
 IR Inten    --     18.1810                68.7244                43.7148

                     22                     23                     24
                      A                      A                      A
 Frequencies --    618.7707               651.0436               665.8449
 Red. masses --      2.7243                 1.5815                 2.8019
 Frc consts  --      0.6146                 0.3949                 0.7319
 IR Inten    --     28.7859                11.2144                19.2151

                     25                     26                     27
                      A                      A                      A
 Frequencies --    668.6305               681.8151               716.6668
 Red. masses --      1.3637                 2.6829                 3.9660
 Frc consts  --      0.3592                 0.7348                 1.2002
 IR Inten    --     40.6989                23.6022                 5.8059

                     28                     29                     30
                      A                      A                      A
 Frequencies --    742.5753               759.3982               794.2068
 Red. masses --      3.5406                 3.4076                 1.3570
 Frc consts  --      1.1503                 1.1578                 0.5043
 IR Inten    --      0.5113                 0.3206                10.2652

                     31                     32                     33
                      A                      A                      A
 Frequencies --    819.4823               850.9144               866.3893
 Red. masses --      2.8712                 1.4007                 1.4343
 Frc consts  --      1.1360                 0.5975                 0.6343
 IR Inten    --      1.4637                28.0023                19.3367

                     34                     35                     36
                      A                      A                      A
 Frequencies --    883.2377               917.4769               933.9967
 Red. masses --      2.7454                 1.2801                 5.8603
 Frc consts  --      1.2618                 0.6349                 3.0120
 IR Inten    --     32.0304                 4.0241                14.8321

                     37                     38                     39
                      A                      A                      A
 Frequencies --    935.6838               981.1133              1015.5410
 Red. masses --      3.5528                 2.1732                 3.4176
 Frc consts  --      1.8326                 1.2325                 2.0767
 IR Inten    --     30.8172                34.1906                10.7453

                     40                     41                     42
                      A                      A                      A
 Frequencies --   1024.1987              1031.4020              1089.3024
 Red. masses --      2.9014                 4.3351                 1.8934
 Frc consts  --      1.7932                 2.7171                 1.3237
 IR Inten    --      9.7309                 2.4603                17.2449

                     43                     44                     45
                      A                      A                      A
 Frequencies --   1107.0432              1114.6650              1146.2004
 Red. masses --      1.7119                 2.1005                 2.4206
 Frc consts  --      1.2361                 1.5377                 1.8737
 IR Inten    --     16.8952                29.5341                13.6616

                     46                     47                     48
                      A                      A                      A
 Frequencies --   1148.6280              1178.3713              1226.6811
 Red. masses --      2.3927                 1.3970                 2.0488
 Frc consts  --      1.8599                 1.1429                 1.8164
 IR Inten    --      4.6076                 2.4839                13.9872

                     49                     50                     51
                      A                      A                      A
 Frequencies --   1237.0103              1250.8637              1284.3756
 Red. masses --      1.6352                 1.8416                 1.4546
 Frc consts  --      1.4742                 1.6977                 1.4138
 IR Inten    --      9.9418                18.5737                 0.9632

                     52                     53                     54
                      A                      A                      A
 Frequencies --   1289.9059              1311.8617              1327.7148
 Red. masses --      1.3089                 1.3465                 1.2752
 Frc consts  --      1.2831                 1.3653                 1.3244
 IR Inten    --      2.1562                19.3486                24.4874

                     55                     56                     57
                      A                      A                      A
 Frequencies --   1330.1916              1354.3036              1363.2120
 Red. masses --      1.4835                 1.3658                 1.4544
 Frc consts  --      1.5465                 1.4760                 1.5925
 IR Inten    --     51.9337                31.3320               112.4111

                     58                     59                     60
                      A                      A                      A
 Frequencies --   1395.7548              1407.9942              1415.0188
 Red. masses --      2.5629                 1.3334                 2.0438
 Frc consts  --      2.9417                 1.5574                 2.4110
 IR Inten    --    113.9423                26.7003               113.2280

                     61                     62                     63
                      A                      A                      A
 Frequencies --   1427.4753              1480.4095              1483.5796
 Red. masses --      2.9408                 1.1115                 1.8962
 Frc consts  --      3.5307                 1.4353                 2.4590
 IR Inten    --     23.0789                 1.2796                21.5622

                     64                     65                     66
                      A                      A                      A
 Frequencies --   1496.7894              1506.2657              1513.7943
 Red. masses --      1.5952                 1.0766                 1.1817
 Frc consts  --      2.1056                 1.4392                 1.5954
 IR Inten    --     16.6043                30.4830               191.2443

                     67                     68                     69
                      A                      A                      A
 Frequencies --   1532.9039              1593.3011              1665.3370
 Red. masses --      2.2743                 3.8434                 1.0426
 Frc consts  --      3.1487                 5.7487                 1.7037
 IR Inten    --    309.6363                10.9711                45.7269

                     70                     71                     72
                      A                      A                      A
 Frequencies --   1669.5663              1738.9938              1813.4944
 Red. masses --      1.0445                 9.7874                 9.1967
 Frc consts  --      1.7154                17.4387                17.8203
 IR Inten    --     38.8758               303.9412               325.7933

                     73                     74                     75
                      A                      A                      A
 Frequencies --   3027.7038              3039.1606              3059.2687
 Red. masses --      1.0628                 1.0600                 1.0839
 Frc consts  --      5.7401                 5.7686                 5.9771
 IR Inten    --      3.9129                 9.2626                 9.7659

                     76                     77                     78
                      A                      A                      A
 Frequencies --   3079.6568              3081.1660              3099.4815
 Red. masses --      1.1032                 1.1006                 1.0598
 Frc consts  --      6.1645                 6.1563                 5.9988
 IR Inten    --      2.9756                 4.8912                 3.9685

                     79                     80                     81
                      A                      A                      A
 Frequencies --   3158.3114              3232.4346              3252.7650
 Red. masses --      1.1111                 1.0961                 1.0985
 Frc consts  --      6.5303                 6.7479                 6.8479
 IR Inten    --      2.4193                 4.3040                 2.0648

                     82                     83                     84
                      A                      A                      A
 Frequencies --   3404.3053              3482.1101              3483.3430
 Red. masses --      1.0297                 1.0929                 1.0931
 Frc consts  --      7.0310                 7.8079                 7.8148
 IR Inten    --     54.1620                88.8910                89.5781

                     85                     86                     87
                      A                      A                      A
 Frequencies --   3529.4109              3590.5628              3639.3697
 Red. masses --      1.0776                 1.0673                 1.0815
 Frc consts  --      7.9091                 8.1067                 8.4396
 IR Inten    --    131.9476               428.8417                66.6515

 - Thermochemistry -
 -------------------
 Temperature   298.150 Kelvin.  Pressure   1.00000 Atm.
 Atom     1 has atomic number  8 and mass  15.99491

 Molecular mass:   227.11442 amu.
 Principal axes and moments of inertia in atomic units:
                           1         2         3
     Eigenvalues --  1672.972748128.814229170.98684
           X            0.99356   0.05267   0.10032
           Y            0.01739   0.80399  -0.59439
           Z           -0.11196   0.59230   0.79790
 This molecule is an asymmetric top.
 Rotational symmetry number  1.
 Warning -- assumption of classical behavior for rotation
           may cause significant error
 Rotational temperatures (Kelvin)      0.05177     0.01066     0.00944
 Rotational constants (GHZ):           1.07876     0.22202     0.19679
 Zero-point vibrational energy     679597.0 (Joules/Mol)
                                  162.42758 (Kcal/Mol)
 Warning -- explicit consideration of  22 degrees of freedom as
           vibrations may cause significant error
 Vibrational temperatures:     38.28    45.55    57.32    67.27    94.69
          (Kelvin)            123.24   131.58   166.08   177.85   278.41
                              316.54   339.18   383.45   452.24   471.14
                              499.14   539.74   582.06   788.38   797.59
                              846.01   890.27   936.71   958.00   962.01
                              980.98  1031.12  1068.40  1092.60  1142.69
                             1179.05  1224.27  1246.54  1270.78  1320.04
                             1343.81  1346.24  1411.60  1461.14  1473.59
                             1483.96  1567.26  1592.79  1603.75  1649.12
                             1652.62  1695.41  1764.92  1779.78  1799.71
                             1847.93  1855.88  1887.47  1910.28  1913.85
                             1948.54  1961.36  2008.18  2025.79  2035.89
                             2053.82  2129.98  2134.54  2153.54  2167.18
                             2178.01  2205.50  2292.40  2396.05  2402.13
                             2502.02  2609.21  4356.18  4372.67  4401.60
                             4430.93  4433.11  4459.46  4544.10  4650.75
                             4680.00  4898.03  5009.97  5011.75  5078.03
                             5166.01  5236.23

 Zero-point correction=                           0.258845 (Hartree/Particle)
 Thermal correction to Energy=                    0.275146
 Thermal correction to Enthalpy=                  0.276090
 Thermal correction to Gibbs Free Energy=         0.211858
 Sum of electronic and zero-point Energies=           -796.478437
 Sum of electronic and thermal Energies=              -796.462135
 Sum of electronic and thermal Enthalpies=            -796.461191
 Sum of electronic and thermal Free Energies=         -796.525423

                     E (Thermal)             CV                S
                      KCal/Mol        Cal/Mol-Kelvin    Cal/Mol-Kelvin
 Total                  172.657             58.670            135.187
 Electronic               0.000              0.000              0.000
 Translational            0.889              2.981             42.163
 Rotational               0.889              2.981             33.189
 Vibrational            170.879             52.708             59.835
 Vibration     1          0.593              1.984              6.068
 Vibration     2          0.594              1.983              5.722
 Vibration     3          0.594              1.981              5.267
 Vibration     4          0.595              1.979              4.950
 Vibration     5          0.597              1.971              4.275
 Vibration     6          0.601              1.959              3.757
 Vibration     7          0.602              1.955              3.629
 Vibration     8          0.608              1.937              3.175
 Vibration     9          0.610              1.929              3.043
 Vibration    10          0.635              1.849              2.194
 Vibration    11          0.647              1.811              1.959
 Vibration    12          0.655              1.786              1.835
 Vibration    13          0.672              1.735              1.619
 Vibration    14          0.702              1.646              1.339
 Vibration    15          0.711              1.621              1.273
 Vibration    16          0.725              1.582              1.180
 Vibration    17          0.746              1.523              1.059
 Vibration    18          0.770              1.460              0.946
 Vibration    19          0.903              1.144              0.548
 Vibration    20          0.910              1.130              0.535
 Vibration    21          0.945              1.057              0.471
 Vibration    22          0.979              0.992              0.418

 Optimization completed.
    -- Stationary point found.
 Normal termination of Gaussian 09 at Thu Jul 29 11:15:46 2021.
