 Gaussian 09, Revision D.01,
 Gaussian 09:  ES64L-G09RevD.01 24-Apr-2013

 ----------------------------------------------------------------------
 # B3LYP/6-311++G(2df,2pd) guess=read geom=checkpoint opt=readfc freq=n
 oraman nosymm integral(ultrafinegrid)
 ----------------------------------------------------------------------

 ------------------------------------------------------------
 Candidate Structure: Conf:862 OPT and FREQ calc in gas phase
 ------------------------------------------------------------
 Structure from the checkpoint file:  "conf-862.chk"
 Charge =  1 Multiplicity = 1

 SCF Done:  E(RB3LYP) =  -796.771128839     A.U. after   13 cycles
 SCF Done:  E(RB3LYP) =  -796.771920736     A.U. after   12 cycles
 SCF Done:  E(RB3LYP) =  -796.771928366     A.U. after   11 cycles
 SCF Done:  E(RB3LYP) =  -796.771928486     A.U. after    9 cycles
 Optimization completed.
    -- Stationary point found.
 Normal termination of Gaussian 09 at Thu Jul 29 04:21:59 2021.

 ----------------------------------------------------------------------
 #N Geom=AllCheck Guess=TCheck SCRF=Check GenChk RB3LYP/6-311++G(2df,2p
 d) Freq
 ----------------------------------------------------------------------

 Structure from the checkpoint file:  "conf-862.chk"
 ------------------------------------------------------------
 Candidate Structure: Conf:862 OPT and FREQ calc in gas phase
 ------------------------------------------------------------
 Charge =  1 Multiplicity = 1

                          Input orientation:
 ---------------------------------------------------------------------
 Center     Atomic      Atomic             Coordinates (Angstroms)
 Number     Number       Type             X           Y           Z
 ---------------------------------------------------------------------
      1          8           0       -0.703571    1.824577   -0.138468
      2          6           0        0.351895    1.280518    0.186441
      3          7           0        0.501534    0.576926    1.323950
      4          6           0       -0.616163    0.162939    2.150584
      5          6           0       -0.180788    0.203892    3.606427
      6          8           0       -1.232685    0.202931    4.430773
      7          8           0        0.969725    0.182559    3.956124
      8          6           0       -1.113580   -1.300507    1.806131
      9          6           0       -0.894034   -1.637660    0.369380
     10          6           0       -1.401154   -1.093784   -0.777193
     11          7           0       -0.674569   -1.499345   -1.876985
     12          6           0        0.234931   -2.332771   -1.411543
     13          7           0        0.146241   -2.440217   -0.063609
     14          6           0        1.558771    1.291866   -0.752350
     15          6           0        1.216860    1.802386   -2.152548
     16          7           0       -0.086139    1.232680   -2.654863
     17          1           0        1.417712    0.265212    1.612227
     18          1           0       -1.431794    0.861364    1.985723
     19          1           0       -0.915648    0.181665    5.347458
     20          1           0       -2.165853   -1.369307    2.075919
     21          1           0       -0.583188   -2.019029    2.433026
     22          1           0       -2.222286   -0.403714   -0.863992
     23          1           0        0.954762   -2.878323   -1.998246
     24          1           0        0.703236   -3.048660    0.515256
     25          1           0        1.975983    0.285742   -0.805255
     26          1           0        2.342079    1.932735   -0.342600
     27          1           0        2.000145    1.540240   -2.858750
     28          1           0        1.091221    2.882148   -2.156341
     29          1           0       -0.145370    0.186450   -2.632417
     30          1           0       -0.301663    1.558719   -3.594721
     31          1           0       -0.796507    1.567980   -1.981342
 ---------------------------------------------------------------------

 SCF Done:  E(RB3LYP) =  -796.771928485     A.U. after    1 cycles

 Alpha  occ. eigenvalues --  -19.29782 -19.24471 -19.24239 -14.56433 -14.50954
 Alpha  occ. eigenvalues --  -14.48602 -14.44289 -10.43337 -10.42933 -10.38938
 Alpha  occ. eigenvalues --  -10.36641 -10.36487 -10.34499 -10.34369 -10.32725
 Alpha  occ. eigenvalues --  -10.31868  -1.24088  -1.19845  -1.16171  -1.15413
 Alpha  occ. eigenvalues --   -1.13950  -1.08037  -1.01757  -0.95267  -0.93102
 Alpha  occ. eigenvalues --   -0.88746  -0.82974  -0.81075  -0.76232  -0.75655
 Alpha  occ. eigenvalues --   -0.74123  -0.73364  -0.72520  -0.71841  -0.68455
 Alpha  occ. eigenvalues --   -0.66656  -0.64401  -0.63333  -0.62482  -0.61594
 Alpha  occ. eigenvalues --   -0.60410  -0.59417  -0.59119  -0.58052  -0.56576
 Alpha  occ. eigenvalues --   -0.55839  -0.55250  -0.54649  -0.54584  -0.53884
 Alpha  occ. eigenvalues --   -0.53013  -0.51134  -0.50588  -0.45552  -0.43879
 Alpha  occ. eigenvalues --   -0.42686  -0.42352  -0.41372  -0.41146  -0.36928
 Alpha virt. eigenvalues --   -0.14835  -0.14431  -0.13958  -0.12524  -0.12085
 Alpha virt. eigenvalues --   -0.10953  -0.10353  -0.10111  -0.09362  -0.09218
 Alpha virt. eigenvalues --   -0.08406  -0.07653  -0.06935  -0.06709  -0.06347

 Mulliken charges:
               1
     1  O   -0.415180
     2  C    0.049463
     3  N    0.171416
     4  C   -0.303891
     5  C    0.328729
     6  O   -0.152482
     7  O   -0.351827
     8  C   -0.176435
     9  C    0.290934
    10  C   -0.319622
    11  N   -0.272485
    12  C   -0.007613
    13  N    0.070428
    14  C    0.092000
    15  C   -0.248194
    16  N    0.189297
    17  H    0.151489
    18  H    0.130401
    19  H    0.249743
    20  H    0.118850
    21  H    0.058467
    22  H    0.118276
    23  H    0.132086
    24  H    0.164357
    25  H    0.075707
    26  H    0.090720
    27  H    0.096037
    28  H    0.104984
    29  H    0.210704
    30  H    0.184671
    31  H    0.168971
 Sum of Mulliken charges =   1.00000

 Dipole moment (field-independent basis, Debye):
    X=              2.4189    Y=              0.3181    Z=             -3.4102  Tot=              4.1930
 Quadrupole moment (field-independent basis, Debye-Ang):
   XX=            -85.5031   YY=            -74.4043   ZZ=            -52.7701
   XY=              0.1518   XZ=            -12.0353   YZ=            -16.5211

  Exact polarizability: 123.500  -1.990 122.614  -7.173  -6.281 167.322
 Approx polarizability: 211.389 -22.227 182.494   0.361 -13.035 229.885

                      1                      2                      3
                      A                      A                      A
 Frequencies --     37.8658                53.5380                79.6476
 Red. masses --      4.8991                 8.3705                 3.9070
 Frc consts  --      0.0041                 0.0141                 0.0146
 IR Inten    --      2.9001                 1.2213                 1.0305

                      4                      5                      6
                      A                      A                      A
 Frequencies --    104.2802               109.6041               118.2630
 Red. masses --      4.3582                 6.1542                 4.0115
 Frc consts  --      0.0279                 0.0436                 0.0331
 IR Inten    --     15.5450                 1.5149                 4.5613

                      7                      8                      9
                      A                      A                      A
 Frequencies --    134.3742               151.6325               169.2344
 Red. masses --      3.6696                 4.5712                 4.9631
 Frc consts  --      0.0390                 0.0619                 0.0837
 IR Inten    --     25.3419                 7.6927                11.0724

                     10                     11                     12
                      A                      A                      A
 Frequencies --    190.7215               255.7539               305.5038
 Red. masses --      2.3566                 4.1963                 5.7289
 Frc consts  --      0.0505                 0.1617                 0.3150
 IR Inten    --     25.6136                42.3589                 1.1267

                     13                     14                     15
                      A                      A                      A
 Frequencies --    313.7036               329.0883               345.2510
 Red. masses --      2.7486                 3.4810                 3.8036
 Frc consts  --      0.1594                 0.2221                 0.2671
 IR Inten    --      6.0315                 9.7945                28.5302

                     16                     17                     18
                      A                      A                      A
 Frequencies --    404.2345               429.6885               453.1508
 Red. masses --      2.6318                 1.7688                 1.8858
 Frc consts  --      0.2534                 0.1924                 0.2282
 IR Inten    --      7.7199                11.4198                 3.3791

                     19                     20                     21
                      A                      A                      A
 Frequencies --    534.6464               548.9878               600.5771
 Red. masses --      1.8347                 3.6314                 1.7354
 Frc consts  --      0.3090                 0.6448                 0.3688
 IR Inten    --     64.6972                23.2537               119.1415

                     22                     23                     24
                      A                      A                      A
 Frequencies --    618.5069               623.7988               636.2486
 Red. masses --      1.3419                 1.6867                 3.4175
 Frc consts  --      0.3025                 0.3867                 0.8151
 IR Inten    --     46.2836                 3.9206                74.9422

                     25                     26                     27
                      A                      A                      A
 Frequencies --    679.7713               688.2493               690.9826
 Red. masses --      2.8963                 2.9864                 2.4280
 Frc consts  --      0.7885                 0.8335                 0.6830
 IR Inten    --     53.3187                 3.8909                 3.3775

                     28                     29                     30
                      A                      A                      A
 Frequencies --    720.6551               770.1872               835.6055
 Red. masses --      3.2206                 4.3717                 1.9102
 Frc consts  --      0.9855                 1.5279                 0.7858
 IR Inten    --      7.8534                18.6718                 3.2152

                     31                     32                     33
                      A                      A                      A
 Frequencies --    843.8035               850.4904               870.4063
 Red. masses --      1.8586                 1.9544                 1.9467
 Frc consts  --      0.7797                 0.8329                 0.8690
 IR Inten    --     16.2689                20.3088                11.3260

                     34                     35                     36
                      A                      A                      A
 Frequencies --    884.0053               924.3134               942.3567
 Red. masses --      1.7245                 2.7855                 5.1142
 Frc consts  --      0.7940                 1.4021                 2.6759
 IR Inten    --     12.9316                13.5536                 9.2388

                     37                     38                     39
                      A                      A                      A
 Frequencies --    954.0620               974.5693               998.6351
 Red. masses --      3.5790                 1.5522                 3.1690
 Frc consts  --      1.9194                 0.8686                 1.8620
 IR Inten    --      1.0512                 3.0131                14.5039

                     40                     41                     42
                      A                      A                      A
 Frequencies --   1029.3149              1038.7124              1096.3670
 Red. masses --      3.5025                 3.1879                 2.5124
 Frc consts  --      2.1864                 2.0265                 1.7793
 IR Inten    --      5.2979                10.2218                20.2207

                     43                     44                     45
                      A                      A                      A
 Frequencies --   1120.6522              1129.9523              1132.8492
 Red. masses --      1.4840                 2.0156                 1.7678
 Frc consts  --      1.0980                 1.5163                 1.3367
 IR Inten    --    101.9945                16.8233                12.7483

                     46                     47                     48
                      A                      A                      A
 Frequencies --   1143.0338              1161.6969              1201.7642
 Red. masses --      1.4565                 1.9255                 1.8395
 Frc consts  --      1.1212                 1.5311                 1.5653
 IR Inten    --     32.7926               163.5984                42.5386

                     49                     50                     51
                      A                      A                      A
 Frequencies --   1248.3160              1253.9916              1280.1694
 Red. masses --      1.7909                 1.7492                 1.3848
 Frc consts  --      1.6443                 1.6206                 1.3372
 IR Inten    --      2.9702                11.6121                 1.2550

                     52                     53                     54
                      A                      A                      A
 Frequencies --   1282.1573              1299.7811              1336.6395
 Red. masses --      1.3554                 1.5610                 1.6649
 Frc consts  --      1.3128                 1.5538                 1.7525
 IR Inten    --     21.0576                 6.3850                 1.3507

                     55                     56                     57
                      A                      A                      A
 Frequencies --   1341.4796              1352.0359              1386.7343
 Red. masses --      1.2764                 1.2599                 1.6332
 Frc consts  --      1.3533                 1.3569                 1.8504
 IR Inten    --     15.4010                 7.8416                71.4178

                     58                     59                     60
                      A                      A                      A
 Frequencies --   1392.4122              1415.3427              1425.8431
 Red. masses --      2.3531                 2.1642                 1.3318
 Frc consts  --      2.6880                 2.5543                 1.5953
 IR Inten    --      2.3104               138.0817                 6.2973

                     61                     62                     63
                      A                      A                      A
 Frequencies --   1434.3993              1468.2125              1487.5129
 Red. masses --      2.5897                 1.0950                 1.3478
 Frc consts  --      3.1394                 1.3908                 1.7572
 IR Inten    --     21.3096                26.5565                15.6712

                     64                     65                     66
                      A                      A                      A
 Frequencies --   1494.5480              1502.0612              1507.8795
 Red. masses --      1.4230                 1.6067                 1.1091
 Frc consts  --      1.8727                 2.1357                 1.4858
 IR Inten    --     59.8819               124.7905                28.8062

                     67                     68                     69
                      A                      A                      A
 Frequencies --   1554.4046              1611.9758              1640.3896
 Red. masses --      2.0989                 4.0505                 1.1276
 Frc consts  --      2.9879                 6.2013                 1.7877
 IR Inten    --    200.4722                14.8553                66.2347

                     70                     71                     72
                      A                      A                      A
 Frequencies --   1694.4358              1708.5995              1811.9085
 Red. masses --      1.2644                 2.6728                10.1899
 Frc consts  --      2.1388                 4.5972                19.7102
 IR Inten    --    225.2166                58.8711               277.8979

                     73                     74                     75
                      A                      A                      A
 Frequencies --   2992.2358              3055.9871              3056.2932
 Red. masses --      1.0791                 1.0609                 1.0652
 Frc consts  --      5.6923                 5.8374                 5.8624
 IR Inten    --    715.4280                 6.4816                 7.2791

                     76                     77                     78
                      A                      A                      A
 Frequencies --   3090.0716              3098.5156              3107.3664
 Red. masses --      1.0909                 1.0711                 1.0980
 Frc consts  --      6.1374                 6.0590                 6.2464
 IR Inten    --      3.0157                 2.6660                 1.5036

                     79                     80                     81
                      A                      A                      A
 Frequencies --   3129.0550              3147.3569              3229.2835
 Red. masses --      1.0872                 1.1100                 1.0682
 Frc consts  --      6.2716                 6.4783                 6.5631
 IR Inten    --      3.4511                 2.3673               202.7294

                     82                     83                     84
                      A                      A                      A
 Frequencies --   3253.0523              3256.5828              3506.2471
 Red. masses --      1.0956                 1.1007                 1.0785
 Frc consts  --      6.8310                 6.8775                 7.8119
 IR Inten    --      1.0831                 4.9638               111.2589

                     85                     86                     87
                      A                      A                      A
 Frequencies --   3588.2717              3628.5004              3732.4661
 Red. masses --      1.0776                 1.0818                 1.0645
 Frc consts  --      8.1747                 8.3920                 8.7377
 IR Inten    --     70.5128                85.7146               138.3191

 - Thermochemistry -
 -------------------
 Temperature   298.150 Kelvin.  Pressure   1.00000 Atm.
 Atom     1 has atomic number  8 and mass  15.99491

 Molecular mass:   227.11442 amu.
 Principal axes and moments of inertia in atomic units:
                           1         2         3
     Eigenvalues --  2250.393544527.890215711.23438
           X           -0.09694   0.30166   0.94848
           Y           -0.03542   0.95131  -0.30618
           Z            0.99466   0.06328   0.08153
 This molecule is an asymmetric top.
 Rotational symmetry number  1.
 Warning -- assumption of classical behavior for rotation
           may cause significant error
 Rotational temperatures (Kelvin)      0.03849     0.01913     0.01517
 Rotational constants (GHZ):           0.80197     0.39858     0.31600
 Zero-point vibrational energy     682070.3 (Joules/Mol)
                                  163.01872 (Kcal/Mol)
 Warning -- explicit consideration of  22 degrees of freedom as
           vibrations may cause significant error
 Vibrational temperatures:     54.48    77.03   114.60   150.04   157.70
          (Kelvin)            170.15   193.33   218.17   243.49   274.41
                              367.97   439.55   451.35   473.48   496.74
                              581.60   618.23   651.98   769.24   789.87
                              864.10   889.89   897.51   915.42   978.04
                              990.24   994.17  1036.86  1108.13  1202.25
                             1214.04  1223.66  1252.32  1271.88  1329.88
                             1355.84  1372.68  1402.19  1436.81  1480.95
                             1494.47  1577.43  1612.37  1625.75  1629.92
                             1644.57  1671.42  1729.07  1796.05  1804.21
                             1841.88  1844.74  1870.09  1923.12  1930.09
                             1945.28  1995.20  2003.37  2036.36  2051.47
                             2063.78  2112.43  2140.20  2150.32  2161.13
                             2169.50  2236.44  2319.27  2360.15  2437.91
                             2458.29  2606.93  4305.15  4396.88  4397.32
                             4445.92  4458.07  4470.80  4502.01  4528.34
                             4646.21  4680.41  4685.49  5044.70  5162.72
                             5220.60  5370.18

 Zero-point correction=                           0.259787 (Hartree/Particle)
 Thermal correction to Energy=                    0.275068
 Thermal correction to Enthalpy=                  0.276012
 Thermal correction to Gibbs Free Energy=         0.216817
 Sum of electronic and zero-point Energies=           -796.512142
 Sum of electronic and thermal Energies=              -796.496860
 Sum of electronic and thermal Enthalpies=            -796.495916
 Sum of electronic and thermal Free Energies=         -796.555112

                     E (Thermal)             CV                S
                      KCal/Mol        Cal/Mol-Kelvin    Cal/Mol-Kelvin
 Total                  172.608             57.781            124.587
 Electronic               0.000              0.000              0.000
 Translational            0.889              2.981             42.163
 Rotational               0.889              2.981             32.431
 Vibrational            170.830             51.819             49.993
 Vibration     1          0.594              1.982              5.368
 Vibration     2          0.596              1.976              4.682
 Vibration     3          0.600              1.963              3.900
 Vibration     4          0.605              1.946              3.373
 Vibration     5          0.606              1.942              3.276
 Vibration     6          0.608              1.934              3.129
 Vibration     7          0.613              1.919              2.882
 Vibration     8          0.619              1.901              2.652
 Vibration     9          0.625              1.880              2.444
 Vibration    10          0.634              1.853              2.221
 Vibration    11          0.666              1.753              1.691
 Vibration    12          0.696              1.663              1.387
 Vibration    13          0.702              1.648              1.343
 Vibration    14          0.712              1.617              1.265
 Vibration    15          0.724              1.585              1.188
 Vibration    16          0.769              1.461              0.947
 Vibration    17          0.791              1.406              0.860
 Vibration    18          0.812              1.354              0.786
 Vibration    19          0.890              1.173              0.577
 Vibration    20          0.904              1.142              0.546
 Vibration    21          0.959              1.031              0.449
 Vibration    22          0.978              0.993              0.419

 Optimization completed.
    -- Stationary point found.
 Normal termination of Gaussian 09 at Thu Jul 29 12:17:50 2021.
