 Gaussian 09, Revision D.01,
 Gaussian 09:  ES64L-G09RevD.01 24-Apr-2013

 ----------------------------------------------------------------------
 # B3LYP/6-311++G(2df,2pd) guess=read geom=checkpoint opt=readfc freq=n
 oraman nosymm integral(ultrafinegrid)
 ----------------------------------------------------------------------

 ------------------------------------------------------------
 Candidate Structure: Conf:719 OPT and FREQ calc in gas phase
 ------------------------------------------------------------
 Structure from the checkpoint file:  "conf-719.chk"
 Charge =  1 Multiplicity = 1

 SCF Done:  E(RB3LYP) =  -796.739251435     A.U. after   14 cycles
 SCF Done:  E(RB3LYP) =  -796.739970901     A.U. after   12 cycles
 SCF Done:  E(RB3LYP) =  -796.739980015     A.U. after   10 cycles
 SCF Done:  E(RB3LYP) =  -796.739980654     A.U. after   10 cycles
 SCF Done:  E(RB3LYP) =  -796.739980836     A.U. after    9 cycles
 SCF Done:  E(RB3LYP) =  -796.739980873     A.U. after    8 cycles
 Optimization completed on the basis of negligible forces.
    -- Stationary point found.
 Normal termination of Gaussian 09 at Thu Jul 29 04:48:40 2021.

 ----------------------------------------------------------------------
 #N Geom=AllCheck Guess=TCheck SCRF=Check GenChk RB3LYP/6-311++G(2df,2p
 d) Freq
 ----------------------------------------------------------------------

 Structure from the checkpoint file:  "conf-719.chk"
 ------------------------------------------------------------
 Candidate Structure: Conf:719 OPT and FREQ calc in gas phase
 ------------------------------------------------------------
 Charge =  1 Multiplicity = 1

                          Input orientation:
 ---------------------------------------------------------------------
 Center     Atomic      Atomic             Coordinates (Angstroms)
 Number     Number       Type             X           Y           Z
 ---------------------------------------------------------------------
      1          8           0       -0.947691    0.164190    1.334600
      2          6           0       -1.359416    0.229980    0.188854
      3          7           0       -0.579562    0.298244   -0.901843
      4          6           0        0.875308    0.360787   -0.825082
      5          6           0        1.330896    0.907385   -2.169631
      6          8           0        2.658234    1.084318   -2.235882
      7          8           0        0.586216    1.141131   -3.087516
      8          6           0        1.518699   -1.024367   -0.482979
      9          6           0        2.759973   -0.976646    0.339555
     10          6           0        2.957578   -1.299680    1.657679
     11          7           0        4.271682   -1.135951    2.011953
     12          6           0        4.875398   -0.717473    0.927795
     13          7           0        4.009286   -0.607480   -0.118140
     14          6           0       -2.877758    0.196445   -0.082600
     15          6           0       -3.585534    0.704103    1.161074
     16          7           0       -5.075195    0.390129    1.118231
     17          1           0       -0.970733    0.452900   -1.821355
     18          1           0        1.160257    1.065983   -0.042483
     19          1           0        2.869725    1.434590   -3.115546
     20          1           0        0.778831   -1.567098    0.101269
     21          1           0        1.665628   -1.590533   -1.406463
     22          1           0        2.220805   -1.646237    2.363274
     23          1           0        5.922609   -0.481365    0.837097
     24          1           0        4.222105   -0.259746   -1.036836
     25          1           0       -3.146441   -0.846137   -0.279613
     26          1           0       -3.139850    0.779791   -0.966565
     27          1           0       -3.504025    1.782211    1.276889
     28          1           0       -3.183139    0.227292    2.050851
     29          1           0       -5.235795   -0.617347    1.054371
     30          1           0       -5.545244    0.725028    1.961784
     31          1           0       -5.532631    0.825608    0.314969
 ---------------------------------------------------------------------

 SCF Done:  E(RB3LYP) =  -796.739980873     A.U. after    1 cycles

 Alpha  occ. eigenvalues --  -19.29732 -19.24139 -19.22809 -14.63964 -14.47354
 Alpha  occ. eigenvalues --  -14.43992 -14.35984 -10.43110 -10.41706 -10.41536
 Alpha  occ. eigenvalues --  -10.35785 -10.34911 -10.29278 -10.29224 -10.28075
 Alpha  occ. eigenvalues --  -10.25285  -1.24053  -1.20625  -1.18331  -1.15212
 Alpha  occ. eigenvalues --   -1.09029  -1.06664  -0.96849  -0.94619  -0.91137
 Alpha  occ. eigenvalues --   -0.85519  -0.83357  -0.79155  -0.78664  -0.77674
 Alpha  occ. eigenvalues --   -0.74857  -0.71594  -0.69404  -0.68956  -0.66723
 Alpha  occ. eigenvalues --   -0.65489  -0.64744  -0.63082  -0.61596  -0.60086
 Alpha  occ. eigenvalues --   -0.59923  -0.58368  -0.57849  -0.55990  -0.54915
 Alpha  occ. eigenvalues --   -0.54092  -0.53562  -0.51984  -0.50800  -0.49657
 Alpha  occ. eigenvalues --   -0.48688  -0.48486  -0.47935  -0.45480  -0.41446
 Alpha  occ. eigenvalues --   -0.40268  -0.40044  -0.35797  -0.34065  -0.30537
 Alpha virt. eigenvalues --   -0.20110  -0.14671  -0.14261  -0.13499  -0.12465
 Alpha virt. eigenvalues --   -0.11995  -0.10820  -0.09954  -0.09382  -0.08608
 Alpha virt. eigenvalues --   -0.07908  -0.07358  -0.06620  -0.05999  -0.05800

 Mulliken charges:
               1
     1  O   -0.376647
     2  C   -0.095772
     3  N    0.147438
     4  C   -0.166968
     5  C    0.309923
     6  O   -0.239732
     7  O   -0.388217
     8  C    0.280806
     9  C    0.003460
    10  C   -0.276359
    11  N   -0.278272
    12  C    0.115280
    13  N    0.010012
    14  C    0.093192
    15  C   -0.292613
    16  N    0.300512
    17  H    0.148806
    18  H    0.112352
    19  H    0.272446
    20  H    0.090768
    21  H    0.065061
    22  H    0.072050
    23  H    0.112194
    24  H    0.144956
    25  H    0.055065
    26  H    0.049929
    27  H    0.108448
    28  H    0.134558
    29  H    0.162716
    30  H    0.160863
    31  H    0.163743
 Sum of Mulliken charges =   1.00000

 Dipole moment (field-independent basis, Debye):
    X=            -19.4810    Y=              2.9315    Z=             -1.6190  Tot=             19.7667
 Quadrupole moment (field-independent basis, Debye-Ang):
   XX=             29.0939   YY=            -89.5221   ZZ=            -91.6931
   XY=             -0.8429   XZ=            -44.0558   YZ=              3.2421

  Exact polarizability: 186.292  -2.794 102.725   1.877 -13.646 146.201
 Approx polarizability: 232.586   5.408 158.429   9.788 -17.459 235.056

                      1                      2                      3
                      A                      A                      A
 Frequencies --     23.4389                24.5329                35.3927
 Red. masses --      1.9272                 4.1911                 4.1744
 Frc consts  --      0.0006                 0.0015                 0.0031
 IR Inten    --      2.6307                 4.1115                12.3959

                      4                      5                      6
                      A                      A                      A
 Frequencies --     40.7417                60.1358                73.7962
 Red. masses --      4.9061                 6.7667                 7.9389
 Frc consts  --      0.0048                 0.0144                 0.0255
 IR Inten    --     10.1361                 2.9114                11.2377

                      7                      8                      9
                      A                      A                      A
 Frequencies --     92.0449               112.3450               122.8781
 Red. masses --      3.9507                 4.4980                 4.8846
 Frc consts  --      0.0197                 0.0334                 0.0435
 IR Inten    --      3.4111                 8.3357                 3.4682

                     10                     11                     12
                      A                      A                      A
 Frequencies --    185.8133               215.4306               231.7142
 Red. masses --      4.8472                 2.0078                 1.5681
 Frc consts  --      0.0986                 0.0549                 0.0496
 IR Inten    --      2.4169                10.0744                 3.2639

                     13                     14                     15
                      A                      A                      A
 Frequencies --    268.3221               305.8358               329.6224
 Red. masses --      5.2631                 2.9602                 3.3921
 Frc consts  --      0.2233                 0.1631                 0.2171
 IR Inten    --     19.4504                 2.1806                 3.0883

                     16                     17                     18
                      A                      A                      A
 Frequencies --    345.0561               373.3649               386.3278
 Red. masses --      6.0685                 3.8531                 3.9687
 Frc consts  --      0.4257                 0.3165                 0.3490
 IR Inten    --     11.9044                 4.7990                12.8223

                     19                     20                     21
                      A                      A                      A
 Frequencies --    536.7504               545.3624               562.0586
 Red. masses --      2.7300                 1.5067                 1.8401
 Frc consts  --      0.4634                 0.2640                 0.3425
 IR Inten    --     39.2878                89.4358                13.0610

                     22                     23                     24
                      A                      A                      A
 Frequencies --    596.6144               638.2606               645.9514
 Red. masses --      1.6689                 2.8838                 1.6948
 Frc consts  --      0.3500                 0.6922                 0.4166
 IR Inten    --     43.8011                45.8586                13.3686

                     25                     26                     27
                      A                      A                      A
 Frequencies --    664.4560               680.0529               711.6328
 Red. masses --      2.2077                 2.8520                 3.9001
 Frc consts  --      0.5743                 0.7771                 1.1637
 IR Inten    --     72.3984                 7.5616                 1.9189

                     28                     29                     30
                      A                      A                      A
 Frequencies --    739.4030               769.3122               796.2020
 Red. masses --      3.2955                 3.2435                 1.4194
 Frc consts  --      1.0615                 1.1310                 0.5302
 IR Inten    --     20.9381                 8.0825                10.5439

                     31                     32                     33
                      A                      A                      A
 Frequencies --    818.8754               839.7445               868.2332
 Red. masses --      2.5962                 1.4143                 1.4548
 Frc consts  --      1.0257                 0.5876                 0.6461
 IR Inten    --     12.3728                20.2292                14.7585

                     34                     35                     36
                      A                      A                      A
 Frequencies --    883.3137               917.4757               923.7163
 Red. masses --      2.7006                 1.2877                 3.6722
 Frc consts  --      1.2415                 0.6386                 1.8461
 IR Inten    --     30.9892                 3.4120                21.9607

                     37                     38                     39
                      A                      A                      A
 Frequencies --    933.1330               977.7759               999.9775
 Red. masses --      5.6594                 2.2115                 4.6784
 Frc consts  --      2.9034                 1.2457                 2.7563
 IR Inten    --     10.3540                16.6490                 3.5883

                     40                     41                     42
                      A                      A                      A
 Frequencies --   1007.9558              1026.8547              1079.7326
 Red. masses --      3.1580                 3.6466                 2.5231
 Frc consts  --      1.8904                 2.2654                 1.7331
 IR Inten    --     38.1729                15.0374                42.8071

                     43                     44                     45
                      A                      A                      A
 Frequencies --   1107.7507              1110.5132              1140.7030
 Red. masses --      1.8027                 1.6499                 2.2309
 Frc consts  --      1.3033                 1.1988                 1.7103
 IR Inten    --     21.1891                32.1118                 4.3278

                     46                     47                     48
                      A                      A                      A
 Frequencies --   1148.7593              1186.2701              1189.9448
 Red. masses --      2.1019                 2.4805                 1.3379
 Frc consts  --      1.6343                 2.0567                 1.1161
 IR Inten    --     21.4203               142.2353                41.8749

                     49                     50                     51
                      A                      A                      A
 Frequencies --   1240.3154              1263.5369              1280.2417
 Red. masses --      1.6236                 2.3008                 1.4437
 Frc consts  --      1.4716                 2.1643                 1.3941
 IR Inten    --     23.7145                 8.6557                 3.9689

                     52                     53                     54
                      A                      A                      A
 Frequencies --   1288.5166              1306.8586              1319.3249
 Red. masses --      1.3063                 1.3571                 1.2234
 Frc consts  --      1.2778                 1.3656                 1.2546
 IR Inten    --      2.5179                 4.3643                 4.4805

                     55                     56                     57
                      A                      A                      A
 Frequencies --   1329.2466              1354.2492              1357.9151
 Red. masses --      1.2387                 1.4191                 1.4500
 Frc consts  --      1.2896                 1.5334                 1.5753
 IR Inten    --      7.5415                19.6623                26.8180

                     58                     59                     60
                      A                      A                      A
 Frequencies --   1389.4263              1407.2384              1415.3779
 Red. masses --      3.2978                 1.3338                 2.3733
 Frc consts  --      3.7510                 1.5562                 2.8012
 IR Inten    --     43.9554                28.6145                89.6736

                     61                     62                     63
                      A                      A                      A
 Frequencies --   1427.7516              1476.9573              1480.5498
 Red. masses --      2.7348                 1.1386                 1.1121
 Frc consts  --      3.2846                 1.4633                 1.4363
 IR Inten    --     30.4323                22.8866                 1.1150

                     64                     65                     66
                      A                      A                      A
 Frequencies --   1497.3626              1506.2378              1513.8724
 Red. masses --      3.2454                 1.0763                 1.1760
 Frc consts  --      4.2872                 1.4387                 1.5879
 IR Inten    --     25.5495                30.8732               171.1773

                     67                     68                     69
                      A                      A                      A
 Frequencies --   1537.8520              1601.5766              1665.5153
 Red. masses --      2.2150                 4.1928                 1.0428
 Frc consts  --      3.0864                 6.3365                 1.7043
 IR Inten    --    296.1616                 4.4312                45.2788

                     70                     71                     72
                      A                      A                      A
 Frequencies --   1669.5406              1742.5603              1799.5499
 Red. masses --      1.0443                 9.8076                 9.5444
 Frc consts  --      1.7151                17.5464                18.2108
 IR Inten    --     38.6019               274.4675               306.9068

                     73                     74                     75
                      A                      A                      A
 Frequencies --   3026.2129              3031.1644              3066.6468
 Red. masses --      1.0632                 1.0702                 1.0833
 Frc consts  --      5.7370                 5.7932                 6.0024
 IR Inten    --      4.0494                19.9994                 5.6112

                     76                     77                     78
                      A                      A                      A
 Frequencies --   3080.8035              3099.2267              3110.5969
 Red. masses --      1.1001                 1.0597                 1.0933
 Frc consts  --      6.1519                 5.9968                 6.2328
 IR Inten    --      4.8363                 4.7216                 3.6674

                     79                     80                     81
                      A                      A                      A
 Frequencies --   3157.5003              3238.9719              3248.3389
 Red. masses --      1.1113                 1.0961                 1.0983
 Frc consts  --      6.5277                 6.7752                 6.8280
 IR Inten    --      2.9547                 4.3127                 1.1204

                     82                     83                     84
                      A                      A                      A
 Frequencies --   3404.4914              3481.8638              3484.0225
 Red. masses --      1.0297                 1.0929                 1.0931
 Frc consts  --      7.0319                 7.8066                 7.8179
 IR Inten    --     53.2289                90.5350                88.2025

                     85                     86                     87
                      A                      A                      A
 Frequencies --   3560.8037              3659.6557              3731.3105
 Red. masses --      1.0779                 1.0809                 1.0644
 Frc consts  --      8.0526                 8.5293                 8.7313
 IR Inten    --    114.3360                74.2101               126.4081

 - Thermochemistry -
 -------------------
 Temperature   298.150 Kelvin.  Pressure   1.00000 Atm.
 Atom     1 has atomic number  8 and mass  15.99491

 Molecular mass:   227.11442 amu.
 Principal axes and moments of inertia in atomic units:
                           1         2         3
     Eigenvalues --  2212.203587125.890629040.01775
           X            0.98915  -0.00716   0.14673
           Y           -0.13877  -0.37328   0.91728
           Z           -0.04820   0.92769   0.37023
 This molecule is an asymmetric top.
 Rotational symmetry number  1.
 Warning -- assumption of classical behavior for rotation
           may cause significant error
 Rotational temperatures (Kelvin)      0.03915     0.01215     0.00958
 Rotational constants (GHZ):           0.81581     0.25327     0.19964
 Zero-point vibrational energy     679040.8 (Joules/Mol)
                                  162.29465 (Kcal/Mol)
 Warning -- explicit consideration of  22 degrees of freedom as
           vibrations may cause significant error
 Vibrational temperatures:     33.72    35.30    50.92    58.62    86.52
          (Kelvin)            106.18   132.43   161.64   176.79   267.34
                              309.96   333.38   386.06   440.03   474.25
                              496.46   537.19   555.84   772.26   784.65
                              808.68   858.39   918.31   929.38   956.00
                              978.44  1023.88  1063.83  1106.87  1145.56
                             1178.18  1208.20  1249.19  1270.89  1320.04
                             1329.02  1342.57  1406.80  1438.74  1450.22
                             1477.41  1553.49  1593.80  1597.78  1641.22
                             1652.81  1706.78  1712.06  1784.53  1817.95
                             1841.98  1853.89  1880.28  1898.21  1912.49
                             1948.46  1953.73  1999.07  2024.70  2036.41
                             2054.21  2125.01  2130.18  2154.37  2167.14
                             2178.12  2212.62  2304.31  2396.30  2402.09
                             2507.15  2589.15  4354.04  4361.16  4412.22
                             4432.58  4459.09  4475.45  4542.93  4660.15
                             4673.63  4898.30  5009.62  5012.72  5123.20
                             5265.42  5368.52

 Zero-point correction=                           0.258633 (Hartree/Particle)
 Thermal correction to Energy=                    0.275144
 Thermal correction to Enthalpy=                  0.276088
 Thermal correction to Gibbs Free Energy=         0.210722
 Sum of electronic and zero-point Energies=           -796.481348
 Sum of electronic and thermal Energies=              -796.464837
 Sum of electronic and thermal Enthalpies=            -796.463892
 Sum of electronic and thermal Free Energies=         -796.529259

                     E (Thermal)             CV                S
                      KCal/Mol        Cal/Mol-Kelvin    Cal/Mol-Kelvin
 Total                  172.656             59.099            137.576
 Electronic               0.000              0.000              0.000
 Translational            0.889              2.981             42.163
 Rotational               0.889              2.981             33.321
 Vibrational            170.878             53.137             62.092
 Vibration     1          0.593              1.985              6.319
 Vibration     2          0.593              1.985              6.229
 Vibration     3          0.594              1.982              5.502
 Vibration     4          0.594              1.981              5.223
 Vibration     5          0.597              1.973              4.453
 Vibration     6          0.599              1.966              4.049
 Vibration     7          0.602              1.955              3.616
 Vibration     8          0.607              1.939              3.228
 Vibration     9          0.610              1.930              3.055
 Vibration    10          0.632              1.859              2.269
 Vibration    11          0.645              1.818              1.997
 Vibration    12          0.653              1.792              1.866
 Vibration    13          0.673              1.731              1.607
 Vibration    14          0.696              1.663              1.385
 Vibration    15          0.712              1.616              1.262
 Vibration    16          0.723              1.585              1.189
 Vibration    17          0.745              1.527              1.066
 Vibration    18          0.755              1.499              1.014
 Vibration    19          0.892              1.169              0.572
 Vibration    20          0.901              1.150              0.554
 Vibration    21          0.918              1.113              0.520
 Vibration    22          0.954              1.039              0.456

 Optimization completed on the basis of negligible forces.
    -- Stationary point found.
 Normal termination of Gaussian 09 at Thu Jul 29 11:18:13 2021.
