 Gaussian 09, Revision D.01,
 Gaussian 09:  ES64L-G09RevD.01 24-Apr-2013

 ----------------------------------------------------------------------
 # B3LYP/6-311++G(2df,2pd) guess=read geom=checkpoint opt=readfc freq=n
 oraman nosymm integral(ultrafinegrid)
 ----------------------------------------------------------------------

 ------------------------------------------------------------
 Candidate Structure: Conf:580 OPT and FREQ calc in gas phase
 ------------------------------------------------------------
 Structure from the checkpoint file:  "conf-580.chk"
 Charge =  1 Multiplicity = 1

 SCF Done:  E(RB3LYP) =  -796.740040114     A.U. after   13 cycles
 SCF Done:  E(RB3LYP) =  -796.740751969     A.U. after   12 cycles
 SCF Done:  E(RB3LYP) =  -796.740759786     A.U. after   10 cycles
 SCF Done:  E(RB3LYP) =  -796.740760075     A.U. after    9 cycles
 SCF Done:  E(RB3LYP) =  -796.740760154     A.U. after    9 cycles
 SCF Done:  E(RB3LYP) =  -796.740760165     A.U. after    8 cycles
 Optimization completed.
    -- Stationary point found.
 Normal termination of Gaussian 09 at Thu Jul 29 04:41:00 2021.

 ----------------------------------------------------------------------
 #N Geom=AllCheck Guess=TCheck SCRF=Check GenChk RB3LYP/6-311++G(2df,2p
 d) Freq
 ----------------------------------------------------------------------

 Structure from the checkpoint file:  "conf-580.chk"
 ------------------------------------------------------------
 Candidate Structure: Conf:580 OPT and FREQ calc in gas phase
 ------------------------------------------------------------
 Charge =  1 Multiplicity = 1

                          Input orientation:
 ---------------------------------------------------------------------
 Center     Atomic      Atomic             Coordinates (Angstroms)
 Number     Number       Type             X           Y           Z
 ---------------------------------------------------------------------
      1          8           0        1.309206    0.319108   -1.245791
      2          6           0        1.466318    0.321078   -0.034605
      3          7           0        0.474322    0.346308    0.866307
      4          6           0       -0.935989    0.371500    0.497705
      5          6           0       -1.673291    0.975445    1.683659
      6          8           0       -2.844518    1.500722    1.334293
      7          8           0       -1.234276    0.956931    2.807716
      8          6           0       -1.448080   -1.065698    0.168934
      9          6           0       -2.853970   -1.161695   -0.304189
     10          6           0       -3.984146   -1.642910    0.302272
     11          7           0       -5.072791   -1.525820   -0.524129
     12          6           0       -4.620266   -0.981712   -1.624564
     13          7           0       -3.280202   -0.737153   -1.548426
     14          6           0        2.891120    0.263498    0.552405
     15          6           0        3.846542    0.855393   -0.468022
     16          7           0        5.294861    0.547016   -0.111365
     17          1           0        0.657035    0.385148    1.860252
     18          1           0       -1.061810    1.010886   -0.374080
     19          1           0       -3.305501    1.807047    2.131024
     20          1           0       -1.340378   -1.677174    1.065430
     21          1           0       -0.758546   -1.466785   -0.577172
     22          1           0       -4.067974   -2.072133    1.287257
     23          1           0       -5.200797   -0.746065   -2.500934
     24          1           0       -2.707977   -0.354994   -2.282207
     25          1           0        3.123253   -0.791608    0.728159
     26          1           0        2.949300    0.781280    1.510960
     27          1           0        3.662872    0.435549   -1.453327
     28          1           0        3.771738    1.938408   -0.530662
     29          1           0        5.935954    0.938204   -0.804633
     30          1           0        5.551408    0.932027    0.799806
     31          1           0        5.456776   -0.461651   -0.074884
 ---------------------------------------------------------------------

 SCF Done:  E(RB3LYP) =  -796.740760166     A.U. after    1 cycles

 Alpha  occ. eigenvalues --  -19.28270 -19.22988 -19.22895 -14.64153 -14.47533
 Alpha  occ. eigenvalues --  -14.44549 -14.36331 -10.41929 -10.41924 -10.41770
 Alpha  occ. eigenvalues --  -10.35954 -10.34611 -10.29618 -10.29359 -10.28435
 Alpha  occ. eigenvalues --  -10.25625  -1.22738  -1.20814  -1.18425  -1.13994
 Alpha  occ. eigenvalues --   -1.09413  -1.06784  -0.97044  -0.95034  -0.91149
 Alpha  occ. eigenvalues --   -0.85714  -0.83267  -0.79339  -0.78786  -0.77872
 Alpha  occ. eigenvalues --   -0.74411  -0.71687  -0.69591  -0.69210  -0.67135
 Alpha  occ. eigenvalues --   -0.65572  -0.64652  -0.62593  -0.61206  -0.60200
 Alpha  occ. eigenvalues --   -0.59146  -0.58372  -0.57751  -0.55982  -0.54569
 Alpha  occ. eigenvalues --   -0.53992  -0.53173  -0.51702  -0.51217  -0.50151
 Alpha  occ. eigenvalues --   -0.48960  -0.48499  -0.47658  -0.44045  -0.41031
 Alpha  occ. eigenvalues --   -0.40261  -0.39812  -0.36180  -0.34383  -0.30805
 Alpha virt. eigenvalues --   -0.20276  -0.14830  -0.14419  -0.13662  -0.12299
 Alpha virt. eigenvalues --   -0.11468  -0.10871  -0.09669  -0.09102  -0.08580
 Alpha virt. eigenvalues --   -0.08149  -0.07496  -0.06847  -0.06284  -0.06235

 Mulliken charges:
               1
     1  O   -0.392696
     2  C   -0.051252
     3  N    0.136810
     4  C   -0.171600
     5  C    0.157332
     6  O   -0.142470
     7  O   -0.391740
     8  C   -0.239267
     9  C    0.602821
    10  C   -0.470071
    11  N   -0.254080
    12  C    0.180737
    13  N   -0.002425
    14  C    0.148486
    15  C   -0.289981
    16  N    0.300830
    17  H    0.150601
    18  H    0.132934
    19  H    0.246097
    20  H    0.095031
    21  H    0.089590
    22  H    0.076510
    23  H    0.114384
    24  H    0.134617
    25  H    0.058603
    26  H    0.051692
    27  H    0.132069
    28  H    0.108546
    29  H    0.160778
    30  H    0.164420
    31  H    0.162694
 Sum of Mulliken charges =   1.00000

 Dipole moment (field-independent basis, Debye):
    X=             21.9892    Y=              3.7975    Z=              0.1199  Tot=             22.3150
 Quadrupole moment (field-independent basis, Debye-Ang):
   XX=             17.5178   YY=            -88.9828   ZZ=            -86.9931
   XY=              1.7764   XZ=              2.9483   YZ=              0.2083

  Exact polarizability: 192.224  10.107 107.237   4.920  -0.118 138.278
 Approx polarizability: 236.581   5.672 163.054   5.154 -11.296 229.189

                      1                      2                      3
                      A                      A                      A
 Frequencies --     19.7576                28.0505                38.1973
 Red. masses --      5.1957                 2.5945                 2.3833
 Frc consts  --      0.0012                 0.0012                 0.0020
 IR Inten    --      0.7303                 1.2336                 7.9657

                      4                      5                      6
                      A                      A                      A
 Frequencies --     50.9869                67.7045                70.5178
 Red. masses --      5.7867                 6.0092                 5.8092
 Frc consts  --      0.0089                 0.0162                 0.0170
 IR Inten    --     10.8934                 8.3183                 2.5596

                      7                      8                      9
                      A                      A                      A
 Frequencies --     75.3846               106.9685               117.3291
 Red. masses --      6.1626                 3.9160                 4.4059
 Frc consts  --      0.0206                 0.0264                 0.0357
 IR Inten    --      8.6731                 3.0453                10.5056

                     10                     11                     12
                      A                      A                      A
 Frequencies --    178.7820               215.5905               231.1022
 Red. masses --      5.1614                 2.0089                 1.5541
 Frc consts  --      0.0972                 0.0550                 0.0489
 IR Inten    --      4.7695                 9.3587                 3.2889

                     13                     14                     15
                      A                      A                      A
 Frequencies --    260.1612               318.4748               332.1204
 Red. masses --      5.4983                 6.5339                 2.1161
 Frc consts  --      0.2193                 0.3905                 0.1375
 IR Inten    --     11.5688                 7.8142                 4.5376

                     16                     17                     18
                      A                      A                      A
 Frequencies --    343.1815               365.2640               388.5715
 Red. masses --      6.2849                 3.7631                 3.9328
 Frc consts  --      0.4361                 0.2958                 0.3499
 IR Inten    --     13.6798                 6.9287                 5.2258

                     19                     20                     21
                      A                      A                      A
 Frequencies --    523.1994               533.0213               566.0703
 Red. masses --      1.3973                 3.6957                 1.8175
 Frc consts  --      0.2254                 0.6186                 0.3431
 IR Inten    --     62.2339                58.3486                19.3809

                     22                     23                     24
                      A                      A                      A
 Frequencies --    608.7423               630.5392               651.4265
 Red. masses --      1.2309                 4.3773                 1.5813
 Frc consts  --      0.2687                 1.0254                 0.3954
 IR Inten    --    108.6572                11.0013                25.9850

                     25                     26                     27
                      A                      A                      A
 Frequencies --    664.0656               678.6620               714.3597
 Red. masses --      2.6342                 3.0455                 3.8146
 Frc consts  --      0.6844                 0.8265                 1.1469
 IR Inten    --     33.0488                12.5466                 1.4474

                     28                     29                     30
                      A                      A                      A
 Frequencies --    756.1072               767.6445               793.3132
 Red. masses --      3.7691                 3.5504                 1.3856
 Frc consts  --      1.2696                 1.2327                 0.5138
 IR Inten    --     15.4171                 8.3445                14.1729

                     31                     32                     33
                      A                      A                      A
 Frequencies --    813.2737               839.2491               869.8040
 Red. masses --      2.3419                 1.4162                 1.4616
 Frc consts  --      0.9126                 0.5877                 0.6515
 IR Inten    --      5.8230                18.1433                16.5049

                     34                     35                     36
                      A                      A                      A
 Frequencies --    882.9699               917.4309               929.2654
 Red. masses --      2.7160                 1.2833                 4.6613
 Frc consts  --      1.2476                 0.6364                 2.3716
 IR Inten    --     33.5653                 3.5872                 1.5033

                     37                     38                     39
                      A                      A                      A
 Frequencies --    933.4891               981.2800               994.5718
 Red. masses --      4.4876                 2.1410                 3.9990
 Frc consts  --      2.3040                 1.2147                 2.3306
 IR Inten    --     27.6231                15.7627                19.2890

                     40                     41                     42
                      A                      A                      A
 Frequencies --   1015.1737              1031.6909              1079.1601
 Red. masses --      3.2238                 3.1189                 2.6575
 Frc consts  --      1.9575                 1.9559                 1.8235
 IR Inten    --     33.0883                 2.3041                30.3737

                     43                     44                     45
                      A                      A                      A
 Frequencies --   1105.2056              1108.9311              1141.6485
 Red. masses --      1.6836                 1.7862                 2.2957
 Frc consts  --      1.2117                 1.2942                 1.7629
 IR Inten    --     17.2935                19.5698                 7.9704

                     46                     47                     48
                      A                      A                      A
 Frequencies --   1146.9372              1168.9812              1194.8480
 Red. masses --      2.1260                 1.6492                 1.7769
 Frc consts  --      1.6477                 1.3278                 1.4946
 IR Inten    --     22.1466                65.8696                97.0241

                     49                     50                     51
                      A                      A                      A
 Frequencies --   1238.0627              1261.0710              1280.6036
 Red. masses --      1.5328                 2.3645                 1.3880
 Frc consts  --      1.3843                 2.2154                 1.3411
 IR Inten    --     18.1047                 9.7227                 3.6849

                     52                     53                     54
                      A                      A                      A
 Frequencies --   1290.0722              1301.9682              1325.8241
 Red. masses --      1.3048                 1.3642                 1.2806
 Frc consts  --      1.2795                 1.3625                 1.3262
 IR Inten    --      1.9492                 4.0090                12.7097

                     55                     56                     57
                      A                      A                      A
 Frequencies --   1331.1924              1353.3231              1360.7437
 Red. masses --      1.3381                 1.3190                 1.4361
 Frc consts  --      1.3971                 1.4233                 1.5667
 IR Inten    --      3.7002                 3.1622                23.2497

                     58                     59                     60
                      A                      A                      A
 Frequencies --   1386.8703              1407.0257              1426.9167
 Red. masses --      3.1599                 1.3340                 2.6870
 Frc consts  --      3.5809                 1.5561                 3.2234
 IR Inten    --      5.1395                28.1224                39.7382

                     61                     62                     63
                      A                      A                      A
 Frequencies --   1430.6157              1480.4901              1484.4899
 Red. masses --      2.6914                 1.1120                 1.1382
 Frc consts  --      3.2455                 1.4361                 1.4778
 IR Inten    --    157.7703                 1.1153                11.3912

                     64                     65                     66
                      A                      A                      A
 Frequencies --   1498.1850              1506.5937              1514.2922
 Red. masses --      3.3129                 1.0758                 1.1752
 Frc consts  --      4.3811                 1.4387                 1.5878
 IR Inten    --     34.3492                27.6648               163.8405

                     67                     68                     69
                      A                      A                      A
 Frequencies --   1542.1956              1607.5764              1665.3539
 Red. masses --      2.2729                 4.3380                 1.0427
 Frc consts  --      3.1849                 6.6051                 1.7038
 IR Inten    --    292.6537                 6.6966                45.9099

                     70                     71                     72
                      A                      A                      A
 Frequencies --   1669.6385              1735.2991              1794.8225
 Red. masses --      1.0445                 9.9296                 9.6730
 Frc consts  --      1.7155                17.6169                18.3592
 IR Inten    --     39.4119               330.8189               284.9656

                     73                     74                     75
                      A                      A                      A
 Frequencies --   3026.3299              3038.4146              3081.2178
 Red. masses --      1.0632                 1.0623                 1.1001
 Frc consts  --      5.7371                 5.7782                 6.1536
 IR Inten    --      3.8881                15.5261                 4.9737

                     76                     77                     78
                      A                      A                      A
 Frequencies --   3084.3872              3099.2123              3103.0843
 Red. masses --      1.0974                 1.0597                 1.0887
 Frc consts  --      6.1509                 5.9972                 6.1764
 IR Inten    --      3.7004                 4.5611                 3.6520

                     79                     80                     81
                      A                      A                      A
 Frequencies --   3157.8396              3235.5225              3248.9764
 Red. masses --      1.1112                 1.0965                 1.0981
 Frc consts  --      6.5287                 6.7632                 6.8295
 IR Inten    --      2.6058                 3.9354                 1.2575

                     82                     83                     84
                      A                      A                      A
 Frequencies --   3404.2184              3481.5810              3483.5835
 Red. masses --      1.0297                 1.0929                 1.0931
 Frc consts  --      7.0309                 7.8054                 7.8159
 IR Inten    --     53.8033                89.7618                90.0877

                     85                     86                     87
                      A                      A                      A
 Frequencies --   3562.0679              3644.1567              3733.3741
 Red. masses --      1.0781                 1.0812                 1.0644
 Frc consts  --      8.0595                 8.4595                 8.7413
 IR Inten    --    106.5495                48.8503               113.9297

 - Thermochemistry -
 -------------------
 Temperature   298.150 Kelvin.  Pressure   1.00000 Atm.
 Atom     1 has atomic number  8 and mass  15.99491

 Molecular mass:   227.11442 amu.
 Principal axes and moments of inertia in atomic units:
                           1         2         3
     Eigenvalues --  1713.230758074.508439168.10354
           X            0.98309  -0.11262  -0.14443
           Y            0.18022   0.45431   0.87242
           Z            0.03264   0.88369  -0.46692
 This molecule is an asymmetric top.
 Rotational symmetry number  1.
 Warning -- assumption of classical behavior for rotation
           may cause significant error
 Rotational temperatures (Kelvin)      0.05056     0.01073     0.00945
 Rotational constants (GHZ):           1.05341     0.22351     0.19685
 Zero-point vibrational energy     679038.7 (Joules/Mol)
                                  162.29413 (Kcal/Mol)
 Warning -- explicit consideration of  22 degrees of freedom as
           vibrations may cause significant error
 Vibrational temperatures:     28.43    40.36    54.96    73.36    97.41
          (Kelvin)            101.46   108.46   153.90   168.81   257.23
                              310.19   332.50   374.31   458.21   477.85
                              493.76   525.53   559.07   752.77   766.90
                              814.45   875.84   907.20   937.26   955.44
                              976.44  1027.80  1087.87  1104.47  1141.40
                             1170.12  1207.49  1251.45  1270.40  1319.98
                             1337.00  1343.08  1411.84  1430.97  1460.61
                             1484.37  1552.67  1590.14  1595.50  1642.58
                             1650.18  1681.90  1719.12  1781.29  1814.40
                             1842.50  1856.12  1873.24  1907.56  1915.29
                             1947.13  1957.80  1995.39  2024.39  2053.01
                             2058.33  2130.09  2135.85  2155.55  2167.65
                             2178.73  2218.87  2312.94  2396.07  2402.23
                             2496.71  2582.35  4354.21  4371.60  4433.18
                             4437.74  4459.07  4464.64  4543.42  4655.19
                             4674.55  4897.90  5009.21  5012.09  5125.01
                             5243.12  5371.49

 Zero-point correction=                           0.258632 (Hartree/Particle)
 Thermal correction to Energy=                    0.275178
 Thermal correction to Enthalpy=                  0.276123
 Thermal correction to Gibbs Free Energy=         0.210805
 Sum of electronic and zero-point Energies=           -796.482128
 Sum of electronic and thermal Energies=              -796.465582
 Sum of electronic and thermal Enthalpies=            -796.464637
 Sum of electronic and thermal Free Energies=         -796.529955

                     E (Thermal)             CV                S
                      KCal/Mol        Cal/Mol-Kelvin    Cal/Mol-Kelvin
 Total                  172.677             59.122            137.472
 Electronic               0.000              0.000              0.000
 Translational            0.889              2.981             42.163
 Rotational               0.889              2.981             33.205
 Vibrational            170.900             53.160             62.104
 Vibration     1          0.593              1.986              6.658
 Vibration     2          0.593              1.984              5.963
 Vibration     3          0.594              1.982              5.350
 Vibration     4          0.595              1.977              4.779
 Vibration     5          0.598              1.970              4.219
 Vibration     6          0.598              1.968              4.139
 Vibration     7          0.599              1.965              4.008
 Vibration     8          0.606              1.944              3.323
 Vibration     9          0.608              1.935              3.144
 Vibration    10          0.629              1.868              2.341
 Vibration    11          0.645              1.817              1.996
 Vibration    12          0.653              1.793              1.870
 Vibration    13          0.668              1.746              1.661
 Vibration    14          0.705              1.638              1.318
 Vibration    15          0.714              1.611              1.250
 Vibration    16          0.722              1.589              1.197
 Vibration    17          0.738              1.544              1.100
 Vibration    18          0.757              1.495              1.006
 Vibration    19          0.878              1.199              0.603
 Vibration    20          0.888              1.177              0.580
 Vibration    21          0.922              1.105              0.512
 Vibration    22          0.968              1.013              0.435

 Optimization completed.
    -- Stationary point found.
 Normal termination of Gaussian 09 at Thu Jul 29 11:00:36 2021.
