 Gaussian 09, Revision D.01,
 Gaussian 09:  ES64L-G09RevD.01 24-Apr-2013

 ----------------------------------------------------------------------
 # B3LYP/6-311++G(2df,2pd) guess=read geom=checkpoint opt=readfc freq=n
 oraman nosymm integral(ultrafinegrid)
 ----------------------------------------------------------------------

 ------------------------------------------------------------
 Candidate Structure: Conf:885 OPT and FREQ calc in gas phase
 ------------------------------------------------------------
 Structure from the checkpoint file:  "conf-885.chk"
 Charge =  1 Multiplicity = 1

 SCF Done:  E(RB3LYP) =  -796.754376236     A.U. after   12 cycles
 SCF Done:  E(RB3LYP) =  -796.755254506     A.U. after   11 cycles
 SCF Done:  E(RB3LYP) =  -796.755268682     A.U. after   11 cycles
 SCF Done:  E(RB3LYP) =  -796.755269530     A.U. after    9 cycles
 SCF Done:  E(RB3LYP) =  -796.755269586     A.U. after    7 cycles
 SCF Done:  E(RB3LYP) =  -796.755269592     A.U. after    8 cycles
 Optimization completed.
    -- Stationary point found.
 Normal termination of Gaussian 09 at Thu Jul 29 04:44:27 2021.

 ----------------------------------------------------------------------
 #N Geom=AllCheck Guess=TCheck SCRF=Check GenChk RB3LYP/6-311++G(2df,2p
 d) Freq
 ----------------------------------------------------------------------

 Structure from the checkpoint file:  "conf-885.chk"
 ------------------------------------------------------------
 Candidate Structure: Conf:885 OPT and FREQ calc in gas phase
 ------------------------------------------------------------
 Charge =  1 Multiplicity = 1

                          Input orientation:
 ---------------------------------------------------------------------
 Center     Atomic      Atomic             Coordinates (Angstroms)
 Number     Number       Type             X           Y           Z
 ---------------------------------------------------------------------
      1          8           0       -1.560559    0.338153   -0.703445
      2          6           0       -1.523436   -0.762179   -0.132136
      3          7           0       -0.413239   -1.281821    0.401023
      4          6           0        0.819941   -0.530162    0.655218
      5          6           0        0.539428    0.502676    1.758299
      6          8           0        1.674722    0.996517    2.249872
      7          8           0       -0.561102    0.801397    2.145154
      8          6           0        1.439499    0.061718   -0.648876
      9          6           0        2.817598    0.605302   -0.522294
     10          6           0        3.282152    1.892059   -0.581425
     11          7           0        4.643367    1.932338   -0.422467
     12          6           0        5.015334    0.687611   -0.270603
     13          7           0        3.949248   -0.163635   -0.319146
     14          6           0       -2.808763   -1.577340   -0.032199
     15          6           0       -3.967304   -0.682825    0.422558
     16          7           0       -4.097735    0.493327   -0.516633
     17          1           0       -0.513239   -2.152978    0.896062
     18          1           0        1.528542   -1.246182    1.070840
     19          1           0        1.467013    1.656396    2.929724
     20          1           0        1.406214   -0.744213   -1.387424
     21          1           0        0.791639    0.849567   -1.021831
     22          1           0        2.705653    2.790075   -0.731402
     23          1           0        6.024861    0.339474   -0.128092
     24          1           0        4.002265   -1.167211   -0.280186
     25          1           0       -3.020634   -2.007891   -1.014019
     26          1           0       -2.722966   -2.405436    0.669171
     27          1           0       -4.908771   -1.224410    0.449894
     28          1           0       -3.768191   -0.269323    1.408774
     29          1           0       -4.596030    0.252146   -1.371809
     30          1           0       -4.570882    1.283563   -0.083119
     31          1           0       -3.074538    0.733365   -0.757485
 ---------------------------------------------------------------------

 SCF Done:  E(RB3LYP) =  -796.755269592     A.U. after    1 cycles

 Alpha  occ. eigenvalues --  -19.29321 -19.26370 -19.24015 -14.58164 -14.50440
 Alpha  occ. eigenvalues --  -14.45581 -14.37236 -10.44528 -10.43179 -10.40534
 Alpha  occ. eigenvalues --  -10.36944 -10.36021 -10.30562 -10.30559 -10.29417
 Alpha  occ. eigenvalues --  -10.26560  -1.23879  -1.21664  -1.15568  -1.14986
 Alpha  occ. eigenvalues --   -1.10386  -1.09444  -0.96502  -0.95896  -0.92281
 Alpha  occ. eigenvalues --   -0.85959  -0.83076  -0.79058  -0.77723  -0.75215
 Alpha  occ. eigenvalues --   -0.74167  -0.72476  -0.70298  -0.68708  -0.67808
 Alpha  occ. eigenvalues --   -0.66388  -0.64463  -0.63191  -0.62627  -0.61034
 Alpha  occ. eigenvalues --   -0.60156  -0.59026  -0.58189  -0.57252  -0.56265
 Alpha  occ. eigenvalues --   -0.54954  -0.54039  -0.53137  -0.52489  -0.51423
 Alpha  occ. eigenvalues --   -0.50177  -0.49476  -0.48963  -0.45353  -0.43756
 Alpha  occ. eigenvalues --   -0.43439  -0.40925  -0.37144  -0.35280  -0.31774
 Alpha virt. eigenvalues --   -0.16933  -0.15595  -0.13600  -0.12727  -0.12182
 Alpha virt. eigenvalues --   -0.11567  -0.09808  -0.09659  -0.09249  -0.07975
 Alpha virt. eigenvalues --   -0.07673  -0.07489  -0.06881  -0.06411  -0.05790

 Mulliken charges:
               1
     1  O   -0.370039
     2  C    0.020278
     3  N    0.148479
     4  C    0.042486
     5  C    0.261071
     6  O   -0.180594
     7  O   -0.396671
     8  C   -0.088383
     9  C    0.316185
    10  C   -0.525817
    11  N   -0.257315
    12  C    0.150507
    13  N    0.001836
    14  C   -0.114242
    15  C   -0.153170
    16  N    0.159352
    17  H    0.155290
    18  H    0.106252
    19  H    0.258044
    20  H    0.082547
    21  H    0.110612
    22  H    0.076075
    23  H    0.116650
    24  H    0.126544
    25  H    0.095543
    26  H    0.041192
    27  H    0.121209
    28  H    0.116573
    29  H    0.145915
    30  H    0.155113
    31  H    0.278479
 Sum of Mulliken charges =   1.00000

 Dipole moment (field-independent basis, Debye):
    X=            -13.3268    Y=             -5.5106    Z=              0.7597  Tot=             14.4412
 Quadrupole moment (field-independent basis, Debye-Ang):
   XX=            -23.4677   YY=            -81.7646   ZZ=            -86.9585
   XY=            -14.4219   XZ=             10.7959   YZ=              0.6434

  Exact polarizability: 189.788   9.899 130.716   2.353  -1.139 109.911
 Approx polarizability: 242.123   0.327 216.751   7.486  -7.495 166.202

                      1                      2                      3
                      A                      A                      A
 Frequencies --     16.8265                25.5399                41.4556
 Red. masses --      4.9138                 4.6305                 5.5693
 Frc consts  --      0.0008                 0.0018                 0.0056
 IR Inten    --      2.8477                11.3170                 0.4241

                      4                      5                      6
                      A                      A                      A
 Frequencies --     61.9779                70.8060                77.5913
 Red. masses --      4.9404                 4.7562                 4.1318
 Frc consts  --      0.0112                 0.0140                 0.0147
 IR Inten    --      5.1535                 2.9658                 6.9403

                      7                      8                      9
                      A                      A                      A
 Frequencies --    114.8038               143.7381               183.1659
 Red. masses --      5.5661                 5.9443                 3.0424
 Frc consts  --      0.0432                 0.0724                 0.0601
 IR Inten    --      2.2433                 4.8024                 3.8277

                     10                     11                     12
                      A                      A                      A
 Frequencies --    208.6410               276.0752               308.8746
 Red. masses --      3.6408                 4.6817                 4.0338
 Frc consts  --      0.0934                 0.2102                 0.2267
 IR Inten    --      5.9980                11.2799                46.4007

                     13                     14                     15
                      A                      A                      A
 Frequencies --    319.5902               354.0780               368.1869
 Red. masses --      2.1787                 3.7531                 4.1055
 Frc consts  --      0.1311                 0.2772                 0.3279
 IR Inten    --      4.4295                62.8214                42.8868

                     16                     17                     18
                      A                      A                      A
 Frequencies --    381.1430               396.3689               452.8015
 Red. masses --      2.0756                 1.7899                 2.9787
 Frc consts  --      0.1776                 0.1657                 0.3598
 IR Inten    --     27.5177                15.1357                11.1000

                     19                     20                     21
                      A                      A                      A
 Frequencies --    506.8173               523.4093               565.0517
 Red. masses --      1.3614                 2.8278                 1.8695
 Frc consts  --      0.2060                 0.4564                 0.3517
 IR Inten    --     79.2222                68.8668                12.2492

                     22                     23                     24
                      A                      A                      A
 Frequencies --    594.4892               607.9968               659.9644
 Red. masses --      1.4439                 1.5911                 2.7017
 Frc consts  --      0.3007                 0.3465                 0.6933
 IR Inten    --     69.7395                69.7352                33.7086

                     25                     26                     27
                      A                      A                      A
 Frequencies --    677.3977               695.9043               736.0109
 Red. masses --      3.0846                 4.5458                 3.7094
 Frc consts  --      0.8340                 1.2971                 1.1839
 IR Inten    --     13.1315                 7.6796                21.3267

                     28                     29                     30
                      A                      A                      A
 Frequencies --    742.3295               777.3580               788.9016
 Red. masses --      3.5499                 3.2830                 2.9348
 Frc consts  --      1.1526                 1.1689                 1.0762
 IR Inten    --     34.7212                10.3882                18.5104

                     31                     32                     33
                      A                      A                      A
 Frequencies --    840.8347               844.1137               872.1228
 Red. masses --      1.4155                 2.5505                 1.4571
 Frc consts  --      0.5897                 1.0707                 0.6530
 IR Inten    --     19.9928                27.2862                13.3438

                     34                     35                     36
                      A                      A                      A
 Frequencies --    889.1012               928.3134               931.1010
 Red. masses --      2.6766                 2.7913                 3.1118
 Frc consts  --      1.2466                 1.4173                 1.5895
 IR Inten    --     34.8455                10.9163                15.9459

                     37                     38                     39
                      A                      A                      A
 Frequencies --    956.1148               980.7619               997.5366
 Red. masses --      1.4103                 2.6966                 3.1787
 Frc consts  --      0.7596                 1.5283                 1.8636
 IR Inten    --      3.5214                 2.2906                 5.8368

                     40                     41                     42
                      A                      A                      A
 Frequencies --   1017.3626              1037.3774              1078.5691
 Red. masses --      3.8483                 3.9842                 3.3294
 Frc consts  --      2.3468                 2.5262                 2.2820
 IR Inten    --     11.0784                 1.9872                12.7728

                     43                     44                     45
                      A                      A                      A
 Frequencies --   1104.2800              1127.8806              1136.1106
 Red. masses --      1.7045                 1.3615                 1.4979
 Frc consts  --      1.2246                 1.0204                 1.1391
 IR Inten    --     21.4694               128.1358                13.1855

                     46                     47                     48
                      A                      A                      A
 Frequencies --   1148.2785              1168.6506              1187.6469
 Red. masses --      2.0888                 2.2664                 1.4203
 Frc consts  --      1.6227                 1.8237                 1.1803
 IR Inten    --     18.4094               171.2082                26.3779

                     49                     50                     51
                      A                      A                      A
 Frequencies --   1260.8075              1263.1480              1282.8335
 Red. masses --      1.6764                 1.9257                 1.3546
 Frc consts  --      1.5701                 1.8103                 1.3134
 IR Inten    --     11.6740                13.1659                 2.0580

                     52                     53                     54
                      A                      A                      A
 Frequencies --   1305.7556              1313.8436              1327.7924
 Red. masses --      1.5404                 1.4275                 1.2996
 Frc consts  --      1.5474                 1.4519                 1.3499
 IR Inten    --     23.2929                14.5162                36.2989

                     55                     56                     57
                      A                      A                      A
 Frequencies --   1331.5262              1353.1034              1385.9644
 Red. masses --      1.3001                 1.5362                 2.7939
 Frc consts  --      1.3580                 1.6571                 3.1620
 IR Inten    --     46.3990                29.5850                12.1556

                     58                     59                     60
                      A                      A                      A
 Frequencies --   1388.6804              1404.2666              1414.9042
 Red. masses --      1.6008                 1.2287                 2.1082
 Frc consts  --      1.8189                 1.4276                 2.4866
 IR Inten    --     54.4980                80.2081                21.6294

                     61                     62                     63
                      A                      A                      A
 Frequencies --   1425.7867              1474.4320              1476.3263
 Red. masses --      2.6688                 1.0938                 1.2734
 Frc consts  --      3.1965                 1.4009                 1.6353
 IR Inten    --     29.5548                46.0223               481.9544

                     64                     65                     66
                      A                      A                      A
 Frequencies --   1491.3054              1499.9616              1511.1642
 Red. masses --      1.4307                 2.0427                 1.0745
 Frc consts  --      1.8747                 2.7078                 1.4457
 IR Inten    --     11.2102                16.3545                49.6304

                     67                     68                     69
                      A                      A                      A
 Frequencies --   1575.5203              1607.8919              1631.8305
 Red. masses --      2.0720                 4.3576                 1.1556
 Frc consts  --      3.0304                 6.6376                 1.8131
 IR Inten    --    137.4009                 4.7957                 2.8694

                     70                     71                     72
                      A                      A                      A
 Frequencies --   1676.3661              1699.8632              1798.8389
 Red. masses --      1.0444                 3.2913                10.3316
 Frc consts  --      1.7292                 5.6034                19.6972
 IR Inten    --     21.6512               119.7127               394.9889

                     73                     74                     75
                      A                      A                      A
 Frequencies --   2566.4900              3026.6302              3049.2105
 Red. masses --      1.0910                 1.0722                 1.0669
 Frc consts  --      4.2341                 5.7868                 5.8446
 IR Inten    --   1158.3593                19.9857                 0.5938

                     76                     77                     78
                      A                      A                      A
 Frequencies --   3081.6221              3091.7566              3112.3982
 Red. masses --      1.0849                 1.0613                 1.0965
 Frc consts  --      6.0701                 5.9771                 6.2579
 IR Inten    --      3.7377                 1.1629                 1.4906

                     79                     80                     81
                      A                      A                      A
 Frequencies --   3134.9087              3147.6890              3236.4072
 Red. masses --      1.0905                 1.1115                 1.0965
 Frc consts  --      6.3146                 6.4886                 6.7670
 IR Inten    --      0.6904                 0.2490                 4.0702

                     82                     83                     84
                      A                      A                      A
 Frequencies --   3249.2527              3464.8963              3528.8071
 Red. masses --      1.0983                 1.0519                 1.0945
 Frc consts  --      6.8317                 7.4405                 8.0301
 IR Inten    --      1.4177                83.3582                74.3539

                     85                     86                     87
                      A                      A                      A
 Frequencies --   3621.1328              3645.4661              3735.0322
 Red. masses --      1.0781                 1.0810                 1.0645
 Frc consts  --      8.3290                 8.4640                 8.7499
 IR Inten    --     51.4688                46.9204               111.3598

 - Thermochemistry -
 -------------------
 Temperature   298.150 Kelvin.  Pressure   1.00000 Atm.
 Atom     1 has atomic number  8 and mass  15.99491

 Molecular mass:   227.11442 amu.
 Principal axes and moments of inertia in atomic units:
                           1         2         3
     Eigenvalues --  1432.310437402.365027691.56094
           X            0.98020  -0.02290  -0.19670
           Y            0.19596   0.25544   0.94676
           Z           -0.02856   0.96655  -0.25486
 This molecule is an asymmetric top.
 Rotational symmetry number  1.
 Warning -- assumption of classical behavior for rotation
           may cause significant error
 Rotational temperatures (Kelvin)      0.06047     0.01170     0.01126
 Rotational constants (GHZ):           1.26002     0.24381     0.23464
 Zero-point vibrational energy     678982.8 (Joules/Mol)
                                  162.28079 (Kcal/Mol)
 Warning -- explicit consideration of  23 degrees of freedom as
           vibrations may cause significant error
 Vibrational temperatures:     24.21    36.75    59.65    89.17   101.87
          (Kelvin)            111.64   165.18   206.81   263.53   300.19
                              397.21   444.40   459.82   509.44   529.74
                              548.38   570.29   651.48   729.20   753.07
                              812.98   855.34   874.77   949.54   974.62
                             1001.25  1058.95  1068.05  1118.44  1135.05
                             1209.77  1214.49  1254.79  1279.22  1335.63
                             1339.64  1375.63  1411.10  1435.23  1463.76
                             1492.55  1551.82  1588.81  1622.77  1634.61
                             1652.11  1681.43  1708.76  1814.02  1817.39
                             1845.71  1878.69  1890.33  1910.39  1915.77
                             1946.81  1994.09  1998.00  2020.42  2035.73
                             2051.39  2121.38  2124.10  2145.65  2158.11
                             2174.23  2266.82  2313.39  2347.84  2411.91
                             2445.72  2588.12  3692.60  4354.64  4387.13
                             4433.76  4448.34  4478.04  4510.43  4528.82
                             4656.46  4674.94  4985.21  5077.16  5210.00
                             5245.01  5373.87

 Zero-point correction=                           0.258611 (Hartree/Particle)
 Thermal correction to Energy=                    0.274330
 Thermal correction to Enthalpy=                  0.275274
 Thermal correction to Gibbs Free Energy=         0.212526
 Sum of electronic and zero-point Energies=           -796.496659
 Sum of electronic and thermal Energies=              -796.480939
 Sum of electronic and thermal Enthalpies=            -796.479995
 Sum of electronic and thermal Free Energies=         -796.542743

                     E (Thermal)             CV                S
                      KCal/Mol        Cal/Mol-Kelvin    Cal/Mol-Kelvin
 Total                  172.145             58.049            132.064
 Electronic               0.000              0.000              0.000
 Translational            0.889              2.981             42.163
 Rotational               0.889              2.981             32.767
 Vibrational            170.367             52.087             57.134
 Vibration     1          0.593              1.986              6.977
 Vibration     2          0.593              1.985              6.149
 Vibration     3          0.594              1.981              5.188
 Vibration     4          0.597              1.972              4.393
 Vibration     5          0.598              1.968              4.131
 Vibration     6          0.599              1.964              3.951
 Vibration     7          0.608              1.937              3.186
 Vibration     8          0.616              1.909              2.754
 Vibration     9          0.631              1.863              2.296
 Vibration    10          0.642              1.828              2.056
 Vibration    11          0.678              1.718              1.558
 Vibration    12          0.698              1.657              1.368
 Vibration    13          0.706              1.636              1.312
 Vibration    14          0.730              1.567              1.148
 Vibration    15          0.741              1.538              1.087
 Vibration    16          0.751              1.510              1.035
 Vibration    17          0.763              1.478              0.976
 Vibration    18          0.811              1.355              0.787
 Vibration    19          0.862              1.235              0.641
 Vibration    20          0.878              1.198              0.602
 Vibration    21          0.921              1.107              0.514
 Vibration    22          0.952              1.044              0.459
 Vibration    23          0.967              1.015              0.436

 Optimization completed.
    -- Stationary point found.
 Normal termination of Gaussian 09 at Thu Jul 29 11:17:42 2021.
