 Gaussian 09, Revision D.01,
 Gaussian 09:  ES64L-G09RevD.01 24-Apr-2013

 ----------------------------------------------------------------------
 # B3LYP/6-31+G(d,p) EmpiricalDispersion=GD3BJ opt=calcfc freq=noraman
 nosymm integral(ultrafinegrid)
 ----------------------------------------------------------------------

 ------------------------------------------------------------
 Candidate Structure: Conf:273 OPT and FREQ calc in gas phase
 ------------------------------------------------------------
 Symbolic Z-matrix:
 Charge =  0 Multiplicity = 1

 SCF Done:  E(RB3LYP) =  -796.200289163     A.U. after   15 cycles
 SCF Done:  E(RB3LYP) =  -796.203613755     A.U. after   16 cycles
 SCF Done:  E(RB3LYP) =  -796.202855599     A.U. after   16 cycles
 SCF Done:  E(RB3LYP) =  -796.203692344     A.U. after   11 cycles
 SCF Done:  E(RB3LYP) =  -796.203816972     A.U. after   13 cycles
 SCF Done:  E(RB3LYP) =  -796.203835017     A.U. after   12 cycles
 SCF Done:  E(RB3LYP) =  -796.203841429     A.U. after   11 cycles
 SCF Done:  E(RB3LYP) =  -796.203843372     A.U. after   11 cycles
 SCF Done:  E(RB3LYP) =  -796.203843863     A.U. after   10 cycles
 SCF Done:  E(RB3LYP) =  -796.203843888     A.U. after    8 cycles
 Optimization completed.
    -- Stationary point found.
 Normal termination of Gaussian 09 at Sat Jul 24 01:52:55 2021.

 ----------------------------------------------------------------------
 #N Geom=AllCheck Guess=TCheck SCRF=Check GenChk RB3LYP/6-31+G(d,p) Fre
 q
 ----------------------------------------------------------------------

 Structure from the checkpoint file:  "conf-273.chk"
 ------------------------------------------------------------
 Candidate Structure: Conf:273 OPT and FREQ calc in gas phase
 ------------------------------------------------------------
 Charge =  0 Multiplicity = 1

                          Input orientation:
 ---------------------------------------------------------------------
 Center     Atomic      Atomic             Coordinates (Angstroms)
 Number     Number       Type             X           Y           Z
 ---------------------------------------------------------------------
      1          8           0        0.628237   -1.685358    1.635005
      2          6           0        0.855658   -0.652557    0.982000
      3          7           0        0.299669   -0.460172   -0.238709
      4          6           0       -0.803855   -1.284961   -0.747450
      5          6           0       -0.296591   -2.654826   -1.263543
      6          8           0        0.323315   -3.409568   -0.355877
      7          8           0       -0.473727   -3.022711   -2.404368
      8          6           0       -1.553379   -0.543134   -1.852215
      9          6           0       -2.141289    0.755336   -1.393277
     10          6           0       -2.308862    1.341427   -0.156518
     11          7           0       -2.946479    2.561574   -0.269255
     12          6           0       -3.168986    2.723888   -1.555109
     13          7           0       -2.697458    1.661047   -2.281473
     14          6           0        1.749026    0.446890    1.511018
     15          6           0        2.979420   -0.107455    2.235752
     16          7           0        3.739473    0.994205    2.828747
     17          1           0        0.451657    0.428346   -0.696266
     18          1           0       -1.480341   -1.486786    0.094225
     19          1           0        0.395691   -2.925869    0.511264
     20          1           0       -2.331328   -1.216829   -2.226316
     21          1           0       -0.870955   -0.389201   -2.698118
     22          1           0       -2.008832    0.955625    0.807050
     23          1           0       -3.654331    3.572567   -2.015572
     24          1           0       -2.762320    1.544750   -3.282293
     25          1           0        2.048408    1.121569    0.699767
     26          1           0        1.163471    1.043988    2.221046
     27          1           0        2.638235   -0.766135    3.037878
     28          1           0        3.561288   -0.729549    1.535915
     29          1           0        4.442038    0.646144    3.473860
     30          1           0        4.223110    1.538058    2.118870
 ---------------------------------------------------------------------

 SCF Done:  E(RB3LYP) =  -796.203843888     A.U. after    1 cycles

 Alpha  occ. eigenvalues --  -19.19356 -19.16392 -19.15050 -14.41505 -14.40669
 Alpha  occ. eigenvalues --  -14.33857 -14.33596 -10.33122 -10.32922 -10.27433
 Alpha  occ. eigenvalues --  -10.26047 -10.24695 -10.23310 -10.23171 -10.22110
 Alpha  occ. eigenvalues --  -10.21900  -1.10908  -1.07718  -1.03497  -1.02599
 Alpha  occ. eigenvalues --   -0.96833  -0.90274  -0.89186  -0.83183  -0.78611
 Alpha  occ. eigenvalues --   -0.75532  -0.69363  -0.65694  -0.63490  -0.62350
 Alpha  occ. eigenvalues --   -0.61437  -0.60567  -0.57207  -0.54442  -0.53870
 Alpha  occ. eigenvalues --   -0.52656  -0.50979  -0.48218  -0.47282  -0.46797
 Alpha  occ. eigenvalues --   -0.45736  -0.45176  -0.44486  -0.43815  -0.43718
 Alpha  occ. eigenvalues --   -0.42805  -0.42542  -0.41046  -0.40241  -0.38358
 Alpha  occ. eigenvalues --   -0.38110  -0.36972  -0.32344  -0.31716  -0.30307
 Alpha  occ. eigenvalues --   -0.29887  -0.28821  -0.27674  -0.25882  -0.24685
 Alpha virt. eigenvalues --   -0.02730  -0.02127  -0.01259  -0.00791  -0.00469
 Alpha virt. eigenvalues --    0.00035   0.00879   0.01486   0.02492   0.02715
 Alpha virt. eigenvalues --    0.03509   0.03942   0.04772   0.04873   0.05568

 Mulliken charges:
               1
     1  O   -0.543387
     2  C    0.334040
     3  N   -0.329622
     4  C    0.184571
     5  C    0.314477
     6  O   -0.450041
     7  O   -0.459583
     8  C   -1.519430
     9  C    0.949932
    10  C   -0.044480
    11  N   -0.263947
    12  C    0.190066
    13  N   -0.398332
    14  C   -0.114146
    15  C   -0.333604
    16  N   -0.606072
    17  H    0.319556
    18  H    0.192846
    19  H    0.414247
    20  H    0.198722
    21  H    0.179485
    22  H    0.129002
    23  H    0.141377
    24  H    0.308309
    25  H    0.130518
    26  H    0.202532
    27  H    0.171630
    28  H    0.134914
    29  H    0.291086
    30  H    0.275335
 Sum of Mulliken charges =   0.00000

 Dipole moment (field-independent basis, Debye):
    X=              1.4861    Y=              3.9887    Z=             -2.3555  Tot=              4.8648
 Quadrupole moment (field-independent basis, Debye-Ang):
   XX=            -83.9390   YY=           -120.6803   ZZ=            -93.7516
   XY=              4.7934   XZ=             14.0167   YZ=            -19.3258

  Exact polarizability: 130.290 -14.710 149.871  25.291   4.882 148.912
 Approx polarizability: 167.103 -15.066 208.528  17.106   0.956 237.573

                      1                      2                      3
                      A                      A                      A
 Frequencies --     17.1614                27.4363                46.9397
 Red. masses --      3.6474                 3.5395                 3.2509
 Frc consts  --      0.0006                 0.0016                 0.0042
 IR Inten    --      0.7020                 2.1595                 4.9760

                      4                      5                      6
                      A                      A                      A
 Frequencies --     61.7732                69.5601                84.2698
 Red. masses --      6.7455                 3.7024                 3.6945
 Frc consts  --      0.0152                 0.0106                 0.0155
 IR Inten    --      5.0291                11.9829                 0.8094

                      7                      8                      9
                      A                      A                      A
 Frequencies --     87.0100               158.9340               174.2640
 Red. masses --      6.3966                 4.8084                 4.0248
 Frc consts  --      0.0285                 0.0716                 0.0720
 IR Inten    --      1.4372                15.0818                 3.3670

                     10                     11                     12
                      A                      A                      A
 Frequencies --    212.6640               224.2830               239.4926
 Red. masses --      6.5461                 3.3016                 1.5455
 Frc consts  --      0.1744                 0.0979                 0.0522
 IR Inten    --      5.5082                15.1294                22.0065

                     13                     14                     15
                      A                      A                      A
 Frequencies --    257.9944               283.8667               316.4977
 Red. masses --      2.3911                 4.0150                 6.2219
 Frc consts  --      0.0938                 0.1906                 0.3672
 IR Inten    --     21.0190                17.3785                 4.7250

                     16                     17                     18
                      A                      A                      A
 Frequencies --    358.5073               386.2039               438.4630
 Red. masses --      5.8203                 4.4555                 3.0376
 Frc consts  --      0.4408                 0.3915                 0.3441
 IR Inten    --      1.9215                 1.9149                 5.8373

                     19                     20                     21
                      A                      A                      A
 Frequencies --    487.7953               520.1270               544.1767
 Red. masses --      1.2664                 1.4992                 4.3645
 Frc consts  --      0.1775                 0.2390                 0.7615
 IR Inten    --     88.2496                75.8378                19.1491

                     22                     23                     24
                      A                      A                      A
 Frequencies --    620.3231               626.8439               642.8622
 Red. masses --      5.5288                 2.7752                 2.3776
 Frc consts  --      1.2535                 0.6425                 0.5789
 IR Inten    --     11.1900                14.6849                20.3767

                     25                     26                     27
                      A                      A                      A
 Frequencies --    674.0793               731.0046               753.5846
 Red. masses --      3.1085                 4.6569                 4.0415
 Frc consts  --      0.8322                 1.4662                 1.3522
 IR Inten    --      3.9733                 1.6979                 8.6365

                     28                     29                     30
                      A                      A                      A
 Frequencies --    771.0194               798.4234               805.8605
 Red. masses --      4.2746                 1.4511                 1.3764
 Frc consts  --      1.4972                 0.5450                 0.5267
 IR Inten    --     34.1783                21.7812                21.8798

                     31                     32                     33
                      A                      A                      A
 Frequencies --    826.8461               840.9863               875.9028
 Red. masses --      1.3215                 1.3168                 2.4083
 Frc consts  --      0.5323                 0.5487                 1.0886
 IR Inten    --    103.4289                16.3817                 8.0261

                     34                     35                     36
                      A                      A                      A
 Frequencies --    911.3926               936.4488               947.9375
 Red. masses --      1.1538                 5.6064                 3.3297
 Frc consts  --      0.5646                 2.8967                 1.7628
 IR Inten    --     92.0658                11.0208                 6.2679

                     37                     38                     39
                      A                      A                      A
 Frequencies --    967.4231              1001.9498              1027.4475
 Red. masses --      2.4117                 2.6985                 3.7264
 Frc consts  --      1.3299                 1.5961                 2.3177
 IR Inten    --      4.9654                 2.2898                 9.7209

                     40                     41                     42
                      A                      A                      A
 Frequencies --   1064.7591              1085.1293              1098.2060
 Red. masses --      2.7958                 2.3758                 2.4552
 Frc consts  --      1.8675                 1.6483                 1.7446
 IR Inten    --     19.1789                10.0122                32.7058

                     43                     44                     45
                      A                      A                      A
 Frequencies --   1114.1525              1122.7625              1154.9008
 Red. masses --      1.6349                 2.6463                 2.3310
 Frc consts  --      1.1957                 1.9655                 1.8318
 IR Inten    --     16.6107                 8.3013                16.1268

                     46                     47                     48
                      A                      A                      A
 Frequencies --   1158.0217              1202.6098              1226.6488
 Red. masses --      1.3983                 1.6202                 2.3182
 Frc consts  --      1.1048                 1.3806                 2.0551
 IR Inten    --      3.7537                18.7866                14.4561

                     49                     50                     51
                      A                      A                      A
 Frequencies --   1243.6537              1262.9391              1283.5315
 Red. masses --      1.5998                 1.5208                 1.4809
 Frc consts  --      1.4579                 1.4291                 1.4375
 IR Inten    --     19.1139                 7.8598                 8.9468

                     52                     53                     54
                      A                      A                      A
 Frequencies --   1284.5638              1319.3716              1338.5978
 Red. masses --      1.4735                 1.7779                 1.1178
 Frc consts  --      1.4326                 1.8234                 1.1801
 IR Inten    --     38.8426                14.5264                 6.2009

                     55                     56                     57
                      A                      A                      A
 Frequencies --   1357.1389              1373.9236              1385.6883
 Red. masses --      1.6127                 1.6154                 1.5389
 Frc consts  --      1.7501                 1.7966                 1.7409
 IR Inten    --      1.6819                 7.4245                10.4247

                     58                     59                     60
                      A                      A                      A
 Frequencies --   1425.1769              1429.9170              1431.2122
 Red. masses --      2.0443                 1.6060                 2.8810
 Frc consts  --      2.4464                 1.9347                 3.4770
 IR Inten    --     14.7310                28.0186                17.8030

                     61                     62                     63
                      A                      A                      A
 Frequencies --   1457.9496              1471.8797              1485.8048
 Red. masses --      1.4125                 1.1067                 1.1467
 Frc consts  --      1.7690                 1.4126                 1.4915
 IR Inten    --    274.5137                 6.9264                23.8796

                     64                     65                     66
                      A                      A                      A
 Frequencies --   1507.7747              1520.5152              1547.5396
 Red. masses --      3.7183                 1.0832                 2.3160
 Frc consts  --      4.9804                 1.4755                 3.2679
 IR Inten    --     23.7557                 1.6326               335.5413

                     67                     68                     69
                      A                      A                      A
 Frequencies --   1614.0903              1669.4309              1694.9717
 Red. masses --      4.3420                 1.0980                 7.1449
 Frc consts  --      6.6649                 1.8030                12.0941
 IR Inten    --      9.4852                31.0156               237.7652

                     70                     71                     72
                      A                      A                      A
 Frequencies --   1829.8853              2974.5340              3034.8315
 Red. masses --      9.0656                 1.0735                 1.0794
 Frc consts  --     17.8851                 5.5960                 5.8575
 IR Inten    --    387.1777                62.1746                 3.5710

                     73                     74                     75
                      A                      A                      A
 Frequencies --   3042.4549              3046.3544              3084.6138
 Red. masses --      1.0604                 1.0697                 1.1000
 Frc consts  --      5.7832                 5.8491                 6.1668
 IR Inten    --     14.3116                15.0664                 6.0917

                     76                     77                     78
                      A                      A                      A
 Frequencies --   3087.3796              3117.4079              3252.2329
 Red. masses --      1.0966                 1.0920                 1.0743
 Frc consts  --      6.1587                 6.2528                 6.6950
 IR Inten    --      5.1062                13.2078               748.5027

                     79                     80                     81
                      A                      A                      A
 Frequencies --   3260.1221              3267.4557              3512.1370
 Red. masses --      1.0956                 1.0985                 1.0500
 Frc consts  --      6.8608                 6.9099                 7.6310
 IR Inten    --      7.6386                 0.7001                 0.4210

                     82                     83                     84
                      A                      A                      A
 Frequencies --   3602.4680              3626.9386              3656.9287
 Red. masses --      1.0934                 1.0782                 1.0814
 Frc consts  --      8.3608                 8.3570                 8.5209
 IR Inten    --      2.7866                42.0114                55.9665

 - Thermochemistry -
 -------------------
 Temperature   298.150 Kelvin.  Pressure   1.00000 Atm.
 Atom     1 has atomic number  8 and mass  15.99491

 Molecular mass:   226.10659 amu.
 Principal axes and moments of inertia in atomic units:
                           1         2         3
     Eigenvalues --  3088.359805469.051777976.74138
           X            0.79102   0.05363  -0.60944
           Y           -0.29304   0.90765  -0.30049
           Z            0.53704   0.41628   0.73369
 This molecule is an asymmetric top.
 Rotational symmetry number  1.
 Warning -- assumption of classical behavior for rotation
           may cause significant error
 Rotational temperatures (Kelvin)      0.02805     0.01584     0.01086
 Rotational constants (GHZ):           0.58437     0.32999     0.22625
 Zero-point vibrational energy     642911.2 (Joules/Mol)
                                  153.65947 (Kcal/Mol)
 Warning -- explicit consideration of  22 degrees of freedom as
           vibrations may cause significant error
 Vibrational temperatures:     24.69    39.47    67.54    88.88   100.08
          (Kelvin)            121.25   125.19   228.67   250.73   305.98
                              322.69   344.58   371.20   408.42   455.37
                              515.81   555.66   630.85   701.83   748.35
                              782.95   892.51   901.89   924.93   969.85
                             1051.75  1084.24  1109.32  1148.75  1159.45
                             1189.65  1209.99  1260.23  1311.29  1347.34
                             1363.87  1391.90  1441.58  1478.27  1531.95
                             1561.26  1580.07  1603.01  1615.40  1661.64
                             1666.13  1730.29  1764.87  1789.34  1817.09
                             1846.71  1848.20  1898.28  1925.94  1952.62
                             1976.77  1993.69  2050.51  2057.33  2059.19
                             2097.66  2117.70  2137.74  2169.35  2187.68
                             2226.56  2322.31  2401.94  2438.68  2632.79
                             4279.69  4366.44  4377.41  4383.02  4438.07
                             4442.05  4485.25  4679.23  4690.58  4701.13
                             5053.18  5183.14  5218.35  5261.50

 Zero-point correction=                           0.244872 (Hartree/Particle)
 Thermal correction to Energy=                    0.260960
 Thermal correction to Enthalpy=                  0.261904
 Thermal correction to Gibbs Free Energy=         0.198155
 Sum of electronic and zero-point Energies=           -795.958972
 Sum of electronic and thermal Energies=              -795.942884
 Sum of electronic and thermal Enthalpies=            -795.941940
 Sum of electronic and thermal Free Energies=         -796.005689

                     E (Thermal)             CV                S
                      KCal/Mol        Cal/Mol-Kelvin    Cal/Mol-Kelvin
 Total                  163.755             58.083            134.172
 Electronic               0.000              0.000              0.000
 Translational            0.889              2.981             42.150
 Rotational               0.889              2.981             33.266
 Vibrational            161.977             52.122             58.757
 Vibration     1          0.593              1.986              6.938
 Vibration     2          0.593              1.984              6.007
 Vibration     3          0.595              1.979              4.942
 Vibration     4          0.597              1.973              4.400
 Vibration     5          0.598              1.969              4.166
 Vibration     6          0.601              1.960              3.789
 Vibration     7          0.601              1.958              3.726
 Vibration     8          0.621              1.893              2.562
 Vibration     9          0.627              1.874              2.389
 Vibration    10          0.644              1.822              2.021
 Vibration    11          0.649              1.804              1.924
 Vibration    12          0.657              1.780              1.807
 Vibration    13          0.667              1.749              1.675
 Vibration    14          0.682              1.704              1.510
 Vibration    15          0.703              1.642              1.328
 Vibration    16          0.733              1.558              1.129
 Vibration    17          0.755              1.500              1.015
 Vibration    18          0.799              1.386              0.831
 Vibration    19          0.844              1.277              0.689
 Vibration    20          0.875              1.205              0.610
 Vibration    21          0.899              1.152              0.556
 Vibration    22          0.980              0.989              0.416

 Optimization completed.
    -- Stationary point found.
 Normal termination of Gaussian 09 at Sat Jul 24 02:32:34 2021.
