 Gaussian 09, Revision D.01,
 Gaussian 09:  ES64L-G09RevD.01 24-Apr-2013

 ----------------------------------------------------------------------
 # B3LYP/6-31+G(d,p) EmpiricalDispersion=GD3BJ opt=calcfc freq=noraman
 nosymm integral(ultrafinegrid)
 ----------------------------------------------------------------------

 ------------------------------------------------------------
 Candidate Structure: Conf:683 OPT and FREQ calc in gas phase
 ------------------------------------------------------------
 Symbolic Z-matrix:
 Charge =  0 Multiplicity = 1

 SCF Done:  E(RB3LYP) =  -796.212305371     A.U. after   15 cycles
 SCF Done:  E(RB3LYP) =  -796.214931141     A.U. after   13 cycles
 SCF Done:  E(RB3LYP) =  -796.215586023     A.U. after   13 cycles
 SCF Done:  E(RB3LYP) =  -796.215599832     A.U. after   15 cycles
 SCF Done:  E(RB3LYP) =  -796.215352515     A.U. after   13 cycles
 SCF Done:  E(RB3LYP) =  -796.215780663     A.U. after   10 cycles
 SCF Done:  E(RB3LYP) =  -796.215825188     A.U. after   12 cycles
 SCF Done:  E(RB3LYP) =  -796.215842527     A.U. after   12 cycles
 SCF Done:  E(RB3LYP) =  -796.215842767     A.U. after    9 cycles
 SCF Done:  E(RB3LYP) =  -796.215842784     A.U. after    8 cycles
 Optimization completed.
    -- Stationary point found.
 Normal termination of Gaussian 09 at Sat Jul 24 01:57:23 2021.

 ----------------------------------------------------------------------
 #N Geom=AllCheck Guess=TCheck SCRF=Check GenChk RB3LYP/6-31+G(d,p) Fre
 q
 ----------------------------------------------------------------------

 Structure from the checkpoint file:  "conf-683.chk"
 ------------------------------------------------------------
 Candidate Structure: Conf:683 OPT and FREQ calc in gas phase
 ------------------------------------------------------------
 Charge =  0 Multiplicity = 1

                          Input orientation:
 ---------------------------------------------------------------------
 Center     Atomic      Atomic             Coordinates (Angstroms)
 Number     Number       Type             X           Y           Z
 ---------------------------------------------------------------------
      1          8           0       -0.660913    0.120434   -2.160881
      2          6           0        0.305298    0.370773   -1.423799
      3          7           0        0.172337    0.677923   -0.112923
      4          6           0       -1.119347    0.858654    0.504812
      5          6           0       -1.135556    2.177765    1.262418
      6          8           0       -2.389596    2.512797    1.642458
      7          8           0       -0.162187    2.848183    1.530721
      8          6           0       -1.525396   -0.293526    1.465175
      9          6           0       -1.403466   -1.661889    0.871820
     10          6           0       -1.141487   -2.878789    1.464518
     11          7           0       -1.194079   -3.899146    0.537673
     12          6           0       -1.476966   -3.308753   -0.607411
     13          7           0       -1.634581   -1.958336   -0.459675
     14          6           0        1.731319    0.308146   -1.955556
     15          6           0        2.732188    1.292433   -1.336331
     16          7           0        2.965435    0.990444    0.086725
     17          1           0        1.033071    0.868909    0.410549
     18          1           0       -1.859011    0.923403   -0.298892
     19          1           0       -2.330092    3.343216    2.145037
     20          1           0       -0.898366   -0.254395    2.363008
     21          1           0       -2.554302   -0.095134    1.788069
     22          1           0       -0.928574   -3.073300    2.506802
     23          1           0       -1.575056   -3.798460   -1.565819
     24          1           0       -1.662061   -1.277407   -1.218575
     25          1           0        2.087318   -0.722514   -1.817996
     26          1           0        1.662464    0.470890   -3.033986
     27          1           0        2.326035    2.307934   -1.393598
     28          1           0        3.653572    1.277367   -1.936274
     29          1           0        3.503751    0.134520    0.196883
     30          1           0        3.478345    1.737845    0.544833
 ---------------------------------------------------------------------

 SCF Done:  E(RB3LYP) =  -796.215842784     A.U. after    1 cycles

 Alpha  occ. eigenvalues --  -19.23082 -19.17537 -19.13732 -14.37873 -14.37275
 Alpha  occ. eigenvalues --  -14.35573 -14.31031 -10.35103 -10.30674 -10.26344
 Alpha  occ. eigenvalues --  -10.24227 -10.23138 -10.22010 -10.21922 -10.21362
 Alpha  occ. eigenvalues --  -10.19223  -1.13843  -1.05379  -1.04800  -1.00486
 Alpha  occ. eigenvalues --   -0.94653  -0.91492  -0.86250  -0.81592  -0.77687
 Alpha  occ. eigenvalues --   -0.74716  -0.68311  -0.66372  -0.63153  -0.60468
 Alpha  occ. eigenvalues --   -0.59490  -0.58137  -0.55226  -0.53072  -0.52227
 Alpha  occ. eigenvalues --   -0.51658  -0.49853  -0.48999  -0.47639  -0.47412
 Alpha  occ. eigenvalues --   -0.45976  -0.45336  -0.43714  -0.42771  -0.41687
 Alpha  occ. eigenvalues --   -0.41274  -0.40783  -0.40234  -0.39824  -0.38870
 Alpha  occ. eigenvalues --   -0.38384  -0.36308  -0.35159  -0.31027  -0.28375
 Alpha  occ. eigenvalues --   -0.27910  -0.27422  -0.27176  -0.26131  -0.21984
 Alpha virt. eigenvalues --   -0.02627  -0.01932  -0.00998   0.00164   0.01109
 Alpha virt. eigenvalues --    0.01567   0.02252   0.02433   0.02744   0.03295
 Alpha virt. eigenvalues --    0.04086   0.04975   0.05090   0.06046   0.06356

 Mulliken charges:
               1
     1  O   -0.505640
     2  C    0.014928
     3  N   -0.199201
     4  C   -0.471567
     5  C    0.635798
     6  O   -0.420872
     7  O   -0.428671
     8  C   -0.930026
     9  C    0.496466
    10  C    0.048659
    11  N   -0.289887
    12  C    0.212551
    13  N   -0.318078
    14  C   -0.059854
    15  C   -0.206131
    16  N   -0.732789
    17  H    0.394259
    18  H    0.195166
    19  H    0.377630
    20  H    0.156845
    21  H    0.189025
    22  H    0.119268
    23  H    0.131533
    24  H    0.337470
    25  H    0.172838
    26  H    0.178040
    27  H    0.160456
    28  H    0.138892
    29  H    0.300483
    30  H    0.302408
 Sum of Mulliken charges =   0.00000

 Dipole moment (field-independent basis, Debye):
    X=              3.1030    Y=              4.6713    Z=              0.4992  Tot=              5.6302
 Quadrupole moment (field-independent basis, Debye-Ang):
   XX=            -82.3295   YY=           -112.8154   ZZ=            -93.5117
   XY=             -6.4517   XZ=             -6.4219   YZ=              6.6397

  Exact polarizability: 132.834   6.104 155.088  -6.093  10.488 140.979
 Approx polarizability: 188.391   1.603 212.252  10.489  12.410 217.092

                      1                      2                      3
                      A                      A                      A
 Frequencies --     17.9622                43.2855                51.8202
 Red. masses --      4.9717                 9.0787                 4.1217
 Frc consts  --      0.0009                 0.0100                 0.0065
 IR Inten    --      5.0466                 2.4745                 1.6278

                      4                      5                      6
                      A                      A                      A
 Frequencies --     64.5914                86.5025               102.1097
 Red. masses --      3.9261                 4.2907                 4.9715
 Frc consts  --      0.0097                 0.0189                 0.0305
 IR Inten    --      0.8190                 2.4676                 1.4505

                      7                      8                      9
                      A                      A                      A
 Frequencies --    117.6324               146.6759               177.9060
 Red. masses --      4.0290                 6.2836                 6.8773
 Frc consts  --      0.0328                 0.0796                 0.1282
 IR Inten    --      7.7079                15.0339                 1.5236

                     10                     11                     12
                      A                      A                      A
 Frequencies --    203.2663               228.1172               269.2275
 Red. masses --      2.1712                 5.1576                 4.0226
 Frc consts  --      0.0529                 0.1581                 0.1718
 IR Inten    --      2.7179                 9.7688                 1.0307

                     13                     14                     15
                      A                      A                      A
 Frequencies --    307.7642               309.5942               345.6264
 Red. masses --      1.8284                 2.8702                 4.1170
 Frc consts  --      0.1020                 0.1621                 0.2898
 IR Inten    --      5.2170                 8.7517                 0.3751

                     16                     17                     18
                      A                      A                      A
 Frequencies --    357.2490               433.0845               487.3711
 Red. masses --      3.0052                 3.3193                 2.8731
 Frc consts  --      0.2260                 0.3668                 0.4021
 IR Inten    --      6.3895                15.0338                12.0001

                     19                     20                     21
                      A                      A                      A
 Frequencies --    514.4293               588.0911               599.8852
 Red. masses --      3.0639                 2.9820                 1.4794
 Frc consts  --      0.4777                 0.6076                 0.3137
 IR Inten    --     40.1591                12.3208                81.0782

                     22                     23                     24
                      A                      A                      A
 Frequencies --    627.0258               641.5069               669.7544
 Red. masses --      3.6339                 4.4291                 3.5368
 Frc consts  --      0.8418                 1.0739                 0.9347
 IR Inten    --     13.5257                39.2533                41.6852

                     25                     26                     27
                      A                      A                      A
 Frequencies --    683.3767               698.7567               742.2880
 Red. masses --      3.1309                 3.3398                 1.2133
 Frc consts  --      0.8615                 0.9608                 0.3939
 IR Inten    --     33.0353                20.4769               104.8205

                     28                     29                     30
                      A                      A                      A
 Frequencies --    778.9735               807.1140               809.4316
 Red. masses --      3.9233                 1.3729                 1.2073
 Frc consts  --      1.4026                 0.5269                 0.4660
 IR Inten    --     11.2887                24.8503                62.9008

                     31                     32                     33
                      A                      A                      A
 Frequencies --    832.3194               844.7447               880.9629
 Red. masses --      1.3385                 1.3960                 2.6955
 Frc consts  --      0.5463                 0.5869                 1.2326
 IR Inten    --     25.1320                76.4949                 2.7526

                     34                     35                     36
                      A                      A                      A
 Frequencies --    899.6988               915.7516               942.9682
 Red. masses --      2.3605                 1.9357                 5.6380
 Frc consts  --      1.1258                 0.9564                 2.9537
 IR Inten    --     21.6338                36.9840                15.3151

                     37                     38                     39
                      A                      A                      A
 Frequencies --    961.8284               992.4634              1014.7488
 Red. masses --      2.5117                 2.2744                 2.4661
 Frc consts  --      1.3690                 1.3199                 1.4962
 IR Inten    --      4.9340                 2.1250                13.3440

                     40                     41                     42
                      A                      A                      A
 Frequencies --   1027.3368              1050.3764              1085.5352
 Red. masses --      2.4283                 3.0046                 2.6695
 Frc consts  --      1.5100                 1.9531                 1.8534
 IR Inten    --     35.3634                11.3045                 7.7866

                     43                     44                     45
                      A                      A                      A
 Frequencies --   1137.0720              1147.3198              1157.3337
 Red. masses --      2.8421                 2.1025                 1.5071
 Frc consts  --      2.1651                 1.6307                 1.1893
 IR Inten    --    125.3952                19.6595                68.5084

                     46                     47                     48
                      A                      A                      A
 Frequencies --   1158.7220              1181.9255              1231.9726
 Red. masses --      1.6705                 2.0841                 1.5030
 Frc consts  --      1.3214                 1.7153                 1.3440
 IR Inten    --      9.4117                72.6568                 8.8667

                     49                     50                     51
                      A                      A                      A
 Frequencies --   1267.0502              1269.8947              1279.5231
 Red. masses --      1.8519                 1.3191                 1.5063
 Frc consts  --      1.7517                 1.2533                 1.4530
 IR Inten    --      1.3466                21.9727                 9.6033

                     52                     53                     54
                      A                      A                      A
 Frequencies --   1289.1316              1313.4496              1318.7615
 Red. masses --      1.5056                 1.3348                 1.7394
 Frc consts  --      1.4742                 1.3567                 1.7823
 IR Inten    --      3.5968                 2.8831                 9.3112

                     55                     56                     57
                      A                      A                      A
 Frequencies --   1343.7452              1366.0399              1376.0492
 Red. masses --      1.7492                 1.4179                 1.5145
 Frc consts  --      1.8609                 1.5589                 1.6897
 IR Inten    --     16.0630                12.1084                12.0042

                     58                     59                     60
                      A                      A                      A
 Frequencies --   1397.0798              1404.4058              1423.3096
 Red. masses --      2.5966                 2.4827                 1.4315
 Frc consts  --      2.9861                 2.8850                 1.7086
 IR Inten    --     15.9113                93.4436                19.3193

                     61                     62                     63
                      A                      A                      A
 Frequencies --   1464.2753              1466.0015              1488.9791
 Red. masses --      2.1470                 1.0866                 1.1958
 Frc consts  --      2.7122                 1.3759                 1.5620
 IR Inten    --     37.4059                14.6799                15.7809

                     64                     65                     66
                      A                      A                      A
 Frequencies --   1506.8129              1515.0251              1597.3249
 Red. masses --      3.1000                 1.0835                 1.9735
 Frc consts  --      4.1470                 1.4653                 2.9667
 IR Inten    --     19.1954                 3.9000               284.0059

                     67                     68                     69
                      A                      A                      A
 Frequencies --   1616.8994              1658.0435              1704.9241
 Red. masses --      3.6646                 1.0918                 7.2492
 Frc consts  --      5.6447                 1.7684                12.4152
 IR Inten    --     13.5136                42.6400               324.0974

                     70                     71                     72
                      A                      A                      A
 Frequencies --   1818.7115              3004.6971              3036.9365
 Red. masses --     10.1046                 1.0705                 1.0704
 Frc consts  --     19.6923                 5.6945                 5.8166
 IR Inten    --    289.7560                78.5396                 5.5520

                     73                     74                     75
                      A                      A                      A
 Frequencies --   3043.6189              3079.1926              3084.9311
 Red. masses --      1.0601                 1.0980                 1.0937
 Frc consts  --      5.7857                 6.1335                 6.1323
 IR Inten    --     19.7144                 5.8922                20.2489

                     76                     77                     78
                      A                      A                      A
 Frequencies --   3097.3528              3121.2787              3247.9519
 Red. masses --      1.0887                 1.0934                 1.0961
 Frc consts  --      6.1537                 6.2762                 6.8126
 IR Inten    --     10.5980                 7.1186                 7.8717

                     79                     80                     81
                      A                      A                      A
 Frequencies --   3264.2991              3367.0302              3475.1134
 Red. masses --      1.0974                 1.0832                 1.0858
 Frc consts  --      6.8897                 7.2353                 7.7257
 IR Inten    --      1.2408               424.9628               330.0672

                     82                     83                     84
                      A                      A                      A
 Frequencies --   3511.3838              3602.6426              3751.7014
 Red. masses --      1.0502                 1.0938                 1.0645
 Frc consts  --      7.6294                 8.3640                 8.8279
 IR Inten    --      0.5345                 7.0152                80.9179

 - Thermochemistry -
 -------------------
 Temperature   298.150 Kelvin.  Pressure   1.00000 Atm.
 Atom     1 has atomic number  8 and mass  15.99491

 Molecular mass:   226.10659 amu.
 Principal axes and moments of inertia in atomic units:
                           1         2         3
     Eigenvalues --  3082.674674330.097786023.10133
           X            0.44392   0.68285   0.58022
           Y            0.89442  -0.37688  -0.24077
           Z           -0.05427  -0.62584   0.77806
 This molecule is an asymmetric top.
 Rotational symmetry number  1.
 Warning -- assumption of classical behavior for rotation
           may cause significant error
 Rotational temperatures (Kelvin)      0.02810     0.02000     0.01438
 Rotational constants (GHZ):           0.58545     0.41679     0.29964
 Zero-point vibrational energy     645666.8 (Joules/Mol)
                                  154.31808 (Kcal/Mol)
 Warning -- explicit consideration of  21 degrees of freedom as
           vibrations may cause significant error
 Vibrational temperatures:     25.84    62.28    74.56    92.93   124.46
          (Kelvin)            146.91   169.25   211.03   255.97   292.45
                              328.21   387.36   442.80   445.44   497.28
                              514.00   623.11   701.22   740.15   846.13
                              863.10   902.15   922.98   963.63   983.23
                             1005.35  1067.99  1120.77  1161.26  1164.59
                             1197.52  1215.40  1267.51  1294.46  1317.56
                             1356.72  1383.85  1427.93  1460.00  1478.11
                             1511.26  1561.84  1635.99  1650.74  1665.14
                             1667.14  1700.53  1772.53  1823.00  1827.09
                             1840.95  1854.77  1889.76  1897.40  1933.35
                             1965.42  1979.83  2010.08  2020.62  2047.82
                             2106.76  2109.25  2142.31  2167.96  2179.78
                             2298.19  2326.35  2385.55  2453.00  2616.72
                             4323.08  4369.47  4379.08  4430.27  4438.52
                             4456.39  4490.82  4673.07  4696.59  4844.40
                             4999.91  5052.09  5183.39  5397.85

 Zero-point correction=                           0.245922 (Hartree/Particle)
 Thermal correction to Energy=                    0.261502
 Thermal correction to Enthalpy=                  0.262446
 Thermal correction to Gibbs Free Energy=         0.200804
 Sum of electronic and zero-point Energies=           -795.969921
 Sum of electronic and thermal Energies=              -795.954341
 Sum of electronic and thermal Enthalpies=            -795.953397
 Sum of electronic and thermal Free Energies=         -796.015039

                     E (Thermal)             CV                S
                      KCal/Mol        Cal/Mol-Kelvin    Cal/Mol-Kelvin
 Total                  164.095             57.323            129.737
 Electronic               0.000              0.000              0.000
 Translational            0.889              2.981             42.150
 Rotational               0.889              2.981             32.753
 Vibrational            162.317             51.361             54.835
 Vibration     1          0.593              1.986              6.848
 Vibration     2          0.595              1.980              5.103
 Vibration     3          0.596              1.977              4.747
 Vibration     4          0.597              1.971              4.312
 Vibration     5          0.601              1.959              3.738
 Vibration     6          0.604              1.947              3.414
 Vibration     7          0.608              1.935              3.139
 Vibration     8          0.617              1.906              2.715
 Vibration     9          0.628              1.870              2.350
 Vibration    10          0.639              1.835              2.103
 Vibration    11          0.651              1.798              1.894
 Vibration    12          0.674              1.730              1.601
 Vibration    13          0.698              1.659              1.374
 Vibration    14          0.699              1.655              1.365
 Vibration    15          0.724              1.584              1.186
 Vibration    16          0.732              1.560              1.134
 Vibration    17          0.794              1.398              0.849
 Vibration    18          0.843              1.278              0.690
 Vibration    19          0.869              1.218              0.623
 Vibration    20          0.945              1.057              0.471
 Vibration    21          0.958              1.032              0.450

 Optimization completed.
    -- Stationary point found.
 Normal termination of Gaussian 09 at Sat Jul 24 02:39:28 2021.
