 Gaussian 09, Revision D.01,
 Gaussian 09:  ES64L-G09RevD.01 24-Apr-2013

 ----------------------------------------------------------------------
 # B3LYP/6-31+G(d,p) EmpiricalDispersion=GD3BJ opt=calcfc freq=noraman
 nosymm integral(ultrafinegrid)
 ----------------------------------------------------------------------

 ------------------------------------------------------------
 Candidate Structure: Conf:599 OPT and FREQ calc in gas phase
 ------------------------------------------------------------
 Symbolic Z-matrix:
 Charge =  0 Multiplicity = 1

 SCF Done:  E(RB3LYP) =  -796.196390440     A.U. after   15 cycles
 SCF Done:  E(RB3LYP) =  -796.198636857     A.U. after   16 cycles
 SCF Done:  E(RB3LYP) =  -796.198649886     A.U. after   15 cycles
 SCF Done:  E(RB3LYP) =  -796.193946139     A.U. after   13 cycles
 SCF Done:  E(RB3LYP) =  -796.198953782     A.U. after   10 cycles
 SCF Done:  E(RB3LYP) =  -796.198857991     A.U. after   14 cycles
 SCF Done:  E(RB3LYP) =  -796.199059031     A.U. after   13 cycles
 SCF Done:  E(RB3LYP) =  -796.199068578     A.U. after   12 cycles
 SCF Done:  E(RB3LYP) =  -796.199069234     A.U. after   11 cycles
 SCF Done:  E(RB3LYP) =  -796.199069259     A.U. after    9 cycles
 Optimization completed.
    -- Stationary point found.
 Normal termination of Gaussian 09 at Sat Jul 24 01:56:39 2021.

 ----------------------------------------------------------------------
 #N Geom=AllCheck Guess=TCheck SCRF=Check GenChk RB3LYP/6-31+G(d,p) Fre
 q
 ----------------------------------------------------------------------

 Structure from the checkpoint file:  "conf-599.chk"
 ------------------------------------------------------------
 Candidate Structure: Conf:599 OPT and FREQ calc in gas phase
 ------------------------------------------------------------
 Charge =  0 Multiplicity = 1

                          Input orientation:
 ---------------------------------------------------------------------
 Center     Atomic      Atomic             Coordinates (Angstroms)
 Number     Number       Type             X           Y           Z
 ---------------------------------------------------------------------
      1          8           0        2.691663    1.643262    0.823111
      2          6           0        1.887214    0.822939    0.404218
      3          7           0        1.050494    1.167836   -0.656651
      4          6           0       -0.213859    0.507301   -0.979991
      5          6           0       -0.345624    0.362238   -2.508489
      6          8           0        0.810789    0.376571   -3.185794
      7          8           0       -1.406330    0.212162   -3.076320
      8          6           0       -1.444181    1.196527   -0.334694
      9          6           0       -2.600786    0.288486   -0.071797
     10          6           0       -3.194155   -0.107147    1.108991
     11          7           0       -4.246705   -0.962512    0.865140
     12          6           0       -4.293703   -1.089215   -0.447634
     13          7           0       -3.323115   -0.350043   -1.061176
     14          6           0        1.782113   -0.589155    0.956898
     15          6           0        2.918121   -0.919560    1.942780
     16          7           0        4.267745   -0.923379    1.396704
     17          1           0        1.076745    2.171294   -0.823960
     18          1           0       -0.160098   -0.516906   -0.600246
     19          1           0        1.527310    0.570926   -2.549487
     20          1           0       -1.741235    2.052952   -0.953294
     21          1           0       -1.119826    1.595276    0.630792
     22          1           0       -2.926774    0.188669    2.114381
     23          1           0       -4.998431   -1.694593   -0.999676
     24          1           0       -3.091305   -0.296132   -2.046988
     25          1           0        0.810149   -0.696162    1.459883
     26          1           0        1.781355   -1.309062    0.127411
     27          1           0        2.891364   -0.199089    2.765173
     28          1           0        2.713907   -1.905726    2.373537
     29          1           0        4.376371   -1.596507    0.643863
     30          1           0        4.520714   -0.001194    1.055606
 ---------------------------------------------------------------------

 SCF Done:  E(RB3LYP) =  -796.199069259     A.U. after    1 cycles

 Alpha  occ. eigenvalues --  -19.23920 -19.18557 -19.16662 -14.41165 -14.39676
 Alpha  occ. eigenvalues --  -14.33069 -14.32559 -10.36513 -10.33516 -10.29154
 Alpha  occ. eigenvalues --  -10.24883 -10.24040 -10.23587 -10.23169 -10.22949
 Alpha  occ. eigenvalues --  -10.21055  -1.14806  -1.08396  -1.06572  -1.02282
 Alpha  occ. eigenvalues --   -0.97418  -0.89861  -0.87956  -0.82726  -0.78811
 Alpha  occ. eigenvalues --   -0.76008  -0.70012  -0.67182  -0.65246  -0.61904
 Alpha  occ. eigenvalues --   -0.60595  -0.60051  -0.58318  -0.55589  -0.54571
 Alpha  occ. eigenvalues --   -0.52308  -0.50143  -0.49582  -0.49201  -0.48241
 Alpha  occ. eigenvalues --   -0.46888  -0.45386  -0.45007  -0.44419  -0.44130
 Alpha  occ. eigenvalues --   -0.42819  -0.41918  -0.41684  -0.40902  -0.39913
 Alpha  occ. eigenvalues --   -0.39289  -0.37508  -0.36099  -0.33397  -0.31419
 Alpha  occ. eigenvalues --   -0.29516  -0.28992  -0.27721  -0.25198  -0.23855
 Alpha virt. eigenvalues --   -0.04579  -0.03629  -0.02284  -0.01057  -0.00249
 Alpha virt. eigenvalues --    0.00296   0.01004   0.01781   0.02293   0.02833
 Alpha virt. eigenvalues --    0.03218   0.03944   0.04166   0.04855   0.05193

 Mulliken charges:
               1
     1  O   -0.459954
     2  C    0.385044
     3  N   -0.487666
     4  C   -0.506425
     5  C    0.498698
     6  O   -0.382506
     7  O   -0.479953
     8  C   -0.543465
     9  C    0.354617
    10  C   -0.172232
    11  N   -0.296961
    12  C    0.247108
    13  N   -0.301979
    14  C    0.045364
    15  C   -0.423265
    16  N   -0.585423
    17  H    0.337133
    18  H    0.189395
    19  H    0.389320
    20  H    0.177533
    21  H    0.164868
    22  H    0.124390
    23  H    0.136904
    24  H    0.343976
    25  H    0.178879
    26  H    0.164960
    27  H    0.165225
    28  H    0.141087
    29  H    0.279572
    30  H    0.315755
 Sum of Mulliken charges =   0.00000

 Dipole moment (field-independent basis, Debye):
    X=              1.2800    Y=              0.4057    Z=             -1.7743  Tot=              2.2251
 Quadrupole moment (field-independent basis, Debye-Ang):
   XX=           -122.4049   YY=            -94.6720   ZZ=           -109.4528
   XY=             -6.6802   XZ=             -1.8313   YZ=              1.5197

  Exact polarizability: 173.473  18.391 118.486  10.419  -2.652 143.160
 Approx polarizability: 224.924  33.399 181.116  11.627   2.854 215.323

                      1                      2                      3
                      A                      A                      A
 Frequencies --      9.8191                35.2835                48.9255
 Red. masses --      5.5453                 4.8267                 3.5725
 Frc consts  --      0.0003                 0.0035                 0.0050
 IR Inten    --      0.2672                 0.4676                 2.6450

                      4                      5                      6
                      A                      A                      A
 Frequencies --     62.6800                79.9950                88.3931
 Red. masses --      6.7547                 5.1004                 6.1465
 Frc consts  --      0.0156                 0.0192                 0.0283
 IR Inten    --      0.6837                 1.2055                10.3142

                      7                      8                      9
                      A                      A                      A
 Frequencies --    136.2301               143.3148               153.0823
 Red. masses --      4.7445                 5.9150                 3.3106
 Frc consts  --      0.0519                 0.0716                 0.0457
 IR Inten    --      3.2385                12.5913                 4.9576

                     10                     11                     12
                      A                      A                      A
 Frequencies --    207.6640               246.8805               286.3285
 Red. masses --      4.4975                 2.7132                 4.2431
 Frc consts  --      0.1143                 0.0974                 0.2050
 IR Inten    --      7.5913                 6.9423                 9.5346

                     13                     14                     15
                      A                      A                      A
 Frequencies --    314.3307               342.4723               350.7658
 Red. masses --      4.4093                 2.6723                 1.1670
 Frc consts  --      0.2567                 0.1847                 0.0846
 IR Inten    --      1.1913                 3.6063                61.8512

                     16                     17                     18
                      A                      A                      A
 Frequencies --    364.2377               417.7366               443.2032
 Red. masses --      5.0024                 3.3592                 4.4461
 Frc consts  --      0.3910                 0.3454                 0.5146
 IR Inten    --     13.9442                11.0415                 0.5384

                     19                     20                     21
                      A                      A                      A
 Frequencies --    524.4809               554.8286               601.5111
 Red. masses --      2.3640                 2.8740                 4.0102
 Frc consts  --      0.3831                 0.5213                 0.8549
 IR Inten    --     13.9265                 3.8214                 8.1467

                     22                     23                     24
                      A                      A                      A
 Frequencies --    623.0291               647.1006               669.7807
 Red. masses --      3.5288                 3.3268                 3.0451
 Frc consts  --      0.8070                 0.8208                 0.8049
 IR Inten    --     32.7525                 8.3446                35.5877

                     25                     26                     27
                      A                      A                      A
 Frequencies --    688.3375               718.4192               733.3615
 Red. masses --      1.4909                 3.9126                 1.1984
 Frc consts  --      0.4162                 1.1898                 0.3798
 IR Inten    --     72.7176                 4.6744                63.6434

                     28                     29                     30
                      A                      A                      A
 Frequencies --    744.3852               795.7063               814.8407
 Red. masses --      3.4485                 1.6430                 1.3035
 Frc consts  --      1.1258                 0.6129                 0.5099
 IR Inten    --      3.2604               242.2633                58.6808

                     31                     32                     33
                      A                      A                      A
 Frequencies --    816.5953               825.3827               837.9907
 Red. masses --      1.4096                 2.2311                 2.0353
 Frc consts  --      0.5538                 0.8955                 0.8421
 IR Inten    --     51.0090                61.1250                29.0886

                     34                     35                     36
                      A                      A                      A
 Frequencies --    844.7903               887.6054               927.3318
 Red. masses --      1.4174                 2.5246                 1.6550
 Frc consts  --      0.5960                 1.1719                 0.8385
 IR Inten    --     30.6172                 5.1023                 3.0550

                     37                     38                     39
                      A                      A                      A
 Frequencies --    941.5833               985.0928              1023.6660
 Red. masses --      5.7969                 2.7220                 2.1692
 Frc consts  --      3.0281                 1.5563                 1.3393
 IR Inten    --     12.0483                 3.7943                41.5841

                     40                     41                     42
                      A                      A                      A
 Frequencies --   1029.1742              1057.2121              1110.7454
 Red. masses --      3.8169                 4.1909                 2.6995
 Frc consts  --      2.3820                 2.7599                 1.9623
 IR Inten    --      6.7341                21.7230                 9.5354

                     43                     44                     45
                      A                      A                      A
 Frequencies --   1125.4089              1134.8940              1152.8821
 Red. masses --      1.5595                 3.3847                 2.0906
 Frc consts  --      1.1637                 2.5685                 1.6371
 IR Inten    --     59.6215                30.3672                12.9593

                     46                     47                     48
                      A                      A                      A
 Frequencies --   1162.6870              1198.5984              1203.5455
 Red. masses --      1.4407                 1.3741                 1.9292
 Frc consts  --      1.1475                 1.1631                 1.6465
 IR Inten    --     24.9387                 2.3863                23.3493

                     49                     50                     51
                      A                      A                      A
 Frequencies --   1244.0529              1268.5948              1272.5984
 Red. masses --      1.5456                 1.9120                 1.7917
 Frc consts  --      1.4094                 1.8129                 1.7096
 IR Inten    --     61.1773                48.2932                79.7783

                     52                     53                     54
                      A                      A                      A
 Frequencies --   1279.5194              1305.1758              1323.5149
 Red. masses --      1.6904                 1.2768                 1.3455
 Frc consts  --      1.6306                 1.2815                 1.3887
 IR Inten    --     71.4594                 5.6570                36.5433

                     55                     56                     57
                      A                      A                      A
 Frequencies --   1367.3651              1369.1172              1383.8615
 Red. masses --      1.8286                 1.6103                 1.5234
 Frc consts  --      2.0144                 1.7784                 1.7189
 IR Inten    --    237.4307                13.2638               189.7674

                     58                     59                     60
                      A                      A                      A
 Frequencies --   1395.7691              1398.4039              1410.1447
 Red. masses --      1.3624                 2.9703                 1.5759
 Frc consts  --      1.5638                 3.4223                 1.8464
 IR Inten    --      8.9665                21.9218                77.5969

                     61                     62                     63
                      A                      A                      A
 Frequencies --   1436.9073              1456.6738              1479.9828
 Red. masses --      2.8477                 1.1341                 1.2350
 Frc consts  --      3.4642                 1.4179                 1.5938
 IR Inten    --     35.8943                 7.6234                32.1493

                     64                     65                     66
                      A                      A                      A
 Frequencies --   1481.1836              1486.5159              1506.6431
 Red. masses --      1.3105                 1.0968                 3.3843
 Frc consts  --      1.6940                 1.4280                 4.5263
 IR Inten    --     17.4468                10.5861                24.1761

                     67                     68                     69
                      A                      A                      A
 Frequencies --   1610.4062              1662.2829              1769.1816
 Red. masses --      4.4806                 1.0962                 8.1316
 Frc consts  --      6.8463                 1.7846                14.9959
 IR Inten    --     12.8010                33.2178               431.0638

                     70                     71                     72
                      A                      A                      A
 Frequencies --   1830.0096              3019.2150              3039.4427
 Red. masses --      9.9778                 1.0610                 1.0662
 Frc consts  --     19.6875                 5.6985                 5.8033
 IR Inten    --    260.8298                22.0515                23.0321

                     73                     74                     75
                      A                      A                      A
 Frequencies --   3056.3442              3063.4482              3099.4994
 Red. masses --      1.0813                 1.0817                 1.0845
 Frc consts  --      5.9511                 5.9811                 6.1386
 IR Inten    --     10.6901                32.7789                 9.1091

                     76                     77                     78
                      A                      A                      A
 Frequencies --   3106.3225              3111.4159              3247.9912
 Red. masses --      1.0955                 1.1030                 1.0964
 Frc consts  --      6.2281                 6.2914                 6.8147
 IR Inten    --      2.6682                16.7947                 6.6590

                     79                     80                     81
                      A                      A                      A
 Frequencies --   3266.5714              3517.1142              3542.0658
 Red. masses --      1.0977                 1.0482                 1.0753
 Frc consts  --      6.9012                 7.6396                 7.9483
 IR Inten    --      1.1311                 1.9580                23.6089

                     82                     83                     84
                      A                      A                      A
 Frequencies --   3590.6831              3615.2660              3633.2623
 Red. masses --      1.0827                 1.0950                 1.0648
 Frc consts  --      8.2243                 8.4320                 8.2814
 IR Inten    --    206.1411                 7.0901               203.4252

 - Thermochemistry -
 -------------------
 Temperature   298.150 Kelvin.  Pressure   1.00000 Atm.
 Atom     1 has atomic number  8 and mass  15.99491

 Molecular mass:   226.10659 amu.
 Principal axes and moments of inertia in atomic units:
                           1         2         3
     Eigenvalues --  2400.152256293.876207715.73942
           X            0.97499  -0.19073  -0.11411
           Y            0.05811  -0.27683   0.95916
           Z            0.21454   0.94180   0.25882
 This molecule is an asymmetric top.
 Rotational symmetry number  1.
 Warning -- assumption of classical behavior for rotation
           may cause significant error
 Rotational temperatures (Kelvin)      0.03609     0.01376     0.01123
 Rotational constants (GHZ):           0.75193     0.28675     0.23390
 Zero-point vibrational energy     644541.1 (Joules/Mol)
                                  154.04902 (Kcal/Mol)
 Warning -- explicit consideration of  21 degrees of freedom as
           vibrations may cause significant error
 Vibrational temperatures:     14.13    50.77    70.39    90.18   115.09
          (Kelvin)            127.18   196.00   206.20   220.25   298.78
                              355.21   411.96   452.25   492.74   504.67
                              524.06   601.03   637.67   754.61   798.27
                              865.44   896.40   931.03   963.66   990.36
                             1033.64  1055.14  1071.00  1144.84  1172.37
                             1174.90  1187.54  1205.68  1215.46  1277.06
                             1334.22  1354.73  1417.33  1472.83  1480.75
                             1521.09  1598.11  1619.21  1632.86  1658.74
                             1672.85  1724.51  1731.63  1789.91  1825.22
                             1830.98  1840.94  1877.85  1904.24  1967.33
                             1969.85  1991.07  2008.20  2011.99  2028.88
                             2067.39  2095.83  2129.36  2131.09  2138.76
                             2167.72  2317.01  2391.65  2545.45  2632.97
                             4343.97  4373.07  4397.39  4407.61  4459.48
                             4469.30  4476.63  4673.13  4699.86  5060.34
                             5096.24  5166.19  5201.55  5227.45

 Zero-point correction=                           0.245493 (Hartree/Particle)
 Thermal correction to Energy=                    0.261171
 Thermal correction to Enthalpy=                  0.262115
 Thermal correction to Gibbs Free Energy=         0.199309
 Sum of electronic and zero-point Energies=           -795.953577
 Sum of electronic and thermal Energies=              -795.937899
 Sum of electronic and thermal Enthalpies=            -795.936954
 Sum of electronic and thermal Free Energies=         -795.999760

                     E (Thermal)             CV                S
                      KCal/Mol        Cal/Mol-Kelvin    Cal/Mol-Kelvin
 Total                  163.887             57.735            132.186
 Electronic               0.000              0.000              0.000
 Translational            0.889              2.981             42.150
 Rotational               0.889              2.981             33.122
 Vibrational            162.110             51.773             56.914
 Vibration     1          0.593              1.987              8.047
 Vibration     2          0.594              1.982              5.508
 Vibration     3          0.595              1.978              4.860
 Vibration     4          0.597              1.972              4.371
 Vibration     5          0.600              1.963              3.891
 Vibration     6          0.601              1.957              3.695
 Vibration     7          0.614              1.917              2.856
 Vibration     8          0.616              1.910              2.759
 Vibration     9          0.619              1.899              2.634
 Vibration    10          0.641              1.829              2.064
 Vibration    11          0.661              1.768              1.753
 Vibration    12          0.684              1.699              1.496
 Vibration    13          0.702              1.646              1.339
 Vibration    14          0.722              1.591              1.201
 Vibration    15          0.728              1.574              1.163
 Vibration    16          0.738              1.546              1.104
 Vibration    17          0.781              1.432              0.900
 Vibration    18          0.803              1.376              0.817
 Vibration    19          0.879              1.196              0.600
 Vibration    20          0.910              1.129              0.534
 Vibration    21          0.960              1.029              0.447

 Optimization completed.
    -- Stationary point found.
 Normal termination of Gaussian 09 at Sat Jul 24 02:38:41 2021.
