 Gaussian 09, Revision D.01,
 Gaussian 09:  ES64L-G09RevD.01 24-Apr-2013

 ----------------------------------------------------------------------
 # B3LYP/6-31+G(d,p) EmpiricalDispersion=GD3BJ opt=calcfc freq=noraman
 nosymm integral(ultrafinegrid)
 ----------------------------------------------------------------------

 ------------------------------------------------------------
 Candidate Structure: Conf:801 OPT and FREQ calc in gas phase
 ------------------------------------------------------------
 Symbolic Z-matrix:
 Charge =  0 Multiplicity = 1

 SCF Done:  E(RB3LYP) =  -796.195552798     A.U. after   15 cycles
 SCF Done:  E(RB3LYP) =  -796.198666538     A.U. after   13 cycles
 SCF Done:  E(RB3LYP) =  -796.196231702     A.U. after   16 cycles
 SCF Done:  E(RB3LYP) =  -796.199072512     A.U. after   12 cycles
 SCF Done:  E(RB3LYP) =  -796.199396887     A.U. after   13 cycles
 SCF Done:  E(RB3LYP) =  -796.196362943     A.U. after   15 cycles
 SCF Done:  E(RB3LYP) =  -796.199614743     A.U. after   11 cycles
 SCF Done:  E(RB3LYP) =  -796.199976722     A.U. after   12 cycles
 SCF Done:  E(RB3LYP) =  -796.200063527     A.U. after   12 cycles
 SCF Done:  E(RB3LYP) =  -796.200098177     A.U. after   12 cycles
 SCF Done:  E(RB3LYP) =  -796.200113048     A.U. after   11 cycles
 SCF Done:  E(RB3LYP) =  -796.200116712     A.U. after   11 cycles
 SCF Done:  E(RB3LYP) =  -796.200118522     A.U. after   10 cycles
 SCF Done:  E(RB3LYP) =  -796.200121848     A.U. after   10 cycles
 SCF Done:  E(RB3LYP) =  -796.200125224     A.U. after   11 cycles
 SCF Done:  E(RB3LYP) =  -796.200125260     A.U. after    9 cycles
 Optimization completed.
    -- Stationary point found.
 Normal termination of Gaussian 09 at Sat Jul 24 02:19:18 2021.

 ----------------------------------------------------------------------
 #N Geom=AllCheck Guess=TCheck SCRF=Check GenChk RB3LYP/6-31+G(d,p) Fre
 q
 ----------------------------------------------------------------------

 Structure from the checkpoint file:  "conf-801.chk"
 ------------------------------------------------------------
 Candidate Structure: Conf:801 OPT and FREQ calc in gas phase
 ------------------------------------------------------------
 Charge =  0 Multiplicity = 1

                          Input orientation:
 ---------------------------------------------------------------------
 Center     Atomic      Atomic             Coordinates (Angstroms)
 Number     Number       Type             X           Y           Z
 ---------------------------------------------------------------------
      1          8           0        1.325631    0.060117   -1.516590
      2          6           0        1.649847   -0.347634   -0.399645
      3          7           0        0.790229   -0.289188    0.657655
      4          6           0       -0.512124    0.323999    0.530131
      5          6           0       -1.002911    0.684225    1.934310
      6          8           0       -2.100866    1.457337    2.003203
      7          8           0       -0.453804    0.292521    2.940458
      8          6           0       -1.508632   -0.616531   -0.211382
      9          6           0       -2.840789    0.014264   -0.464432
     10          6           0       -3.217728    1.140090   -1.172041
     11          7           0       -4.578112    1.356175   -1.065375
     12          6           0       -5.030519    0.381896   -0.304864
     13          7           0       -4.019908   -0.455112    0.087485
     14          6           0        3.015380   -0.943540   -0.113802
     15          6           0        4.142171    0.019558   -0.510906
     16          7           0        5.441737   -0.613962   -0.265369
     17          1           0        1.082782   -0.534689    1.595598
     18          1           0       -0.414478    1.238782   -0.067298
     19          1           0       -2.461462    1.633407    1.113234
     20          1           0       -1.621492   -1.536040    0.372924
     21          1           0       -1.025211   -0.881366   -1.155342
     22          1           0       -2.588638    1.785240   -1.769644
     23          1           0       -6.058521    0.231390   -0.008160
     24          1           0       -4.108490   -1.256213    0.695849
     25          1           0        3.098512   -1.860610   -0.710847
     26          1           0        3.128245   -1.225223    0.937727
     27          1           0        4.084218    0.916569    0.116296
     28          1           0        3.980546    0.337250   -1.550110
     29          1           0        5.606691   -1.368083   -0.927959
     30          1           0        6.197465    0.055271   -0.379393
 ---------------------------------------------------------------------

 SCF Done:  E(RB3LYP) =  -796.200125260     A.U. after    1 cycles

 Alpha  occ. eigenvalues --  -19.22392 -19.17055 -19.13571 -14.42171 -14.38387
 Alpha  occ. eigenvalues --  -14.34255 -14.33174 -10.34989 -10.30622 -10.27254
 Alpha  occ. eigenvalues --  -10.26590 -10.25338 -10.23465 -10.22531 -10.22405
 Alpha  occ. eigenvalues --  -10.20642  -1.13094  -1.05535  -1.04903  -1.04163
 Alpha  occ. eigenvalues --   -0.94936  -0.89801  -0.89496  -0.82895  -0.77996
 Alpha  occ. eigenvalues --   -0.75110  -0.69852  -0.65042  -0.64076  -0.63131
 Alpha  occ. eigenvalues --   -0.61900  -0.60216  -0.57717  -0.55500  -0.51497
 Alpha  occ. eigenvalues --   -0.50702  -0.49939  -0.49434  -0.47771  -0.46713
 Alpha  occ. eigenvalues --   -0.45861  -0.45367  -0.44715  -0.44400  -0.43272
 Alpha  occ. eigenvalues --   -0.42918  -0.41871  -0.40488  -0.40270  -0.39064
 Alpha  occ. eigenvalues --   -0.37747  -0.35407  -0.34668  -0.31067  -0.30681
 Alpha  occ. eigenvalues --   -0.29315  -0.28399  -0.27446  -0.25318  -0.24894
 Alpha virt. eigenvalues --   -0.03054  -0.01561  -0.00732  -0.00629   0.00205
 Alpha virt. eigenvalues --    0.00392   0.00871   0.01702   0.02316   0.02482
 Alpha virt. eigenvalues --    0.03548   0.03726   0.04495   0.04749   0.05578

 Mulliken charges:
               1
     1  O   -0.506844
     2  C    0.331059
     3  N   -0.232772
     4  C   -0.602208
     5  C    0.498402
     6  O   -0.339726
     7  O   -0.452664
     8  C   -0.654595
     9  C    0.287229
    10  C    0.135463
    11  N   -0.280502
    12  C    0.197841
    13  N   -0.341959
    14  C   -0.192911
    15  C   -0.280530
    16  N   -0.597070
    17  H    0.329327
    18  H    0.195151
    19  H    0.372620
    20  H    0.146271
    21  H    0.213378
    22  H    0.146108
    23  H    0.144371
    24  H    0.308163
    25  H    0.162379
    26  H    0.149524
    27  H    0.139390
    28  H    0.162755
    29  H    0.275670
    30  H    0.286680
 Sum of Mulliken charges =   0.00000

 Dipole moment (field-independent basis, Debye):
    X=              0.1431    Y=             -3.1335    Z=             -0.3484  Tot=              3.1560
 Quadrupole moment (field-independent basis, Debye-Ang):
   XX=            -84.8534   YY=            -93.8644   ZZ=           -115.6500
   XY=             15.0675   XZ=            -11.1483   YZ=             -0.1251

  Exact polarizability: 187.443 -14.735 116.881   0.673  -9.571 129.416
 Approx polarizability: 222.579 -17.078 188.055   2.325 -27.554 204.681

                      1                      2                      3
                      A                      A                      A
 Frequencies --     11.2231                24.0680                41.0477
 Red. masses --      3.5218                 5.2520                 4.5042
 Frc consts  --      0.0003                 0.0018                 0.0045
 IR Inten    --      2.4220                 1.5919                 3.1107

                      4                      5                      6
                      A                      A                      A
 Frequencies --     55.1751                73.5245                78.3947
 Red. masses --      3.3489                 5.8800                 3.3782
 Frc consts  --      0.0060                 0.0187                 0.0122
 IR Inten    --      1.5398                16.6581                 1.8679

                      7                      8                      9
                      A                      A                      A
 Frequencies --     93.5956               105.0493               136.1811
 Red. masses --      5.5225                 6.3466                 4.6061
 Frc consts  --      0.0285                 0.0413                 0.0503
 IR Inten    --      2.5792                 1.8384                14.6178

                     10                     11                     12
                      A                      A                      A
 Frequencies --    200.0687               219.9228               242.6065
 Red. masses --      4.1091                 4.0784                 1.3387
 Frc consts  --      0.0969                 0.1162                 0.0464
 IR Inten    --      3.6406                18.7479                41.4503

                     13                     14                     15
                      A                      A                      A
 Frequencies --    284.0111               312.4704               330.6382
 Red. masses --      3.8846                 6.8137                 2.2400
 Frc consts  --      0.1846                 0.3920                 0.1443
 IR Inten    --     10.8465                 0.5376                 6.3170

                     16                     17                     18
                      A                      A                      A
 Frequencies --    351.8460               390.4911               403.9905
 Red. masses --      6.1661                 4.2715                 4.4301
 Frc consts  --      0.4497                 0.3838                 0.4260
 IR Inten    --      2.4717                24.3774                 6.3214

                     19                     20                     21
                      A                      A                      A
 Frequencies --    526.3556               542.4656               558.6665
 Red. masses --      1.9350                 1.4106                 1.8251
 Frc consts  --      0.3159                 0.2446                 0.3356
 IR Inten    --     29.4688                91.9490                43.2615

                     22                     23                     24
                      A                      A                      A
 Frequencies --    609.4254               634.3569               660.5122
 Red. masses --      1.7560                 2.4270                 2.3262
 Frc consts  --      0.3843                 0.5754                 0.5979
 IR Inten    --     72.8004                 6.2061                12.3517

                     25                     26                     27
                      A                      A                      A
 Frequencies --    665.4589               677.1975               736.1015
 Red. masses --      2.9231                 3.1392                 3.2646
 Frc consts  --      0.7627                 0.8482                 1.0422
 IR Inten    --     22.6404                19.3883                 1.9050

                     28                     29                     30
                      A                      A                      A
 Frequencies --    749.5384               773.8249               797.0280
 Red. masses --      5.4197                 4.0325                 1.2321
 Frc consts  --      1.7940                 1.4227                 0.4611
 IR Inten    --      6.4321                15.7907                21.9376

                     31                     32                     33
                      A                      A                      A
 Frequencies --    813.9458               824.5224               841.2176
 Red. masses --      1.4546                 2.2143                 1.3896
 Frc consts  --      0.5678                 0.8869                 0.5794
 IR Inten    --     17.0094                30.6691               106.5647

                     34                     35                     36
                      A                      A                      A
 Frequencies --    853.6402               938.7577               955.9368
 Red. masses --      1.4097                 5.8840                 3.1057
 Frc consts  --      0.6052                 3.0551                 1.6721
 IR Inten    --     33.7954                 9.2503                19.0362

                     37                     38                     39
                      A                      A                      A
 Frequencies --    982.2353              1012.1666              1029.8920
 Red. masses --      2.0562                 3.3811                 3.5492
 Frc consts  --      1.1688                 2.0408                 2.2180
 IR Inten    --      5.1735                 6.0180                 8.8542

                     40                     41                     42
                      A                      A                      A
 Frequencies --   1039.4703              1050.3719              1089.3578
 Red. masses --      3.5025                 2.2000                 2.6776
 Frc consts  --      2.2297                 1.4301                 1.8722
 IR Inten    --      2.1420                 6.7990                36.5709

                     43                     44                     45
                      A                      A                      A
 Frequencies --   1115.5486              1143.4850              1148.1882
 Red. masses --      1.5948                 1.7156                 2.2149
 Frc consts  --      1.1693                 1.3217                 1.7204
 IR Inten    --     16.0154                10.8416                14.5223

                     46                     47                     48
                      A                      A                      A
 Frequencies --   1161.1148              1168.1167              1209.3874
 Red. masses --      1.7976                 1.6759                 1.9826
 Frc consts  --      1.4279                 1.3473                 1.7085
 IR Inten    --     22.7364                13.5414                17.1000

                     49                     50                     51
                      A                      A                      A
 Frequencies --   1227.0696              1258.1272              1280.0833
 Red. masses --      1.5557                 1.9048                 1.4589
 Frc consts  --      1.3801                 1.7765                 1.4085
 IR Inten    --     21.4961                15.6758                 4.8264

                     52                     53                     54
                      A                      A                      A
 Frequencies --   1290.6881              1312.0361              1318.3139
 Red. masses --      1.3060                 1.3346                 1.3271
 Frc consts  --      1.2818                 1.3536                 1.3589
 IR Inten    --     10.1964                14.8551                52.0786

                     55                     56                     57
                      A                      A                      A
 Frequencies --   1322.7596              1356.8308              1360.3534
 Red. masses --      1.5086                 1.3376                 1.4013
 Frc consts  --      1.5552                 1.4509                 1.5279
 IR Inten    --     46.6653                 7.8881               118.8290

                     58                     59                     60
                      A                      A                      A
 Frequencies --   1402.3378              1411.3277              1425.3853
 Red. masses --      2.5529                 2.0831                 1.4356
 Frc consts  --      2.9579                 2.4446                 1.7184
 IR Inten    --     65.0010               104.3852                50.8511

                     61                     62                     63
                      A                      A                      A
 Frequencies --   1436.4044              1485.1821              1490.7236
 Red. masses --      3.2867                 1.1088                 1.2126
 Frc consts  --      3.9954                 1.4410                 1.5877
 IR Inten    --     19.3083                 9.7588                11.9695

                     64                     65                     66
                      A                      A                      A
 Frequencies --   1498.3350              1524.3720              1530.6813
 Red. masses --      3.2561                 1.0876                 2.4087
 Frc consts  --      4.3068                 1.4890                 3.3250
 IR Inten    --     24.5465                 4.8984               350.2942

                     67                     68                     69
                      A                      A                      A
 Frequencies --   1604.3454              1665.4461              1729.6799
 Red. masses --      4.1915                 1.0905                 9.4612
 Frc consts  --      6.3565                 1.7822                16.6774
 IR Inten    --     10.3367                38.2748               238.6890

                     70                     71                     72
                      A                      A                      A
 Frequencies --   1829.4030              3018.1239              3044.2762
 Red. masses --      9.7472                 1.0637                 1.0648
 Frc consts  --     19.2198                 5.7086                 5.8143
 IR Inten    --    308.4189                30.6057                11.2803

                     73                     74                     75
                      A                      A                      A
 Frequencies --   3052.7809              3065.6181              3070.1577
 Red. masses --      1.0780                 1.0675                 1.0958
 Frc consts  --      5.9193                 5.9111                 6.0858
 IR Inten    --      6.4540                17.7158                19.9543

                     76                     77                     78
                      A                      A                      A
 Frequencies --   3104.4792              3119.0561              3255.2142
 Red. masses --      1.1030                 1.1031                 1.0964
 Frc consts  --      6.2630                 6.3230                 6.8453
 IR Inten    --     25.1847                 1.8259                 3.3067

                     79                     80                     81
                      A                      A                      A
 Frequencies --   3270.5193              3503.9656              3594.5604
 Red. masses --      1.0982                 1.0500                 1.0932
 Frc consts  --      6.9212                 7.5953                 8.3222
 IR Inten    --      0.9309                 0.3231                 1.7770

                     82                     83                     84
                      A                      A                      A
 Frequencies --   3605.4977              3643.3991              3656.2400
 Red. masses --      1.0782                 1.0670                 1.0816
 Frc consts  --      8.2583                 8.3454                 8.5193
 IR Inten    --     74.1164               273.8917                62.0243

 - Thermochemistry -
 -------------------
 Temperature   298.150 Kelvin.  Pressure   1.00000 Atm.
 Atom     1 has atomic number  8 and mass  15.99491

 Molecular mass:   226.10659 amu.
 Principal axes and moments of inertia in atomic units:
                           1         2         3
     Eigenvalues --  1551.867977957.404378880.06458
           X            0.99095   0.04197   0.12750
           Y           -0.13140   0.10925   0.98529
           Z           -0.02743   0.99313  -0.11377
 This molecule is an asymmetric top.
 Rotational symmetry number  1.
 Warning -- assumption of classical behavior for rotation
           may cause significant error
 Rotational temperatures (Kelvin)      0.05581     0.01088     0.00975
 Rotational constants (GHZ):           1.16295     0.22680     0.20324
 Zero-point vibrational energy     642552.3 (Joules/Mol)
                                  153.57370 (Kcal/Mol)
 Warning -- explicit consideration of  22 degrees of freedom as
           vibrations may cause significant error
 Vibrational temperatures:     16.15    34.63    59.06    79.38   105.79
          (Kelvin)            112.79   134.66   151.14   195.93   287.85
                              316.42   349.06   408.63   449.57   475.71
                              506.23   561.83   581.25   757.31   780.49
                              803.80   876.83   912.70   950.33   957.45
                              974.33  1059.08  1078.42  1113.36  1146.74
                             1171.08  1186.30  1210.32  1228.20  1350.66
                             1375.38  1413.22  1456.28  1481.78  1495.56
                             1511.25  1567.34  1605.02  1645.22  1651.98
                             1670.58  1680.66  1740.04  1765.48  1810.16
                             1841.75  1857.01  1887.72  1896.76  1903.15
                             1952.17  1957.24  2017.65  2030.58  2050.81
                             2066.66  2136.84  2144.82  2155.77  2193.23
                             2202.31  2308.29  2396.20  2488.62  2632.10
                             4342.40  4380.03  4392.27  4410.74  4417.27
                             4466.65  4487.62  4683.52  4705.54  5041.42
                             5171.76  5187.50  5242.03  5260.51

 Zero-point correction=                           0.244735 (Hartree/Particle)
 Thermal correction to Energy=                    0.261021
 Thermal correction to Enthalpy=                  0.261965
 Thermal correction to Gibbs Free Energy=         0.197051
 Sum of electronic and zero-point Energies=           -795.955390
 Sum of electronic and thermal Energies=              -795.939104
 Sum of electronic and thermal Enthalpies=            -795.938160
 Sum of electronic and thermal Free Energies=         -796.003074

                     E (Thermal)             CV                S
                      KCal/Mol        Cal/Mol-Kelvin    Cal/Mol-Kelvin
 Total                  163.793             58.501            136.622
 Electronic               0.000              0.000              0.000
 Translational            0.889              2.981             42.150
 Rotational               0.889              2.981             33.061
 Vibrational            162.016             52.539             61.411
 Vibration     1          0.593              1.987              7.782
 Vibration     2          0.593              1.985              6.267
 Vibration     3          0.594              1.981              5.208
 Vibration     4          0.596              1.976              4.623
 Vibration     5          0.599              1.966              4.057
 Vibration     6          0.600              1.964              3.931
 Vibration     7          0.603              1.954              3.583
 Vibration     8          0.605              1.945              3.358
 Vibration     9          0.614              1.917              2.857
 Vibration    10          0.638              1.840              2.132
 Vibration    11          0.647              1.811              1.960
 Vibration    12          0.659              1.775              1.784
 Vibration    13          0.682              1.703              1.509
 Vibration    14          0.701              1.650              1.349
 Vibration    15          0.713              1.614              1.257
 Vibration    16          0.728              1.571              1.158
 Vibration    17          0.758              1.491              0.998
 Vibration    18          0.769              1.462              0.948
 Vibration    19          0.881              1.192              0.595
 Vibration    20          0.898              1.156              0.560
 Vibration    21          0.914              1.121              0.527
 Vibration    22          0.968              1.012              0.434

 Normal termination of Gaussian 09 at Sat Jul 24 02:57:17 2021.
