 Gaussian 09, Revision D.01,
 Gaussian 09:  ES64L-G09RevD.01 24-Apr-2013

 ----------------------------------------------------------------------
 # B3LYP/6-31+G(d,p) EmpiricalDispersion=GD3BJ opt=calcfc freq=noraman
 nosymm integral(ultrafinegrid)
 ----------------------------------------------------------------------

 ------------------------------------------------------------
 Candidate Structure: Conf:118 OPT and FREQ calc in gas phase
 ------------------------------------------------------------
 Symbolic Z-matrix:
 Charge =  0 Multiplicity = 1

 SCF Done:  E(RB3LYP) =  -796.210908178     A.U. after   15 cycles
 SCF Done:  E(RB3LYP) =  -796.213779002     A.U. after   15 cycles
 SCF Done:  E(RB3LYP) =  -796.214484760     A.U. after   15 cycles
 SCF Done:  E(RB3LYP) =  -796.214950045     A.U. after   12 cycles
 SCF Done:  E(RB3LYP) =  -796.215166666     A.U. after   12 cycles
 SCF Done:  E(RB3LYP) =  -796.215175561     A.U. after   12 cycles
 SCF Done:  E(RB3LYP) =  -796.215224554     A.U. after   11 cycles
 SCF Done:  E(RB3LYP) =  -796.215226793     A.U. after   11 cycles
 SCF Done:  E(RB3LYP) =  -796.215227003     A.U. after    8 cycles
 SCF Done:  E(RB3LYP) =  -796.215227007     A.U. after    7 cycles
 Optimization completed.
    -- Stationary point found.
 Normal termination of Gaussian 09 at Sat Jul 24 01:56:08 2021.

 ----------------------------------------------------------------------
 #N Geom=AllCheck Guess=TCheck SCRF=Check GenChk RB3LYP/6-31+G(d,p) Fre
 q
 ----------------------------------------------------------------------

 Structure from the checkpoint file:  "conf-118.chk"
 ------------------------------------------------------------
 Candidate Structure: Conf:118 OPT and FREQ calc in gas phase
 ------------------------------------------------------------
 Charge =  0 Multiplicity = 1

                          Input orientation:
 ---------------------------------------------------------------------
 Center     Atomic      Atomic             Coordinates (Angstroms)
 Number     Number       Type             X           Y           Z
 ---------------------------------------------------------------------
      1          8           0       -0.971929   -1.978805    1.760826
      2          6           0       -0.999585   -1.341978    0.690631
      3          7           0        0.110052   -0.742865    0.202500
      4          6           0        1.437409   -0.897231    0.797032
      5          6           0        1.568582   -0.088151    2.110235
      6          8           0        0.728412   -0.440068    3.077146
      7          8           0        2.395616    0.791526    2.266210
      8          6           0        2.512208   -0.523406   -0.242338
      9          6           0        2.261726    0.779068   -0.931354
     10          6           0        1.841964    1.076523   -2.213229
     11          7           0        1.698123    2.438549   -2.378128
     12          6           0        2.021725    2.964139   -1.211349
     13          7           0        2.370793    2.005024   -0.304710
     14          6           0       -2.281313   -1.165059   -0.087132
     15          6           0       -3.318877   -0.351206    0.729185
     16          7           0       -4.612841   -0.170374    0.088618
     17          1           0        0.052174   -0.153844   -0.621593
     18          1           0        1.553991   -1.953501    1.070713
     19          1           0        0.096804   -1.144001    2.756562
     20          1           0        2.535308   -1.310051   -1.002222
     21          1           0        3.482987   -0.523396    0.261555
     22          1           0        1.664584    0.386195   -3.027173
     23          1           0        2.022882    4.017941   -0.971808
     24          1           0        2.604695    2.109553    0.677164
     25          1           0       -2.684469   -2.164464   -0.284740
     26          1           0       -2.096666   -0.679354   -1.052073
     27          1           0       -3.470435   -0.849592    1.690599
     28          1           0       -2.905460    0.640164    0.947299
     29          1           0       -4.538317    0.324747   -0.795165
     30          1           0       -5.080047   -1.056079   -0.081775
 ---------------------------------------------------------------------

 SCF Done:  E(RB3LYP) =  -796.215227007     A.U. after    1 cycles

 Alpha  occ. eigenvalues --  -19.20574 -19.16613 -19.16581 -14.40974 -14.40098
 Alpha  occ. eigenvalues --  -14.34150 -14.33111 -10.34519 -10.33226 -10.27899
 Alpha  occ. eigenvalues --  -10.25398 -10.24025 -10.23731 -10.23462 -10.22447
 Alpha  occ. eigenvalues --  -10.21692  -1.12229  -1.08006  -1.03948  -1.02732
 Alpha  occ. eigenvalues --   -0.97149  -0.90681  -0.88400  -0.83099  -0.78672
 Alpha  occ. eigenvalues --   -0.75498  -0.69326  -0.66285  -0.63199  -0.63007
 Alpha  occ. eigenvalues --   -0.61735  -0.60526  -0.57204  -0.56047  -0.53359
 Alpha  occ. eigenvalues --   -0.52185  -0.51600  -0.48567  -0.47395  -0.47031
 Alpha  occ. eigenvalues --   -0.46201  -0.45532  -0.44818  -0.44214  -0.43330
 Alpha  occ. eigenvalues --   -0.42379  -0.42303  -0.41735  -0.40652  -0.39780
 Alpha  occ. eigenvalues --   -0.38742  -0.37095  -0.33737  -0.32586  -0.30493
 Alpha  occ. eigenvalues --   -0.29644  -0.28793  -0.28259  -0.25863  -0.24582
 Alpha virt. eigenvalues --   -0.03496  -0.02745  -0.01299  -0.00904   0.00192
 Alpha virt. eigenvalues --    0.00331   0.00945   0.01813   0.02420   0.03202
 Alpha virt. eigenvalues --    0.03756   0.03921   0.04409   0.04707   0.05874

 Mulliken charges:
               1
     1  O   -0.521449
     2  C    0.200733
     3  N   -0.233706
     4  C   -0.205842
     5  C    0.414200
     6  O   -0.422041
     7  O   -0.485212
     8  C   -0.488372
     9  C   -0.005817
    10  C   -0.120327
    11  N   -0.280445
    12  C    0.237744
    13  N   -0.315179
    14  C   -0.075634
    15  C   -0.205786
    16  N   -0.599809
    17  H    0.320521
    18  H    0.194283
    19  H    0.414683
    20  H    0.161839
    21  H    0.185419
    22  H    0.128390
    23  H    0.139461
    24  H    0.348789
    25  H    0.176405
    26  H    0.135502
    27  H    0.175797
    28  H    0.151434
    29  H    0.286574
    30  H    0.287845
 Sum of Mulliken charges =   0.00000

 Dipole moment (field-independent basis, Debye):
    X=             -0.6343    Y=             -2.6693    Z=             -2.5096  Tot=              3.7183
 Quadrupole moment (field-independent basis, Debye-Ang):
   XX=            -97.2634   YY=            -95.8799   ZZ=           -117.2425
   XY=             -0.6578   XZ=              6.2309   YZ=              9.5078

  Exact polarizability: 149.733  13.389 140.955   2.368 -12.571 141.093
 Approx polarizability: 193.613  16.482 213.610   8.872 -14.023 214.524

                      1                      2                      3
                      A                      A                      A
 Frequencies --     15.6922                42.8774                56.2568
 Red. masses --      4.3102                 6.6039                 2.9936
 Frc consts  --      0.0006                 0.0072                 0.0056
 IR Inten    --      0.1796                 1.2527                 4.6817

                      4                      5                      6
                      A                      A                      A
 Frequencies --     73.9419                83.8587                93.3841
 Red. masses --      4.2731                 2.8582                 5.0130
 Frc consts  --      0.0138                 0.0118                 0.0258
 IR Inten    --      6.3885                 0.2306                 5.0115

                      7                      8                      9
                      A                      A                      A
 Frequencies --    134.3395               154.5294               197.5553
 Red. masses --      8.9558                 5.5648                 4.2881
 Frc consts  --      0.0952                 0.0783                 0.0986
 IR Inten    --     10.4558                 7.5966                12.8545

                     10                     11                     12
                      A                      A                      A
 Frequencies --    211.2162               230.7960               275.6363
 Red. masses --      4.7004                 7.1635                 6.8328
 Frc consts  --      0.1235                 0.2248                 0.3059
 IR Inten    --      4.0409                16.2693                 0.5515

                     13                     14                     15
                      A                      A                      A
 Frequencies --    299.6040               303.2621               346.1342
 Red. masses --      1.1298                 5.0349                 4.6537
 Frc consts  --      0.0597                 0.2728                 0.3285
 IR Inten    --     45.3386                 2.5918                 4.9582

                     16                     17                     18
                      A                      A                      A
 Frequencies --    362.5568               382.9708               442.6936
 Red. masses --      2.4204                 4.0179                 3.3826
 Frc consts  --      0.1875                 0.3472                 0.3906
 IR Inten    --      6.0970                 5.5195                24.4116

                     19                     20                     21
                      A                      A                      A
 Frequencies --    566.4993               574.7701               604.2175
 Red. masses --      1.8493                 2.6419                 3.3991
 Frc consts  --      0.3497                 0.5142                 0.7311
 IR Inten    --     26.6383                31.1762                 9.9826

                     22                     23                     24
                      A                      A                      A
 Frequencies --    632.8202               661.9135               669.7196
 Red. masses --      3.5083                 2.7704                 3.6375
 Frc consts  --      0.8278                 0.7151                 0.9612
 IR Inten    --     10.1585                10.5263                32.0655

                     25                     26                     27
                      A                      A                      A
 Frequencies --    729.2747               737.7675               760.8679
 Red. masses --      2.0952                 1.6375                 5.5274
 Frc consts  --      0.6565                 0.5252                 1.8853
 IR Inten    --     11.2358                65.6791                11.7172

                     28                     29                     30
                      A                      A                      A
 Frequencies --    769.7302               782.2117               793.7200
 Red. masses --      1.3522                 2.7648                 1.6876
 Frc consts  --      0.4720                 0.9967                 0.6264
 IR Inten    --      3.7426                28.8903               238.3376

                     31                     32                     33
                      A                      A                      A
 Frequencies --    824.5348               841.4334               857.2095
 Red. masses --      1.3907                 1.4639                 2.6166
 Frc consts  --      0.5571                 0.6106                 1.1328
 IR Inten    --     25.7020                26.1398                14.7078

                     34                     35                     36
                      A                      A                      A
 Frequencies --    932.3132               941.7726               949.1744
 Red. masses --      1.2585                 5.4314                 2.0949
 Frc consts  --      0.6445                 2.8383                 1.1120
 IR Inten    --     80.4553                 7.4016                20.0114

                     37                     38                     39
                      A                      A                      A
 Frequencies --    976.5474               991.5891              1009.1253
 Red. masses --      1.3730                 4.2092                 4.4728
 Frc consts  --      0.7714                 2.4385                 2.6836
 IR Inten    --      1.2024                 6.8464                54.0791

                     40                     41                     42
                      A                      A                      A
 Frequencies --   1013.9900              1059.7381              1094.5279
 Red. masses --      4.0799                 2.3425                 2.1094
 Frc consts  --      2.4716                 1.5500                 1.4889
 IR Inten    --     13.3168                11.7832                 5.7965

                     43                     44                     45
                      A                      A                      A
 Frequencies --   1108.6923              1123.4383              1140.5709
 Red. masses --      3.8072                 1.5522                 1.4503
 Frc consts  --      2.7573                 1.1542                 1.1116
 IR Inten    --     25.8270                48.0292                 3.3910

                     46                     47                     48
                      A                      A                      A
 Frequencies --   1151.0850              1223.7779              1244.3760
 Red. masses --      2.1342                 1.5181                 2.2164
 Frc consts  --      1.6661                 1.3395                 2.0221
 IR Inten    --      9.1035                11.9085                28.8904

                     49                     50                     51
                      A                      A                      A
 Frequencies --   1260.2305              1269.8440              1287.5843
 Red. masses --      1.6097                 2.2886                 1.3084
 Frc consts  --      1.5062                 2.1743                 1.2780
 IR Inten    --     26.2369                 3.8078                 6.6287

                     52                     53                     54
                      A                      A                      A
 Frequencies --   1291.6759              1308.1330              1355.1712
 Red. masses --      1.3258                 1.4781                 1.7091
 Frc consts  --      1.3033                 1.4902                 1.8493
 IR Inten    --      1.1879                22.5712                 8.2559

                     55                     56                     57
                      A                      A                      A
 Frequencies --   1370.1638              1382.7476              1385.4615
 Red. masses --      1.5557                 1.4902                 1.1941
 Frc consts  --      1.7208                 1.6787                 1.3505
 IR Inten    --     14.0454                 4.5254                11.5062

                     58                     59                     60
                      A                      A                      A
 Frequencies --   1392.6306              1401.2100              1432.7133
 Red. masses --      1.2363                 3.2792                 2.8202
 Frc consts  --      1.4126                 3.7933                 3.4107
 IR Inten    --     23.1157                30.0006                61.8363

                     61                     62                     63
                      A                      A                      A
 Frequencies --   1461.7177              1475.7140              1484.4649
 Red. masses --      1.4410                 1.1394                 1.1284
 Frc consts  --      1.8140                 1.4619                 1.4650
 IR Inten    --    230.3955                18.2609                 2.2842

                     64                     65                     66
                      A                      A                      A
 Frequencies --   1503.4943              1507.5143              1546.3252
 Red. masses --      1.0912                 3.5103                 2.5132
 Frc consts  --      1.4533                 4.7002                 3.5407
 IR Inten    --      5.6298                22.5509               464.8332

                     67                     68                     69
                      A                      A                      A
 Frequencies --   1607.9929              1668.5413              1680.8964
 Red. masses --      4.4512                 1.1381                 5.8650
 Frc consts  --      6.7810                 1.8668                 9.7634
 IR Inten    --     13.3466                67.8168               195.6772

                     70                     71                     72
                      A                      A                      A
 Frequencies --   1807.2292              3047.1913              3049.8978
 Red. masses --      8.3569                 1.0596                 1.0828
 Frc consts  --     16.0813                 5.7967                 5.9343
 IR Inten    --    379.1435                 4.0102                 4.3715

                     73                     74                     75
                      A                      A                      A
 Frequencies --   3056.4855              3073.0840              3094.8398
 Red. masses --      1.0650                 1.0615                 1.1013
 Frc consts  --      5.8617                 5.9064                 6.2151
 IR Inten    --     29.3605                19.4822                 2.3444

                     76                     77                     78
                      A                      A                      A
 Frequencies --   3118.2797              3119.6235              3197.1758
 Red. masses --      1.1047                 1.1050                 1.0757
 Frc consts  --      6.3290                 6.3359                 6.4786
 IR Inten    --      3.6768                19.2542               753.3681

                     79                     80                     81
                      A                      A                      A
 Frequencies --   3244.7029              3267.4716              3513.9205
 Red. masses --      1.0963                 1.0978                 1.0483
 Frc consts  --      6.8001                 6.9057                 7.6262
 IR Inten    --      6.0992                 0.8356                 1.4232

                     82                     83                     84
                      A                      A                      A
 Frequencies --   3562.8307              3585.0998              3606.8619
 Red. masses --      1.0791                 1.0831                 1.0951
 Frc consts  --      8.0703                 8.2019                 8.3938
 IR Inten    --    138.9623               206.1579                 2.6041

 - Thermochemistry -
 -------------------
 Temperature   298.150 Kelvin.  Pressure   1.00000 Atm.
 Atom     1 has atomic number  8 and mass  15.99491

 Molecular mass:   226.10659 amu.
 Principal axes and moments of inertia in atomic units:
                           1         2         3
     Eigenvalues --  2726.368075248.731946782.34159
           X            0.86926   0.43009  -0.24374
           Y            0.42243  -0.39014   0.81813
           Z           -0.25678   0.81414   0.52081
 This molecule is an asymmetric top.
 Rotational symmetry number  1.
 Warning -- assumption of classical behavior for rotation
           may cause significant error
 Rotational temperatures (Kelvin)      0.03177     0.01650     0.01277
 Rotational constants (GHZ):           0.66196     0.34384     0.26609
 Zero-point vibrational energy     645347.2 (Joules/Mol)
                                  154.24169 (Kcal/Mol)
 Warning -- explicit consideration of  21 degrees of freedom as
           vibrations may cause significant error
 Vibrational temperatures:     22.58    61.69    80.94   106.39   120.65
          (Kelvin)            134.36   193.28   222.33   284.24   303.89
                              332.06   396.58   431.06   436.33   498.01
                              521.64   551.01   636.94   815.07   826.97
                              869.33   910.49   952.34   963.58  1049.26
                             1061.48  1094.72  1107.47  1125.43  1141.98
                             1186.32  1210.63  1233.33  1341.39  1355.00
                             1365.65  1405.03  1426.67  1451.90  1458.90
                             1524.72  1574.78  1595.16  1616.38  1641.03
                             1656.15  1760.74  1790.38  1813.19  1827.02
                             1852.54  1858.43  1882.11  1949.79  1971.36
                             1989.46  1993.37  2003.68  2016.03  2061.35
                             2103.08  2123.22  2135.81  2163.19  2168.97
                             2224.81  2313.54  2400.66  2418.43  2600.20
                             4384.22  4388.12  4397.60  4421.48  4452.78
                             4486.50  4488.44  4600.02  4668.40  4701.16
                             5055.74  5126.11  5158.15  5189.46

 Zero-point correction=                           0.245800 (Hartree/Particle)
 Thermal correction to Energy=                    0.261305
 Thermal correction to Enthalpy=                  0.262249
 Thermal correction to Gibbs Free Energy=         0.200729
 Sum of electronic and zero-point Energies=           -795.969427
 Sum of electronic and thermal Energies=              -795.953922
 Sum of electronic and thermal Enthalpies=            -795.952978
 Sum of electronic and thermal Free Energies=         -796.014498

                     E (Thermal)             CV                S
                      KCal/Mol        Cal/Mol-Kelvin    Cal/Mol-Kelvin
 Total                  163.971             57.172            129.480
 Electronic               0.000              0.000              0.000
 Translational            0.889              2.981             42.150
 Rotational               0.889              2.981             32.940
 Vibrational            162.194             51.210             54.390
 Vibration     1          0.593              1.986              7.116
 Vibration     2          0.595              1.980              5.122
 Vibration     3          0.596              1.975              4.584
 Vibration     4          0.599              1.966              4.046
 Vibration     5          0.601              1.960              3.798
 Vibration     6          0.602              1.954              3.588
 Vibration     7          0.613              1.919              2.883
 Vibration     8          0.620              1.898              2.616
 Vibration     9          0.637              1.843              2.156
 Vibration    10          0.643              1.824              2.033
 Vibration    11          0.653              1.794              1.873
 Vibration    12          0.677              1.718              1.561
 Vibration    13          0.692              1.674              1.419
 Vibration    14          0.695              1.668              1.399
 Vibration    15          0.724              1.583              1.184
 Vibration    16          0.736              1.549              1.111
 Vibration    17          0.752              1.507              1.027
 Vibration    18          0.802              1.377              0.818
 Vibration    19          0.922              1.104              0.511
 Vibration    20          0.931              1.086              0.495
 Vibration    21          0.963              1.023              0.442

 Optimization completed.
    -- Stationary point found.
 Normal termination of Gaussian 09 at Sat Jul 24 02:38:40 2021.
