 Gaussian 09, Revision D.01,
 Gaussian 09:  ES64L-G09RevD.01 24-Apr-2013

 ----------------------------------------------------------------------
 # B3LYP/6-31+G(d,p) EmpiricalDispersion=GD3BJ opt=calcfc freq=noraman
 nosymm integral(ultrafinegrid)
 ----------------------------------------------------------------------

 ------------------------------------------------------------
 Candidate Structure: Conf:455 OPT and FREQ calc in gas phase
 ------------------------------------------------------------
 Symbolic Z-matrix:
 Charge =  0 Multiplicity = 1

 SCF Done:  E(RB3LYP) =  -796.190548021     A.U. after   15 cycles
 SCF Done:  E(RB3LYP) =  -796.192943224     A.U. after   15 cycles
 SCF Done:  E(RB3LYP) =  -796.193209005     A.U. after   14 cycles
 SCF Done:  E(RB3LYP) =  -796.172913664     A.U. after   15 cycles
 SCF Done:  E(RB3LYP) =  -796.193338406     A.U. after   10 cycles
 SCF Done:  E(RB3LYP) =  -796.193681550     A.U. after   12 cycles
 SCF Done:  E(RB3LYP) =  -796.193815899     A.U. after   13 cycles
 SCF Done:  E(RB3LYP) =  -796.193878512     A.U. after   12 cycles
 SCF Done:  E(RB3LYP) =  -796.194000829     A.U. after   13 cycles
 SCF Done:  E(RB3LYP) =  -796.194065793     A.U. after   12 cycles
 SCF Done:  E(RB3LYP) =  -796.194070520     A.U. after   11 cycles
 SCF Done:  E(RB3LYP) =  -796.194071555     A.U. after   10 cycles
 SCF Done:  E(RB3LYP) =  -796.194071734     A.U. after    9 cycles
 Optimization completed.
    -- Stationary point found.
 Normal termination of Gaussian 09 at Sat Jul 24 02:12:04 2021.

 ----------------------------------------------------------------------
 #N Geom=AllCheck Guess=TCheck SCRF=Check GenChk RB3LYP/6-31+G(d,p) Fre
 q
 ----------------------------------------------------------------------

 Structure from the checkpoint file:  "conf-455.chk"
 ------------------------------------------------------------
 Candidate Structure: Conf:455 OPT and FREQ calc in gas phase
 ------------------------------------------------------------
 Charge =  0 Multiplicity = 1

                          Input orientation:
 ---------------------------------------------------------------------
 Center     Atomic      Atomic             Coordinates (Angstroms)
 Number     Number       Type             X           Y           Z
 ---------------------------------------------------------------------
      1          8           0        0.418096   -0.941914   -1.173570
      2          6           0        1.042826   -0.552930   -0.181690
      3          7           0        0.553593   -0.701436    1.081786
      4          6           0       -0.580443   -1.550330    1.395553
      5          6           0       -0.170575   -3.036224    1.254866
      6          8           0       -1.179939   -3.939480    1.203140
      7          8           0        0.976302   -3.402932    1.257854
      8          6           0       -1.886827   -1.186415    0.629588
      9          6           0       -2.133401    0.280454    0.508915
     10          6           0       -2.797672    1.191498    1.301937
     11          7           0       -2.720596    2.457865    0.761996
     12          6           0       -2.019855    2.321589   -0.348105
     13          7           0       -1.645599    1.023653   -0.548536
     14          6           0        2.345887    0.208573   -0.310817
     15          6           0        2.133943    1.533112   -1.083782
     16          7           0        3.333725    2.324196   -1.322220
     17          1           0        1.180933   -0.493499    1.844082
     18          1           0       -0.779067   -1.397513    2.462906
     19          1           0       -2.043851   -3.507604    1.139096
     20          1           0       -2.732663   -1.618483    1.179435
     21          1           0       -1.859038   -1.636386   -0.365312
     22          1           0       -3.333016    1.003625    2.222725
     23          1           0       -1.764978    3.113723   -1.037603
     24          1           0       -1.065531    0.644271   -1.287772
     25          1           0        2.791762    0.416132    0.668800
     26          1           0        3.041197   -0.429747   -0.866787
     27          1           0        1.678318    1.297800   -2.050329
     28          1           0        1.419069    2.157343   -0.535190
     29          1           0        3.779847    2.607794   -0.454634
     30          1           0        4.017461    1.813160   -1.873376
 ---------------------------------------------------------------------

 SCF Done:  E(RB3LYP) =  -796.194071734     A.U. after    1 cycles

 Alpha  occ. eigenvalues --  -19.22914 -19.16713 -19.14999 -14.39832 -14.39780
 Alpha  occ. eigenvalues --  -14.33922 -14.32581 -10.34814 -10.31950 -10.28249
 Alpha  occ. eigenvalues --  -10.24859 -10.23871 -10.23558 -10.23431 -10.21637
 Alpha  occ. eigenvalues --  -10.20972  -1.13111  -1.06852  -1.04959  -1.02302
 Alpha  occ. eigenvalues --   -0.96163  -0.90403  -0.87973  -0.82882  -0.78112
 Alpha  occ. eigenvalues --   -0.75138  -0.69639  -0.65918  -0.64151  -0.62248
 Alpha  occ. eigenvalues --   -0.61331  -0.60026  -0.57211  -0.54497  -0.54437
 Alpha  occ. eigenvalues --   -0.52509  -0.49891  -0.48457  -0.47395  -0.46640
 Alpha  occ. eigenvalues --   -0.46230  -0.44646  -0.44414  -0.43642  -0.42915
 Alpha  occ. eigenvalues --   -0.42590  -0.41789  -0.41667  -0.40842  -0.40054
 Alpha  occ. eigenvalues --   -0.38548  -0.36573  -0.34557  -0.30782  -0.29737
 Alpha  occ. eigenvalues --   -0.29050  -0.28830  -0.27705  -0.25539  -0.23776
 Alpha virt. eigenvalues --   -0.03463  -0.02493  -0.01826  -0.01031  -0.00182
 Alpha virt. eigenvalues --    0.00770   0.01116   0.01843   0.02556   0.02744
 Alpha virt. eigenvalues --    0.03660   0.04404   0.04783   0.04992   0.05447

 Mulliken charges:
               1
     1  O   -0.485656
     2  C    0.056645
     3  N   -0.323563
     4  C    0.040376
     5  C    0.325162
     6  O   -0.375648
     7  O   -0.398434
     8  C   -0.888394
     9  C    0.386119
    10  C    0.041155
    11  N   -0.276475
    12  C    0.191746
    13  N   -0.310559
    14  C   -0.077203
    15  C   -0.278151
    16  N   -0.595373
    17  H    0.318595
    18  H    0.173973
    19  H    0.345160
    20  H    0.136797
    21  H    0.200576
    22  H    0.121577
    23  H    0.138617
    24  H    0.332038
    25  H    0.129203
    26  H    0.178209
    27  H    0.165918
    28  H    0.155951
    29  H    0.284312
    30  H    0.287327
 Sum of Mulliken charges =   0.00000

 Dipole moment (field-independent basis, Debye):
    X=              0.9782    Y=             -0.1505    Z=              1.5532  Tot=              1.8418
 Quadrupole moment (field-independent basis, Debye-Ang):
   XX=            -90.7308   YY=           -124.0118   ZZ=            -91.6395
   XY=             18.6556   XZ=              0.9562   YZ=             -2.5572

  Exact polarizability: 146.380  -0.102 157.645 -15.189 -13.161 124.231
 Approx polarizability: 201.730  -2.662 213.701 -17.362  -2.902 205.699

                      1                      2                      3
                      A                      A                      A
 Frequencies --     19.1617                28.7586                44.3786
 Red. masses --      4.4171                 5.2580                 4.1978
 Frc consts  --      0.0010                 0.0026                 0.0049
 IR Inten    --      0.7253                 3.5961                10.3104

                      4                      5                      6
                      A                      A                      A
 Frequencies --     61.9595                74.7367                89.3952
 Red. masses --      4.5989                 5.1362                 4.3304
 Frc consts  --      0.0104                 0.0169                 0.0204
 IR Inten    --      2.8642                 7.8128                 1.3788

                      7                      8                      9
                      A                      A                      A
 Frequencies --     91.9599               125.2374               160.8919
 Red. masses --      2.5506                 5.1999                 5.3243
 Frc consts  --      0.0127                 0.0481                 0.0812
 IR Inten    --      1.2435                 9.4558                12.0186

                     10                     11                     12
                      A                      A                      A
 Frequencies --    201.6785               207.4808               286.1635
 Red. masses --      5.5966                 5.5382                 4.4837
 Frc consts  --      0.1341                 0.1405                 0.2163
 IR Inten    --      6.9850                10.9817                13.0769

                     13                     14                     15
                      A                      A                      A
 Frequencies --    296.3147               329.3838               345.9509
 Red. masses --      1.1567                 4.1845                 2.3897
 Frc consts  --      0.0598                 0.2675                 0.1685
 IR Inten    --     38.7774                 1.4856                 6.6473

                     16                     17                     18
                      A                      A                      A
 Frequencies --    349.7811               403.2271               409.8146
 Red. masses --      5.1888                 3.2464                 2.7297
 Frc consts  --      0.3740                 0.3110                 0.2701
 IR Inten    --     18.2836                11.6646                35.4176

                     19                     20                     21
                      A                      A                      A
 Frequencies --    476.9802               504.3591               518.2247
 Red. masses --      1.3898                 1.4006                 3.6273
 Frc consts  --      0.1863                 0.2099                 0.5739
 IR Inten    --     48.3312                58.0435                 5.3770

                     22                     23                     24
                      A                      A                      A
 Frequencies --    594.8097               628.8872               665.6843
 Red. masses --      3.8945                 2.6178                 4.2698
 Frc consts  --      0.8118                 0.6100                 1.1148
 IR Inten    --     14.0243                54.6790                14.6475

                     25                     26                     27
                      A                      A                      A
 Frequencies --    674.3054               711.4768               718.1319
 Red. masses --      3.8912                 3.8757                 1.3276
 Frc consts  --      1.0424                 1.1559                 0.4034
 IR Inten    --     29.1493                 3.1335                56.9935

                     28                     29                     30
                      A                      A                      A
 Frequencies --    757.1395               771.6044               787.2115
 Red. masses --      5.0781                 1.2081                 3.0362
 Frc consts  --      1.7151                 0.4238                 1.1086
 IR Inten    --      6.8962                 2.6770                12.4255

                     31                     32                     33
                      A                      A                      A
 Frequencies --    804.8884               811.6721               835.4214
 Red. masses --      1.5029                 1.3975                 1.6416
 Frc consts  --      0.5736                 0.5425                 0.6750
 IR Inten    --    220.9863                27.1757                21.5111

                     34                     35                     36
                      A                      A                      A
 Frequencies --    861.5645               926.2968               938.2997
 Red. masses --      2.9825                 2.6746                 4.8031
 Frc consts  --      1.3044                 1.3521                 2.4914
 IR Inten    --      4.0064                 6.0912                 8.5118

                     37                     38                     39
                      A                      A                      A
 Frequencies --    949.0600               981.4837              1017.1159
 Red. masses --      4.0714                 1.3964                 4.6848
 Frc consts  --      2.1606                 0.7925                 2.8555
 IR Inten    --      8.0860                 1.0300                48.4879

                     40                     41                     42
                      A                      A                      A
 Frequencies --   1030.5299              1040.7859              1099.6376
 Red. masses --      3.4468                 3.0104                 2.1529
 Frc consts  --      2.1567                 1.9213                 1.5338
 IR Inten    --     21.3550                 7.3972                29.6418

                     43                     44                     45
                      A                      A                      A
 Frequencies --   1112.1201              1126.5752              1150.8981
 Red. masses --      2.3509                 1.5652                 2.0491
 Frc consts  --      1.7132                 1.1704                 1.5992
 IR Inten    --     11.6804                27.0752                10.3796

                     46                     47                     48
                      A                      A                      A
 Frequencies --   1155.8743              1175.8315              1206.4874
 Red. masses --      2.0827                 2.1741                 1.4265
 Frc consts  --      1.6395                 1.7710                 1.2234
 IR Inten    --     13.9227                 1.8426                 7.7075

                     49                     50                     51
                      A                      A                      A
 Frequencies --   1258.0225              1269.9481              1277.8556
 Red. masses --      1.6846                 1.9046                 1.6013
 Frc consts  --      1.5708                 1.8098                 1.5406
 IR Inten    --    146.0345                23.4550                14.1832

                     52                     53                     54
                      A                      A                      A
 Frequencies --   1293.6839              1294.9953              1305.8659
 Red. masses --      1.3084                 1.6002                 1.6198
 Frc consts  --      1.2901                 1.5811                 1.6274
 IR Inten    --      2.4573               214.8813               143.1931

                     55                     56                     57
                      A                      A                      A
 Frequencies --   1348.2714              1362.5091              1384.1534
 Red. masses --      1.4813                 1.4996                 1.2255
 Frc consts  --      1.5865                 1.6402                 1.3833
 IR Inten    --     15.7577                19.5735                22.0338

                     58                     59                     60
                      A                      A                      A
 Frequencies --   1387.4342              1393.4278              1408.8750
 Red. masses --      1.4852                 1.2361                 2.7074
 Frc consts  --      1.6845                 1.4141                 3.1663
 IR Inten    --     16.6700                21.5015                17.5613

                     61                     62                     63
                      A                      A                      A
 Frequencies --   1443.1615              1482.5006              1488.9378
 Red. masses --      3.1100                 1.1271                 1.1356
 Frc consts  --      3.8163                 1.4595                 1.4833
 IR Inten    --     21.5705                 5.6730                12.4029

                     64                     65                     66
                      A                      A                      A
 Frequencies --   1503.9989              1508.6274              1555.1993
 Red. masses --      3.2214                 1.1166                 1.9478
 Frc consts  --      4.2933                 1.4973                 2.7756
 IR Inten    --     31.9182                 2.7302               202.7669

                     67                     68                     69
                      A                      A                      A
 Frequencies --   1613.7801              1668.9350              1727.3584
 Red. masses --      4.4514                 1.0928                 7.9212
 Frc consts  --      6.8302                 1.7934                13.9254
 IR Inten    --      7.7618                35.0382               175.6001

                     70                     71                     72
                      A                      A                      A
 Frequencies --   1853.3447              3032.8682              3045.4044
 Red. masses --     11.0764                 1.0686                 1.0597
 Frc consts  --     22.4161                 5.7911                 5.7904
 IR Inten    --    271.0597                36.3381                 5.1758

                     73                     74                     75
                      A                      A                      A
 Frequencies --   3052.9323              3060.3645              3091.5607
 Red. masses --      1.0634                 1.0831                 1.1005
 Frc consts  --      5.8396                 5.9768                 6.1973
 IR Inten    --     37.3521                11.1726                 0.7170

                     76                     77                     78
                      A                      A                      A
 Frequencies --   3113.1598              3120.0896              3247.3647
 Red. masses --      1.1064                 1.0958                 1.0964
 Frc consts  --      6.3179                 6.2853                 6.8118
 IR Inten    --     24.6046                 3.5061                 6.8430

                     79                     80                     81
                      A                      A                      A
 Frequencies --   3266.2040              3510.8874              3599.2885
 Red. masses --      1.0977                 1.0484                 1.0830
 Frc consts  --      6.8998                 7.6140                 8.2664
 IR Inten    --      1.0546                 1.0535               133.6785

                     82                     83                     84
                      A                      A                      A
 Frequencies --   3602.5975              3652.4647              3802.8702
 Red. masses --      1.0948                 1.0782                 1.0659
 Frc consts  --      8.3714                 8.4745                 9.0818
 IR Inten    --      1.6075                35.6454                59.7365

 - Thermochemistry -
 -------------------
 Temperature   298.150 Kelvin.  Pressure   1.00000 Atm.
 Atom     1 has atomic number  8 and mass  15.99491

 Molecular mass:   226.10659 amu.
 Principal axes and moments of inertia in atomic units:
                           1         2         3
     Eigenvalues --  3293.000733987.070946648.51629
           X            0.28697   0.91919   0.26971
           Y            0.89005  -0.35995   0.27973
           Z           -0.35421  -0.15978   0.92142
 This molecule is an asymmetric top.
 Rotational symmetry number  1.
 Warning -- assumption of classical behavior for rotation
           may cause significant error
 Rotational temperatures (Kelvin)      0.02630     0.02172     0.01303
 Rotational constants (GHZ):           0.54805     0.45265     0.27145
 Zero-point vibrational energy     643522.6 (Joules/Mol)
                                  153.80559 (Kcal/Mol)
 Warning -- explicit consideration of  22 degrees of freedom as
           vibrations may cause significant error
 Vibrational temperatures:     27.57    41.38    63.85    89.15   107.53
          (Kelvin)            128.62   132.31   180.19   231.49   290.17
                              298.52   411.72   426.33   473.91   497.75
                              503.26   580.15   589.63   686.27   725.66
                              745.61   855.80   904.83   957.77   970.17
                             1023.66  1033.23  1089.35  1110.17  1132.62
                             1158.05  1167.81  1201.98  1239.60  1332.73
                             1350.00  1365.48  1412.13  1463.40  1482.70
                             1497.46  1582.13  1600.09  1620.89  1655.88
                             1663.04  1691.76  1735.86  1810.01  1827.17
                             1838.55  1861.32  1863.21  1878.85  1939.86
                             1960.34  1991.49  1996.21  2004.83  2027.05
                             2076.38  2132.99  2142.25  2163.92  2170.58
                             2237.58  2321.87  2401.22  2485.28  2666.55
                             4363.62  4381.65  4392.48  4403.18  4448.06
                             4479.14  4489.11  4672.23  4699.33  5051.38
                             5178.57  5183.33  5255.08  5471.48

 Zero-point correction=                           0.245105 (Hartree/Particle)
 Thermal correction to Energy=                    0.261238
 Thermal correction to Enthalpy=                  0.262183
 Thermal correction to Gibbs Free Energy=         0.198727
 Sum of electronic and zero-point Energies=           -795.948967
 Sum of electronic and thermal Energies=              -795.932833
 Sum of electronic and thermal Enthalpies=            -795.931889
 Sum of electronic and thermal Free Energies=         -795.995344

                     E (Thermal)             CV                S
                      KCal/Mol        Cal/Mol-Kelvin    Cal/Mol-Kelvin
 Total                  163.930             58.689            133.553
 Electronic               0.000              0.000              0.000
 Translational            0.889              2.981             42.150
 Rotational               0.889              2.981             32.834
 Vibrational            162.152             52.727             58.569
 Vibration     1          0.593              1.986              6.719
 Vibration     2          0.593              1.984              5.913
 Vibration     3          0.595              1.980              5.053
 Vibration     4          0.597              1.972              4.394
 Vibration     5          0.599              1.966              4.025
 Vibration     6          0.602              1.957              3.673
 Vibration     7          0.602              1.955              3.618
 Vibration     8          0.610              1.928              3.018
 Vibration     9          0.622              1.890              2.539
 Vibration    10          0.639              1.838              2.118
 Vibration    11          0.641              1.829              2.066
 Vibration    12          0.684              1.699              1.497
 Vibration    13          0.690              1.681              1.438
 Vibration    14          0.712              1.617              1.263
 Vibration    15          0.724              1.584              1.185
 Vibration    16          0.727              1.576              1.167
 Vibration    17          0.769              1.463              0.951
 Vibration    18          0.774              1.449              0.927
 Vibration    19          0.834              1.301              0.718
 Vibration    20          0.860              1.240              0.647
 Vibration    21          0.873              1.210              0.614
 Vibration    22          0.953              1.043              0.459

 Normal termination of Gaussian 09 at Sat Jul 24 02:55:02 2021.
