 Gaussian 09, Revision D.01,
 Gaussian 09:  ES64L-G09RevD.01 24-Apr-2013

 ----------------------------------------------------------------------
 # B3LYP/6-31+G(d,p) EmpiricalDispersion=GD3BJ opt=calcfc freq=noraman
 nosymm integral(ultrafinegrid)
 ----------------------------------------------------------------------

 ------------------------------------------------------------
 Candidate Structure: Conf:422 OPT and FREQ calc in gas phase
 ------------------------------------------------------------
 Symbolic Z-matrix:
 Charge =  0 Multiplicity = 1

 SCF Done:  E(RB3LYP) =  -796.197922377     A.U. after   15 cycles
 SCF Done:  E(RB3LYP) =  -796.199838125     A.U. after   13 cycles
 SCF Done:  E(RB3LYP) =  -796.199879902     A.U. after   14 cycles
 SCF Done:  E(RB3LYP) =  -796.200016826     A.U. after   12 cycles
 SCF Done:  E(RB3LYP) =  -796.200030182     A.U. after   12 cycles
 SCF Done:  E(RB3LYP) =  -796.200034952     A.U. after   11 cycles
 SCF Done:  E(RB3LYP) =  -796.200039224     A.U. after   11 cycles
 SCF Done:  E(RB3LYP) =  -796.200039747     A.U. after   10 cycles
 SCF Done:  E(RB3LYP) =  -796.200039756     A.U. after    8 cycles
 Optimization completed.
    -- Stationary point found.
 Normal termination of Gaussian 09 at Sun Jul 25 22:49:39 2021.

 ----------------------------------------------------------------------
 #N Geom=AllCheck Guess=TCheck SCRF=Check GenChk RB3LYP/6-31+G(d,p) Fre
 q
 ----------------------------------------------------------------------

 Structure from the checkpoint file:  "conf-422.chk"
 ------------------------------------------------------------
 Candidate Structure: Conf:422 OPT and FREQ calc in gas phase
 ------------------------------------------------------------
 Charge =  0 Multiplicity = 1

                          Input orientation:
 ---------------------------------------------------------------------
 Center     Atomic      Atomic             Coordinates (Angstroms)
 Number     Number       Type             X           Y           Z
 ---------------------------------------------------------------------
      1          8           0        0.758097    0.672651    1.576306
      2          6           0        1.098915    0.126090    0.529688
      3          7           0        0.292875   -0.770496   -0.121843
      4          6           0       -0.961714   -1.218478    0.435338
      5          6           0       -0.903526   -2.721648    0.674803
      6          8           0       -1.880677   -3.136261    1.509526
      7          8           0       -0.108630   -3.477084    0.156588
      8          6           0       -2.172243   -0.902655   -0.474770
      9          6           0       -2.384602    0.564355   -0.677257
     10          6           0       -1.957796    1.691354   -0.010044
     11          7           0       -2.483815    2.830987   -0.590770
     12          6           0       -3.220920    2.411211   -1.595043
     13          7           0       -3.194784    1.043940   -1.695016
     14          6           0        2.412891    0.437562   -0.164163
     15          6           0        3.534645    0.732427    0.832498
     16          7           0        4.744763    1.140138    0.112343
     17          1           0        0.689006   -1.325612   -0.867652
     18          1           0       -1.085506   -0.712637    1.396742
     19          1           0       -1.805459   -4.102412    1.593821
     20          1           0       -3.061444   -1.362533   -0.025438
     21          1           0       -2.014139   -1.397751   -1.443418
     22          1           0       -1.289207    1.745880    0.836737
     23          1           0       -3.786020    3.032044   -2.275789
     24          1           0       -3.681929    0.486301   -2.380631
     25          1           0        2.698876   -0.382215   -0.835840
     26          1           0        2.258428    1.323194   -0.792788
     27          1           0        3.678090   -0.143670    1.485987
     28          1           0        3.217378    1.557183    1.474863
     29          1           0        5.164901    0.354846   -0.378378
     30          1           0        5.443566    1.503199    0.753596
 ---------------------------------------------------------------------

 SCF Done:  E(RB3LYP) =  -796.200039756     A.U. after    1 cycles

 Alpha  occ. eigenvalues --  -19.23432 -19.17913 -19.13155 -14.40042 -14.37911
 Alpha  occ. eigenvalues --  -14.32617 -14.31913 -10.35386 -10.30219 -10.26526
 Alpha  occ. eigenvalues --  -10.24479 -10.23030 -10.23000 -10.21560 -10.20131
 Alpha  occ. eigenvalues --  -10.19727  -1.14199  -1.05415  -1.04847  -1.01870
 Alpha  occ. eigenvalues --   -0.94664  -0.88882  -0.87555  -0.82210  -0.76937
 Alpha  occ. eigenvalues --   -0.74753  -0.69258  -0.65706  -0.62029  -0.61722
 Alpha  occ. eigenvalues --   -0.60154  -0.58836  -0.55420  -0.53032  -0.52087
 Alpha  occ. eigenvalues --   -0.50986  -0.49202  -0.49032  -0.48401  -0.46172
 Alpha  occ. eigenvalues --   -0.45740  -0.44824  -0.43919  -0.42887  -0.42426
 Alpha  occ. eigenvalues --   -0.41561  -0.40903  -0.40452  -0.39474  -0.38874
 Alpha  occ. eigenvalues --   -0.36208  -0.35488  -0.35190  -0.31341  -0.28580
 Alpha  occ. eigenvalues --   -0.27801  -0.27096  -0.26727  -0.24601  -0.23004
 Alpha virt. eigenvalues --   -0.02993  -0.01867  -0.00816  -0.00177   0.00406
 Alpha virt. eigenvalues --    0.00993   0.01269   0.02331   0.02938   0.03453
 Alpha virt. eigenvalues --    0.04025   0.04479   0.05381   0.05686   0.06233

 Mulliken charges:
               1
     1  O   -0.459577
     2  C    0.006618
     3  N   -0.248073
     4  C   -0.108709
     5  C    0.435318
     6  O   -0.407684
     7  O   -0.427644
     8  C   -1.355039
     9  C    0.967171
    10  C    0.048588
    11  N   -0.280532
    12  C    0.197378
    13  N   -0.400145
    14  C   -0.079642
    15  C   -0.301416
    16  N   -0.604672
    17  H    0.317737
    18  H    0.210795
    19  H    0.375206
    20  H    0.188493
    21  H    0.151685
    22  H    0.159054
    23  H    0.135024
    24  H    0.299972
    25  H    0.122079
    26  H    0.198449
    27  H    0.130049
    28  H    0.170069
    29  H    0.272723
    30  H    0.286726
 Sum of Mulliken charges =   0.00000

 Dipole moment (field-independent basis, Debye):
    X=             -1.2497    Y=             -5.2698    Z=             -2.8539  Tot=              6.1219
 Quadrupole moment (field-independent basis, Debye-Ang):
   XX=            -76.4846   YY=           -106.6229   ZZ=            -90.7736
   XY=              7.7951   XZ=             11.7925   YZ=             -4.4572

  Exact polarizability: 150.711   1.420 155.349  10.624  -4.942 123.903
 Approx polarizability: 190.438   0.918 221.376   9.822  14.269 201.100

                      1                      2                      3
                      A                      A                      A
 Frequencies --     10.7636                30.1164                44.8073
 Red. masses --      3.7871                 2.9924                10.3167
 Frc consts  --      0.0003                 0.0016                 0.0122
 IR Inten    --      1.2709                 2.5419                 2.4838

                      4                      5                      6
                      A                      A                      A
 Frequencies --     47.9620                61.0903                78.2765
 Red. masses --      3.8727                 3.7556                 5.3211
 Frc consts  --      0.0052                 0.0083                 0.0192
 IR Inten    --      4.0068                10.8639                 4.8252

                      7                      8                      9
                      A                      A                      A
 Frequencies --     87.6534               100.6027               141.4722
 Red. masses --      4.4109                 4.3180                 3.8845
 Frc consts  --      0.0200                 0.0257                 0.0458
 IR Inten    --      0.1306                 3.6491                 5.1985

                     10                     11                     12
                      A                      A                      A
 Frequencies --    177.7108               216.7832               241.3182
 Red. masses --      6.5536                 3.3179                 1.9439
 Frc consts  --      0.1219                 0.0919                 0.0667
 IR Inten    --      2.0552                 8.7832                17.6395

                     13                     14                     15
                      A                      A                      A
 Frequencies --    253.1833               281.7908               307.5703
 Red. masses --      1.8543                 3.5299                 4.1949
 Frc consts  --      0.0700                 0.1651                 0.2338
 IR Inten    --     36.8141                 2.4904                 7.5447

                     16                     17                     18
                      A                      A                      A
 Frequencies --    350.1630               396.5981               445.0200
 Red. masses --      4.5098                 3.8329                 2.8760
 Frc consts  --      0.3258                 0.3552                 0.3356
 IR Inten    --      2.8715                12.9552                24.9994

                     19                     20                     21
                      A                      A                      A
 Frequencies --    477.0663               492.2135               530.2232
 Red. masses --      1.6015                 1.4609                 3.2535
 Frc consts  --      0.2148                 0.2085                 0.5389
 IR Inten    --     56.4042                80.5221                17.2606

                     22                     23                     24
                      A                      A                      A
 Frequencies --    600.4935               620.0131               641.0877
 Red. masses --      1.3565                 2.5787                 2.6341
 Frc consts  --      0.2882                 0.5840                 0.6378
 IR Inten    --     97.8776                 3.5096                33.4219

                     25                     26                     27
                      A                      A                      A
 Frequencies --    648.9488               674.4611               693.7979
 Red. masses --      4.1973                 3.4404                 3.3243
 Frc consts  --      1.0415                 0.9221                 0.9428
 IR Inten    --     37.9087                 8.1744                24.6457

                     28                     29                     30
                      A                      A                      A
 Frequencies --    735.6436               783.7523               796.1235
 Red. masses --      4.5228                 4.1471                 1.3604
 Frc consts  --      1.4421                 1.5009                 0.5080
 IR Inten    --     10.4460                20.3863                12.3962

                     31                     32                     33
                      A                      A                      A
 Frequencies --    797.5630               831.1262               874.5947
 Red. masses --      1.3264                 1.3214                 1.3643
 Frc consts  --      0.4971                 0.5378                 0.6149
 IR Inten    --     39.8710               114.8271                19.3254

                     34                     35                     36
                      A                      A                      A
 Frequencies --    901.7501               922.8891               938.8951
 Red. masses --      1.8263                 4.2844                 5.8834
 Frc consts  --      0.8750                 2.1500                 3.0557
 IR Inten    --     15.0224                 7.3894                 6.7033

                     37                     38                     39
                      A                      A                      A
 Frequencies --    978.6275               998.6298              1028.2654
 Red. masses --      2.3195                 2.8365                 3.6212
 Frc consts  --      1.3088                 1.6666                 2.2558
 IR Inten    --      5.1572                 9.2154                12.5504

                     40                     41                     42
                      A                      A                      A
 Frequencies --   1060.1826              1065.0734              1096.0184
 Red. masses --      2.9636                 2.8992                 2.2402
 Frc consts  --      1.9626                 1.9377                 1.5855
 IR Inten    --     20.7140                 5.3921                39.7580

                     43                     44                     45
                      A                      A                      A
 Frequencies --   1112.8094              1123.4274              1150.9598
 Red. masses --      1.6172                 2.2416                 2.4775
 Frc consts  --      1.1799                 1.6668                 1.9337
 IR Inten    --     17.4465                66.9472                23.2819

                     46                     47                     48
                      A                      A                      A
 Frequencies --   1157.4583              1178.5083              1207.8020
 Red. masses --      1.6780                 2.0539                 1.8682
 Frc consts  --      1.3245                 1.6808                 1.6057
 IR Inten    --    111.1520                86.1297                29.3229

                     49                     50                     51
                      A                      A                      A
 Frequencies --   1233.8562              1255.0292              1265.2714
 Red. masses --      1.5749                 1.4499                 1.4716
 Frc consts  --      1.4127                 1.3456                 1.3881
 IR Inten    --     22.1884                28.1228                31.1446

                     52                     53                     54
                      A                      A                      A
 Frequencies --   1282.4107              1297.2171              1336.0043
 Red. masses --      1.3351                 1.4594                 1.1109
 Frc consts  --      1.2936                 1.4470                 1.1683
 IR Inten    --      9.6745                 1.5831                 5.4054

                     55                     56                     57
                      A                      A                      A
 Frequencies --   1338.5281              1355.0307              1372.1294
 Red. masses --      1.5199                 1.7343                 1.6372
 Frc consts  --      1.6044                 1.8762                 1.8161
 IR Inten    --      6.1492                 5.0326                14.9037

                     58                     59                     60
                      A                      A                      A
 Frequencies --   1400.0555              1416.3587              1430.4358
 Red. masses --      2.2473                 2.2313                 1.5604
 Frc consts  --      2.5954                 2.6372                 1.8812
 IR Inten    --    103.6075                27.1111                51.5241

                     61                     62                     63
                      A                      A                      A
 Frequencies --   1432.7863              1473.4517              1489.6604
 Red. masses --      2.7762                 1.0928                 1.2686
 Frc consts  --      3.3579                 1.3979                 1.6586
 IR Inten    --     21.9016                 9.8788                26.4946

                     64                     65                     66
                      A                      A                      A
 Frequencies --   1507.8513              1519.6902              1547.1223
 Red. masses --      2.9966                 1.0830                 1.9449
 Frc consts  --      4.0142                 1.4737                 2.7429
 IR Inten    --     12.3968                 1.4289               254.8206

                     67                     68                     69
                      A                      A                      A
 Frequencies --   1615.4792              1667.7073              1747.4675
 Red. masses --      4.3020                 1.0919                 8.8961
 Frc consts  --      6.6148                 1.7892                16.0054
 IR Inten    --     13.1602                34.1451               210.8500

                     70                     71                     72
                      A                      A                      A
 Frequencies --   1815.3367              2974.1160              3015.7201
 Red. masses --     10.0438                 1.0736                 1.0629
 Frc consts  --     19.5013                 5.5952                 5.6952
 IR Inten    --    284.8149                66.9013                34.3666

                     73                     74                     75
                      A                      A                      A
 Frequencies --   3034.7260              3057.7483              3080.6432
 Red. masses --      1.0622                 1.0983                 1.0981
 Frc consts  --      5.7635                 6.0502                 6.1400
 IR Inten    --     19.9902                10.4495                 8.0667

                     76                     77                     78
                      A                      A                      A
 Frequencies --   3110.2656              3117.3566              3262.8286
 Red. masses --      1.0843                 1.0914                 1.0955
 Frc consts  --      6.1800                 6.2491                 6.8717
 IR Inten    --     11.7659                13.5140                 0.6847

                     79                     80                     81
                      A                      A                      A
 Frequencies --   3267.6501              3508.0006              3598.2398
 Red. masses --      1.1001                 1.0499                 1.0933
 Frc consts  --      6.9206                 7.6122                 8.3402
 IR Inten    --      5.2429                 0.5733                 1.6663

                     82                     83                     84
                      A                      A                      A
 Frequencies --   3633.9879              3660.8099              3748.3278
 Red. masses --      1.0773                 1.0812                 1.0645
 Frc consts  --      8.3822                 8.5371                 8.8118
 IR Inten    --     35.8526                45.1443                79.4250

 - Thermochemistry -
 -------------------
 Temperature   298.150 Kelvin.  Pressure   1.00000 Atm.
 Atom     1 has atomic number  8 and mass  15.99491

 Molecular mass:   226.10659 amu.
 Principal axes and moments of inertia in atomic units:
                           1         2         3
     Eigenvalues --  3374.162105121.341367707.73518
           X            0.97722   0.10849  -0.18240
           Y           -0.05758   0.96277   0.26412
           Z            0.20426  -0.24760   0.94708
 This molecule is an asymmetric top.
 Rotational symmetry number  1.
 Warning -- assumption of classical behavior for rotation
           may cause significant error
 Rotational temperatures (Kelvin)      0.02567     0.01691     0.01124
 Rotational constants (GHZ):           0.53487     0.35240     0.23415
 Zero-point vibrational energy     641560.8 (Joules/Mol)
                                  153.33671 (Kcal/Mol)
 Warning -- explicit consideration of  23 degrees of freedom as
           vibrations may cause significant error
 Vibrational temperatures:     15.49    43.33    64.47    69.01    87.90
          (Kelvin)            112.62   126.11   144.74   203.55   255.69
                              311.90   347.20   364.27   405.43   442.52
                              503.81   570.62   640.28   686.39   708.18
                              762.87   863.98   892.06   922.38   933.69
                              970.40   998.22  1058.43  1127.64  1145.44
                             1147.51  1195.80  1258.35  1297.42  1327.83
                             1350.86  1408.02  1436.80  1479.44  1525.36
                             1532.40  1576.92  1601.08  1616.36  1655.97
                             1665.32  1695.61  1737.76  1775.24  1805.70
                             1820.44  1845.10  1866.40  1922.21  1925.84
                             1949.58  1974.19  2014.37  2037.82  2058.08
                             2061.46  2119.97  2143.29  2169.46  2186.49
                             2225.96  2324.31  2399.46  2514.21  2611.86
                             4279.08  4338.94  4366.29  4399.41  4432.35
                             4474.97  4485.18  4694.48  4701.41  5047.22
                             5177.06  5228.49  5267.08  5393.00

 Zero-point correction=                           0.244358 (Hartree/Particle)
 Thermal correction to Energy=                    0.260910
 Thermal correction to Enthalpy=                  0.261854
 Thermal correction to Gibbs Free Energy=         0.196251
 Sum of electronic and zero-point Energies=           -795.955682
 Sum of electronic and thermal Energies=              -795.939130
 Sum of electronic and thermal Enthalpies=            -795.938185
 Sum of electronic and thermal Free Energies=         -796.003789

                     E (Thermal)             CV                S
                      KCal/Mol        Cal/Mol-Kelvin    Cal/Mol-Kelvin
 Total                  163.724             59.026            138.073
 Electronic               0.000              0.000              0.000
 Translational            0.889              2.981             42.150
 Rotational               0.889              2.981             33.254
 Vibrational            161.946             53.065             62.669
 Vibration     1          0.593              1.987              7.865
 Vibration     2          0.594              1.984              5.822
 Vibration     3          0.595              1.979              5.034
 Vibration     4          0.595              1.978              4.900
 Vibration     5          0.597              1.973              4.422
 Vibration     6          0.600              1.964              3.934
 Vibration     7          0.601              1.958              3.712
 Vibration     8          0.604              1.949              3.443
 Vibration     9          0.615              1.912              2.784
 Vibration    10          0.628              1.870              2.352
 Vibration    11          0.646              1.815              1.986
 Vibration    12          0.658              1.777              1.793
 Vibration    13          0.664              1.757              1.708
 Vibration    14          0.681              1.707              1.523
 Vibration    15          0.697              1.659              1.375
 Vibration    16          0.727              1.575              1.165
 Vibration    17          0.763              1.477              0.975
 Vibration    18          0.804              1.372              0.811
 Vibration    19          0.834              1.301              0.718
 Vibration    20          0.848              1.267              0.678
 Vibration    21          0.885              1.183              0.587
 Vibration    22          0.959              1.031              0.449
 Vibration    23          0.980              0.990              0.416

 Optimization completed.
    -- Stationary point found.
 Normal termination of Gaussian 09 at Sun Jul 25 23:28:45 2021.
