 Gaussian 09, Revision D.01,
 Gaussian 09:  ES64L-G09RevD.01 24-Apr-2013

 ----------------------------------------------------------------------
 # B3LYP/6-31+G(d,p) EmpiricalDispersion=GD3BJ opt=calcfc freq=noraman
 nosymm integral(ultrafinegrid)
 ----------------------------------------------------------------------

 ------------------------------------------------------------
 Candidate Structure: Conf:295 OPT and FREQ calc in gas phase
 ------------------------------------------------------------
 Symbolic Z-matrix:
 Charge =  0 Multiplicity = 1

 SCF Done:  E(RB3LYP) =  -796.199929532     A.U. after   14 cycles
 SCF Done:  E(RB3LYP) =  -796.203613354     A.U. after   15 cycles
 SCF Done:  E(RB3LYP) =  -796.203618972     A.U. after   15 cycles
 SCF Done:  E(RB3LYP) =  -796.204099876     A.U. after   12 cycles
 SCF Done:  E(RB3LYP) =  -796.204229331     A.U. after   11 cycles
 SCF Done:  E(RB3LYP) =  -796.204473880     A.U. after   12 cycles
 SCF Done:  E(RB3LYP) =  -796.204507953     A.U. after   15 cycles
 SCF Done:  E(RB3LYP) =  -796.204659011     A.U. after   12 cycles
 SCF Done:  E(RB3LYP) =  -796.204666489     A.U. after   10 cycles
 SCF Done:  E(RB3LYP) =  -796.204680221     A.U. after   11 cycles
 SCF Done:  E(RB3LYP) =  -796.204683270     A.U. after   10 cycles
 SCF Done:  E(RB3LYP) =  -796.204685509     A.U. after   11 cycles
 SCF Done:  E(RB3LYP) =  -796.204686470     A.U. after   11 cycles
 SCF Done:  E(RB3LYP) =  -796.204686541     A.U. after    9 cycles
 Optimization completed.
    -- Stationary point found.
 Normal termination of Gaussian 09 at Sat Jul 24 02:09:41 2021.

 ----------------------------------------------------------------------
 #N Geom=AllCheck Guess=TCheck SCRF=Check GenChk RB3LYP/6-31+G(d,p) Fre
 q
 ----------------------------------------------------------------------

 Structure from the checkpoint file:  "conf-295.chk"
 ------------------------------------------------------------
 Candidate Structure: Conf:295 OPT and FREQ calc in gas phase
 ------------------------------------------------------------
 Charge =  0 Multiplicity = 1

                          Input orientation:
 ---------------------------------------------------------------------
 Center     Atomic      Atomic             Coordinates (Angstroms)
 Number     Number       Type             X           Y           Z
 ---------------------------------------------------------------------
      1          8           0        1.321566    1.038262   -0.592413
      2          6           0        1.753157    0.126585    0.114193
      3          7           0        0.931190   -0.582248    0.939887
      4          6           0       -0.468898   -0.236795    1.082936
      5          6           0       -0.949032   -0.872306    2.373921
      6          8           0       -2.234296   -0.560646    2.675989
      7          8           0       -0.287498   -1.606134    3.077128
      8          6           0       -1.314151   -0.696682   -0.153185
      9          6           0       -2.468278    0.179305   -0.509584
     10          6           0       -2.686271    0.968098   -1.618426
     11          7           0       -3.911565    1.596216   -1.545469
     12          6           0       -4.437053    1.202508   -0.403119
     13          7           0       -3.609431    0.337441    0.258974
     14          6           0        3.217685   -0.290755    0.137209
     15          6           0        4.015439    0.330739   -1.008120
     16          7           0        3.500437   -0.136382   -2.298824
     17          1           0        1.304102   -1.280035    1.570855
     18          1           0       -0.566950    0.852368    1.163871
     19          1           0       -2.445870   -1.017413    3.508685
     20          1           0       -0.628958   -0.678407   -1.001579
     21          1           0       -1.623660   -1.740364   -0.012983
     22          1           0       -2.022029    1.114366   -2.458320
     23          1           0       -5.397205    1.503976   -0.008770
     24          1           0       -3.737680   -0.042993    1.184724
     25          1           0        3.642854    0.016175    1.102551
     26          1           0        3.281851   -1.383726    0.081368
     27          1           0        5.056969    0.005932   -0.914824
     28          1           0        3.998237    1.425701   -0.900214
     29          1           0        2.620212    0.333252   -2.496316
     30          1           0        4.145143    0.093965   -3.048904
 ---------------------------------------------------------------------

 SCF Done:  E(RB3LYP) =  -796.204686541     A.U. after    1 cycles

 Alpha  occ. eigenvalues --  -19.25172 -19.19382 -19.13709 -14.39360 -14.38202
 Alpha  occ. eigenvalues --  -14.31834 -14.31786 -10.36908 -10.30562 -10.27262
 Alpha  occ. eigenvalues --  -10.24244 -10.22535 -10.22324 -10.21733 -10.20538
 Alpha  occ. eigenvalues --  -10.19893  -1.15843  -1.06873  -1.05434  -1.01575
 Alpha  occ. eigenvalues --   -0.94936  -0.88431  -0.87292  -0.82034  -0.77101
 Alpha  occ. eigenvalues --   -0.74925  -0.69560  -0.66431  -0.62102  -0.61488
 Alpha  occ. eigenvalues --   -0.60536  -0.59081  -0.55168  -0.53567  -0.53159
 Alpha  occ. eigenvalues --   -0.50784  -0.50693  -0.49120  -0.48804  -0.47023
 Alpha  occ. eigenvalues --   -0.46440  -0.44978  -0.43803  -0.42953  -0.42299
 Alpha  occ. eigenvalues --   -0.40977  -0.40781  -0.40129  -0.39871  -0.38155
 Alpha  occ. eigenvalues --   -0.37166  -0.36958  -0.36265  -0.32699  -0.28503
 Alpha  occ. eigenvalues --   -0.28100  -0.27220  -0.26970  -0.24246  -0.22847
 Alpha virt. eigenvalues --   -0.04351  -0.02750  -0.00281  -0.00128   0.00920
 Alpha virt. eigenvalues --    0.01086   0.01657   0.01725   0.02601   0.03441
 Alpha virt. eigenvalues --    0.04252   0.04798   0.04834   0.05166   0.05633

 Mulliken charges:
               1
     1  O   -0.523225
     2  C    0.341447
     3  N   -0.267941
     4  C   -0.579346
     5  C    0.684229
     6  O   -0.491821
     7  O   -0.447567
     8  C   -0.382105
     9  C    0.189108
    10  C   -0.116971
    11  N   -0.303467
    12  C    0.247459
    13  N   -0.280140
    14  C   -0.132173
    15  C   -0.382587
    16  N   -0.603209
    17  H    0.329015
    18  H    0.198683
    19  H    0.396081
    20  H    0.185295
    21  H    0.157843
    22  H    0.131266
    23  H    0.132111
    24  H    0.313324
    25  H    0.165315
    26  H    0.173268
    27  H    0.128900
    28  H    0.144719
    29  H    0.307528
    30  H    0.284959
 Sum of Mulliken charges =   0.00000

 Dipole moment (field-independent basis, Debye):
    X=              0.7256    Y=             -2.4872    Z=              4.7117  Tot=              5.3771
 Quadrupole moment (field-independent basis, Debye-Ang):
   XX=            -86.7528   YY=           -104.8875   ZZ=            -93.5463
   XY=             11.0103   XZ=            -19.1938   YZ=              2.9767

  Exact polarizability: 171.356 -15.439 119.436  -5.636 -22.083 142.739
 Approx polarizability: 215.000 -24.579 190.843  -3.988 -38.148 209.530

                      1                      2                      3
                      A                      A                      A
 Frequencies --      8.8500                26.9973                33.3119
 Red. masses --      3.5914                 4.5332                 7.4884
 Frc consts  --      0.0002                 0.0019                 0.0049
 IR Inten    --      2.3133                 1.2916                 1.2632

                      4                      5                      6
                      A                      A                      A
 Frequencies --     45.3960                66.4200                75.5546
 Red. masses --      4.4646                 7.8364                 5.4574
 Frc consts  --      0.0054                 0.0204                 0.0184
 IR Inten    --      1.7609                 1.9990                 3.5203

                      7                      8                      9
                      A                      A                      A
 Frequencies --    127.2724               133.1608               151.8081
 Red. masses --      5.4879                 4.7306                 3.7528
 Frc consts  --      0.0524                 0.0494                 0.0510
 IR Inten    --      3.9320                 5.6321                 3.8118

                     10                     11                     12
                      A                      A                      A
 Frequencies --    193.8361               241.7442               279.9562
 Red. masses --      4.7650                 2.7629                 5.4721
 Frc consts  --      0.1055                 0.0951                 0.2527
 IR Inten    --      0.8775                29.0754                 1.4279

                     13                     14                     15
                      A                      A                      A
 Frequencies --    304.8135               318.4827               328.5514
 Red. masses --      2.6285                 1.2126                 3.5568
 Frc consts  --      0.1439                 0.0725                 0.2262
 IR Inten    --      6.3630                51.0826                 2.6435

                     16                     17                     18
                      A                      A                      A
 Frequencies --    345.1070               381.5982               429.9484
 Red. masses --      4.5688                 4.1853                 2.7321
 Frc consts  --      0.3206                 0.3591                 0.2976
 IR Inten    --      9.6833                 5.3775                37.1367

                     19                     20                     21
                      A                      A                      A
 Frequencies --    488.9783               559.6096               565.4755
 Red. masses --      1.3106                 1.9327                 2.2370
 Frc consts  --      0.1846                 0.3566                 0.4215
 IR Inten    --     71.7007                32.3643                36.4239

                     22                     23                     24
                      A                      A                      A
 Frequencies --    596.2152               615.1826               628.7930
 Red. masses --      1.8088                 2.0849                 3.4808
 Frc consts  --      0.3788                 0.4649                 0.8109
 IR Inten    --     38.8588                 2.6727                40.8422

                     25                     26                     27
                      A                      A                      A
 Frequencies --    662.4745               676.0100               680.0427
 Red. masses --      2.2923                 3.0743                 2.3146
 Frc consts  --      0.5927                 0.8278                 0.6307
 IR Inten    --     97.6315                 4.6933                 1.0679

                     28                     29                     30
                      A                      A                      A
 Frequencies --    735.2768               773.5055               802.2820
 Red. masses --      3.3056                 4.0133                 1.3975
 Frc consts  --      1.0529                 1.4148                 0.5300
 IR Inten    --     22.9305                 4.5622                23.8306

                     31                     32                     33
                      A                      A                      A
 Frequencies --    816.2290               850.8694               865.3072
 Red. masses --      2.6860                 1.4076                 1.5208
 Frc consts  --      1.0544                 0.6004                 0.6709
 IR Inten    --     10.5013                16.7367               107.6362

                     34                     35                     36
                      A                      A                      A
 Frequencies --    885.4050               903.7469               938.3285
 Red. masses --      1.8829                 2.1187                 5.7607
 Frc consts  --      0.8697                 1.0196                 2.9884
 IR Inten    --      9.6705                27.0357                10.2899

                     37                     38                     39
                      A                      A                      A
 Frequencies --    957.9687              1008.3373              1014.4768
 Red. masses --      2.2865                 4.6965                 3.1586
 Frc consts  --      1.2363                 2.8134                 1.9153
 IR Inten    --      7.3361                 5.4930                12.5613

                     40                     41                     42
                      A                      A                      A
 Frequencies --   1032.2344              1063.4740              1103.8706
 Red. masses --      3.4529                 2.4448                 3.0421
 Frc consts  --      2.1676                 1.6291                 2.1840
 IR Inten    --     10.8612                15.6827                38.8627

                     43                     44                     45
                      A                      A                      A
 Frequencies --   1121.5232              1124.3210              1150.6714
 Red. masses --      1.5886                 1.7396                 2.0671
 Frc consts  --      1.1773                 1.2956                 1.6125
 IR Inten    --     14.0028                40.9911                17.7594

                     46                     47                     48
                      A                      A                      A
 Frequencies --   1167.0434              1189.1770              1191.5524
 Red. masses --      1.7130                 1.6358                 1.8443
 Frc consts  --      1.3746                 1.3630                 1.5428
 IR Inten    --    128.9041                98.2031                 2.6304

                     49                     50                     51
                      A                      A                      A
 Frequencies --   1234.5645              1245.4198              1267.5398
 Red. masses --      1.2531                 1.5695                 2.1292
 Frc consts  --      1.1253                 1.4343                 2.0155
 IR Inten    --     10.0347                22.5858                17.9508

                     52                     53                     54
                      A                      A                      A
 Frequencies --   1277.7108              1302.4355              1323.2586
 Red. masses --      1.5503                 1.3970                 1.2340
 Frc consts  --      1.4912                 1.3962                 1.2731
 IR Inten    --      4.5610                 4.1546                 2.7902

                     55                     56                     57
                      A                      A                      A
 Frequencies --   1349.4449              1358.6458              1379.4142
 Red. masses --      1.2391                 1.6374                 1.5147
 Frc consts  --      1.3294                 1.7808                 1.6981
 IR Inten    --      6.0990                52.7065                19.1583

                     58                     59                     60
                      A                      A                      A
 Frequencies --   1395.2898              1417.7533              1425.9805
 Red. masses --      2.9413                 2.2239                 1.4438
 Frc consts  --      3.3738                 2.6337                 1.7298
 IR Inten    --     28.9097                62.2012                21.2040

                     61                     62                     63
                      A                      A                      A
 Frequencies --   1435.2257              1454.5315              1475.2887
 Red. masses --      2.7066                 1.1131                 1.1523
 Frc consts  --      3.2848                 1.3876                 1.4777
 IR Inten    --     29.4626                19.7575                20.9496

                     64                     65                     66
                      A                      A                      A
 Frequencies --   1503.2879              1506.8212              1537.7223
 Red. masses --      1.0840                 3.4599                 2.2520
 Frc consts  --      1.4434                 4.6284                 3.1374
 IR Inten    --      2.5545                27.4097               332.1625

                     67                     68                     69
                      A                      A                      A
 Frequencies --   1614.5078              1657.1808              1738.3840
 Red. masses --      4.4544                 1.1281                 7.1942
 Frc consts  --      6.8410                 1.8253                12.8093
 IR Inten    --      4.9466                86.5767               173.9996

                     70                     71                     72
                      A                      A                      A
 Frequencies --   1814.4634              2999.5281              3034.7140
 Red. masses --      9.6118                 1.0696                 1.0624
 Frc consts  --     18.6444                 5.6700                 5.7647
 IR Inten    --    319.0838                58.8731                16.2091

                     73                     74                     75
                      A                      A                      A
 Frequencies --   3035.9542              3064.5615              3078.3154
 Red. masses --      1.0715                 1.0831                 1.0934
 Frc consts  --      5.8186                 5.9932                 6.1045
 IR Inten    --     24.7883                10.8300                32.5313

                     76                     77                     78
                      A                      A                      A
 Frequencies --   3087.0690              3140.0844              3259.3262
 Red. masses --      1.1000                 1.0928                 1.0949
 Frc consts  --      6.1763                 6.3487                 6.8532
 IR Inten    --     19.8718                 1.2654                 5.8541

                     79                     80                     81
                      A                      A                      A
 Frequencies --   3263.2549              3512.4019              3600.7703
 Red. masses --      1.0992                 1.0497                 1.0935
 Frc consts  --      6.8968                 7.6298                 8.3537
 IR Inten    --      0.6733                 5.3812                 8.8643

                     82                     83                     84
                      A                      A                      A
 Frequencies --   3614.0534              3666.1640              3745.1623
 Red. masses --      1.0782                 1.0811                 1.0644
 Frc consts  --      8.2970                 8.5612                 8.7964
 IR Inten    --     73.3835               109.3371                91.8311

 - Thermochemistry -
 -------------------
 Temperature   298.150 Kelvin.  Pressure   1.00000 Atm.
 Atom     1 has atomic number  8 and mass  15.99491

 Molecular mass:   226.10659 amu.
 Principal axes and moments of inertia in atomic units:
                           1         2         3
     Eigenvalues --  2488.322665928.486098075.90509
           X            0.98962   0.07513   0.12247
           Y           -0.07901  -0.42735   0.90063
           Z           -0.12000   0.90096   0.41698
 This molecule is an asymmetric top.
 Rotational symmetry number  1.
 Warning -- assumption of classical behavior for rotation
           may cause significant error
 Rotational temperatures (Kelvin)      0.03481     0.01461     0.01072
 Rotational constants (GHZ):           0.72528     0.30442     0.22347
 Zero-point vibrational energy     642857.7 (Joules/Mol)
                                  153.64669 (Kcal/Mol)
 Warning -- explicit consideration of  23 degrees of freedom as
           vibrations may cause significant error
 Vibrational temperatures:     12.73    38.84    47.93    65.31    95.56
          (Kelvin)            108.71   183.12   191.59   218.42   278.89
                              347.82   402.79   438.56   458.22   472.71
                              496.53   549.03   618.60   703.53   805.15
                              813.59   857.82   885.11   904.69   953.15
                              972.63   978.43  1057.90  1112.90  1154.30
                             1174.37  1224.21  1244.98  1273.90  1300.29
                             1350.04  1378.30  1450.77  1459.60  1485.15
                             1530.10  1588.22  1613.62  1617.65  1655.56
                             1679.11  1710.96  1714.38  1776.26  1791.88
                             1823.70  1838.34  1873.91  1903.87  1941.55
                             1954.79  1984.67  2007.51  2039.83  2051.67
                             2064.97  2092.74  2122.61  2162.89  2167.98
                             2212.44  2322.91  2384.31  2501.14  2610.60
                             4315.65  4366.27  4368.06  4409.22  4429.00
                             4441.60  4517.88  4689.44  4695.09  5053.56
                             5180.70  5199.81  5274.79  5388.45

 Zero-point correction=                           0.244852 (Hartree/Particle)
 Thermal correction to Energy=                    0.261005
 Thermal correction to Enthalpy=                  0.261949
 Thermal correction to Gibbs Free Energy=         0.197123
 Sum of electronic and zero-point Energies=           -795.959835
 Sum of electronic and thermal Energies=              -795.943682
 Sum of electronic and thermal Enthalpies=            -795.942738
 Sum of electronic and thermal Free Energies=         -796.007564

                     E (Thermal)             CV                S
                      KCal/Mol        Cal/Mol-Kelvin    Cal/Mol-Kelvin
 Total                  163.783             58.563            136.439
 Electronic               0.000              0.000              0.000
 Translational            0.889              2.981             42.150
 Rotational               0.889              2.981             33.143
 Vibrational            162.006             52.602             61.145
 Vibration     1          0.593              1.987              8.254
 Vibration     2          0.593              1.984              6.039
 Vibration     3          0.594              1.983              5.622
 Vibration     4          0.595              1.979              5.009
 Vibration     5          0.598              1.970              4.257
 Vibration     6          0.599              1.965              4.003
 Vibration     7          0.611              1.926              2.987
 Vibration     8          0.613              1.920              2.900
 Vibration     9          0.619              1.901              2.649
 Vibration    10          0.635              1.848              2.191
 Vibration    11          0.658              1.776              1.790
 Vibration    12          0.680              1.711              1.534
 Vibration    13          0.696              1.665              1.390
 Vibration    14          0.705              1.638              1.318
 Vibration    15          0.712              1.618              1.267
 Vibration    16          0.723              1.585              1.188
 Vibration    17          0.751              1.509              1.033
 Vibration    18          0.791              1.405              0.859
 Vibration    19          0.845              1.274              0.686
 Vibration    20          0.915              1.119              0.525
 Vibration    21          0.921              1.106              0.513
 Vibration    22          0.954              1.040              0.456
 Vibration    23          0.975              1.000              0.424

 Normal termination of Gaussian 09 at Sat Jul 24 02:49:41 2021.
