 Gaussian 09, Revision D.01,
 Gaussian 09:  ES64L-G09RevD.01 24-Apr-2013

 ----------------------------------------------------------------------
 # B3LYP/6-31+G(d,p) EmpiricalDispersion=GD3BJ opt=calcfc freq=noraman
 nosymm integral(ultrafinegrid)
 ----------------------------------------------------------------------

 ------------------------------------------------------------
 Candidate Structure: Conf:900 OPT and FREQ calc in gas phase
 ------------------------------------------------------------
 Symbolic Z-matrix:
 Charge =  0 Multiplicity = 1

 SCF Done:  E(RB3LYP) =  -796.209263465     A.U. after   14 cycles
 SCF Done:  E(RB3LYP) =  -796.211370404     A.U. after   13 cycles
 SCF Done:  E(RB3LYP) =  -796.211353101     A.U. after   15 cycles
 SCF Done:  E(RB3LYP) =  -796.211564220     A.U. after   13 cycles
 SCF Done:  E(RB3LYP) =  -796.211676179     A.U. after   12 cycles
 SCF Done:  E(RB3LYP) =  -796.211677690     A.U. after   10 cycles
 SCF Done:  E(RB3LYP) =  -796.211677836     A.U. after    9 cycles
 SCF Done:  E(RB3LYP) =  -796.211677942     A.U. after    8 cycles
 SCF Done:  E(RB3LYP) =  -796.211678100     A.U. after    9 cycles
 SCF Done:  E(RB3LYP) =  -796.211678399     A.U. after    9 cycles
 SCF Done:  E(RB3LYP) =  -796.211678920     A.U. after   10 cycles
 SCF Done:  E(RB3LYP) =  -796.211678968     A.U. after    8 cycles
 Optimization completed.
    -- Stationary point found.
 Normal termination of Gaussian 09 at Sat Jul 24 02:00:37 2021.

 ----------------------------------------------------------------------
 #N Geom=AllCheck Guess=TCheck SCRF=Check GenChk RB3LYP/6-31+G(d,p) Fre
 q
 ----------------------------------------------------------------------

 Structure from the checkpoint file:  "conf-900.chk"
 ------------------------------------------------------------
 Candidate Structure: Conf:900 OPT and FREQ calc in gas phase
 ------------------------------------------------------------
 Charge =  0 Multiplicity = 1

                          Input orientation:
 ---------------------------------------------------------------------
 Center     Atomic      Atomic             Coordinates (Angstroms)
 Number     Number       Type             X           Y           Z
 ---------------------------------------------------------------------
      1          8           0       -0.745707    0.496429   -1.221403
      2          6           0       -1.183058   -0.584298   -0.800014
      3          7           0       -0.425300   -1.426099   -0.059713
      4          6           0        0.961032   -1.150653    0.265284
      5          6           0        1.578068   -2.447886    0.748521
      6          8           0        2.913778   -2.348012    0.868722
      7          8           0        0.952891   -3.452962    1.022966
      8          6           0        1.133082   -0.016819    1.346800
      9          6           0        1.931368    1.146639    0.869296
     10          6           0        3.099086    1.729997    1.311805
     11          7           0        3.436388    2.807505    0.519790
     12          6           0        2.488062    2.874297   -0.396771
     13          7           0        1.551778    1.895240   -0.228495
     14          6           0       -2.597749   -1.053374   -1.099975
     15          6           0       -3.545012    0.117061   -1.366151
     16          7           0       -3.609516    0.992747   -0.191502
     17          1           0       -0.802818   -2.305559    0.272484
     18          1           0        1.488679   -0.840882   -0.641943
     19          1           0        3.245902   -3.194999    1.212437
     20          1           0        0.122489    0.289940    1.637213
     21          1           0        1.612926   -0.417395    2.243500
     22          1           0        3.709348    1.432856    2.153416
     23          1           0        2.431427    3.601662   -1.194172
     24          1           0        0.735076    1.677261   -0.796704
     25          1           0       -2.973615   -1.654078   -0.264826
     26          1           0       -2.549520   -1.703687   -1.983868
     27          1           0       -4.545056   -0.288428   -1.549458
     28          1           0       -3.223585    0.635142   -2.281160
     29          1           0       -2.777996    1.576482   -0.152892
     30          1           0       -4.412313    1.612164   -0.243060
 ---------------------------------------------------------------------

 SCF Done:  E(RB3LYP) =  -796.211678968     A.U. after    1 cycles

 Alpha  occ. eigenvalues --  -19.23934 -19.18642 -19.15281 -14.39318 -14.37940
 Alpha  occ. eigenvalues --  -14.32955 -14.31137 -10.36224 -10.31985 -10.27343
 Alpha  occ. eigenvalues --  -10.23448 -10.22671 -10.22414 -10.21891 -10.21426
 Alpha  occ. eigenvalues --  -10.19520  -1.14922  -1.06842  -1.05944  -1.00714
 Alpha  occ. eigenvalues --   -0.95934  -0.89493  -0.86483  -0.82102  -0.77597
 Alpha  occ. eigenvalues --   -0.74987  -0.69096  -0.66851  -0.62368  -0.61405
 Alpha  occ. eigenvalues --   -0.60498  -0.58391  -0.54777  -0.53976  -0.52518
 Alpha  occ. eigenvalues --   -0.51808  -0.50113  -0.49465  -0.48877  -0.48286
 Alpha  occ. eigenvalues --   -0.45841  -0.44699  -0.44064  -0.43485  -0.42431
 Alpha  occ. eigenvalues --   -0.40625  -0.40362  -0.40050  -0.39798  -0.39143
 Alpha  occ. eigenvalues --   -0.38150  -0.37068  -0.36085  -0.32192  -0.29358
 Alpha  occ. eigenvalues --   -0.29023  -0.27474  -0.26349  -0.25285  -0.22310
 Alpha virt. eigenvalues --   -0.03696  -0.01855  -0.01413  -0.00374   0.00629
 Alpha virt. eigenvalues --    0.01460   0.01585   0.02189   0.02803   0.03448
 Alpha virt. eigenvalues --    0.04014   0.04325   0.04790   0.05347   0.05990

 Mulliken charges:
               1
     1  O   -0.576515
     2  C    0.423757
     3  N   -0.258286
     4  C   -0.616087
     5  C    0.655501
     6  O   -0.401089
     7  O   -0.449267
     8  C   -0.592237
     9  C    0.391299
    10  C   -0.211655
    11  N   -0.294507
    12  C    0.269036
    13  N   -0.315996
    14  C   -0.143948
    15  C   -0.348100
    16  N   -0.601143
    17  H    0.330497
    18  H    0.192833
    19  H    0.381806
    20  H    0.182551
    21  H    0.161006
    22  H    0.121860
    23  H    0.130906
    24  H    0.361480
    25  H    0.160765
    26  H    0.172327
    27  H    0.133008
    28  H    0.148201
    29  H    0.301190
    30  H    0.290805
 Sum of Mulliken charges =   0.00000

 Dipole moment (field-independent basis, Debye):
    X=             -3.2276    Y=             -3.5771    Z=             -1.0673  Tot=              4.9348
 Quadrupole moment (field-independent basis, Debye-Ang):
   XX=            -99.9042   YY=           -101.1722   ZZ=            -93.2981
   XY=            -18.8610   XZ=              5.8790   YZ=             -4.0416

  Exact polarizability: 158.505  14.375 155.651  18.005 -14.061 119.736
 Approx polarizability: 211.327  25.300 220.075  17.401 -27.869 184.120

                      1                      2                      3
                      A                      A                      A
 Frequencies --      9.2620                34.1504                53.9350
 Red. masses --      3.8144                 5.9953                 4.6127
 Frc consts  --      0.0002                 0.0041                 0.0079
 IR Inten    --      1.1644                 0.9102                 1.2444

                      4                      5                      6
                      A                      A                      A
 Frequencies --     57.0304                79.3586                89.1819
 Red. masses --      9.7114                 4.9156                 6.2089
 Frc consts  --      0.0186                 0.0182                 0.0291
 IR Inten    --      1.6783                 1.5481                 6.2881

                      7                      8                      9
                      A                      A                      A
 Frequencies --    115.1024               130.6032               143.3627
 Red. masses --      4.2207                 4.0393                 5.2982
 Frc consts  --      0.0329                 0.0406                 0.0642
 IR Inten    --      1.9430                 5.1436                 3.8652

                     10                     11                     12
                      A                      A                      A
 Frequencies --    191.4099               243.8351               290.1683
 Red. masses --      4.6696                 2.4601                 1.7839
 Frc consts  --      0.1008                 0.0862                 0.0885
 IR Inten    --      2.6319                32.9647                41.3936

                     13                     14                     15
                      A                      A                      A
 Frequencies --    294.7339               300.5958               319.6302
 Red. masses --      4.4776                 1.6681                 3.8805
 Frc consts  --      0.2292                 0.0888                 0.2336
 IR Inten    --      4.0220                13.9709                 3.2882

                     16                     17                     18
                      A                      A                      A
 Frequencies --    352.1139               404.3287               439.6913
 Red. masses --      5.3163                 3.5282                 2.7333
 Frc consts  --      0.3884                 0.3398                 0.3113
 IR Inten    --      1.0016                10.3950                29.3036

                     19                     20                     21
                      A                      A                      A
 Frequencies --    532.0076               561.3785               595.9421
 Red. masses --      1.5951                 2.8313                 1.4792
 Frc consts  --      0.2660                 0.5257                 0.3095
 IR Inten    --     60.6201                44.0062                72.2879

                     22                     23                     24
                      A                      A                      A
 Frequencies --    627.8731               632.3827               645.6154
 Red. masses --      3.4025                 2.4809                 2.9319
 Frc consts  --      0.7903                 0.5845                 0.7200
 IR Inten    --     30.4885                 9.0461                 0.4177

                     25                     26                     27
                      A                      A                      A
 Frequencies --    671.0720               684.6602               718.0377
 Red. masses --      3.6157                 2.7389                 3.4678
 Frc consts  --      0.9594                 0.7564                 1.0534
 IR Inten    --     48.4185                 3.8942                22.7979

                     28                     29                     30
                      A                      A                      A
 Frequencies --    773.5509               779.0796               812.6749
 Red. masses --      4.2418                 1.0865                 1.4153
 Frc consts  --      1.4955                 0.3885                 0.5507
 IR Inten    --     12.9312                30.1927                28.3199

                     31                     32                     33
                      A                      A                      A
 Frequencies --    838.4458               854.3209               859.1034
 Red. masses --      1.3803                 1.5096                 2.2805
 Frc consts  --      0.5717                 0.6492                 0.9917
 IR Inten    --     29.0503                96.8774                26.8115

                     34                     35                     36
                      A                      A                      A
 Frequencies --    890.3697               899.7960               942.7308
 Red. masses --      1.8569                 2.3589                 5.8742
 Frc consts  --      0.8673                 1.1253                 3.0759
 IR Inten    --     11.5559                13.0391                14.2143

                     37                     38                     39
                      A                      A                      A
 Frequencies --    955.8997               981.1369              1021.7251
 Red. masses --      2.8688                 4.0471                 2.8644
 Frc consts  --      1.5445                 2.2954                 1.7618
 IR Inten    --      2.5652                 6.8761                21.8174

                     40                     41                     42
                      A                      A                      A
 Frequencies --   1027.5680              1060.8210              1102.0381
 Red. masses --      3.6304                 2.3166                 2.7065
 Frc consts  --      2.2585                 1.5360                 1.9366
 IR Inten    --      1.7825                16.7067                34.4729

                     43                     44                     45
                      A                      A                      A
 Frequencies --   1127.3702              1136.0995              1151.7015
 Red. masses --      1.9800                 1.7066                 2.0143
 Frc consts  --      1.4827                 1.2978                 1.5742
 IR Inten    --     27.7762                51.4403                 4.0757

                     46                     47                     48
                      A                      A                      A
 Frequencies --   1170.7175              1186.1427              1209.3820
 Red. masses --      1.6470                 2.1188                 1.3024
 Frc consts  --      1.3300                 1.7563                 1.1223
 IR Inten    --     96.8337                97.0325                 6.4068

                     49                     50                     51
                      A                      A                      A
 Frequencies --   1232.3599              1262.3150              1268.7151
 Red. masses --      1.2825                 1.4773                 2.0622
 Frc consts  --      1.1475                 1.3869                 1.9557
 IR Inten    --     12.0702                21.7008                 5.2699

                     52                     53                     54
                      A                      A                      A
 Frequencies --   1279.6619              1290.5090              1326.8387
 Red. masses --      1.4982                 1.3584                 1.3746
 Frc consts  --      1.4455                 1.3330                 1.4258
 IR Inten    --      7.0656                11.3495                 2.9871

                     55                     56                     57
                      A                      A                      A
 Frequencies --   1348.0255              1361.3040              1385.3639
 Red. masses --      1.2439                 1.4452                 1.5712
 Frc consts  --      1.3318                 1.5779                 1.7767
 IR Inten    --      6.4526                35.8493                41.6252

                     58                     59                     60
                      A                      A                      A
 Frequencies --   1394.1039              1422.0048              1426.0364
 Red. masses --      3.8979                 1.5190                 2.1103
 Frc consts  --      4.4635                 1.8097                 2.5285
 IR Inten    --     12.3640                12.2580                94.3644

                     61                     62                     63
                      A                      A                      A
 Frequencies --   1447.4456              1456.1191              1482.7223
 Red. masses --      2.5089                 1.1164                 1.1468
 Frc consts  --      3.0970                 1.3946                 1.4855
 IR Inten    --     77.9844                17.1906                15.0079

                     64                     65                     66
                      A                      A                      A
 Frequencies --   1502.6920              1507.5472              1553.5907
 Red. masses --      1.0857                 3.4229                 2.5222
 Frc consts  --      1.4445                 4.5834                 3.5867
 IR Inten    --      3.2002                31.1652               321.0918

                     67                     68                     69
                      A                      A                      A
 Frequencies --   1618.0385              1658.9933              1714.1874
 Red. masses --      4.3819                 1.1543                 5.8760
 Frc consts  --      6.7592                 1.8719                10.1731
 IR Inten    --     15.0317                92.9543               184.4167

                     70                     71                     72
                      A                      A                      A
 Frequencies --   1807.2526              3009.4251              3039.1276
 Red. masses --      9.8145                 1.0689                 1.0629
 Frc consts  --     18.8868                 5.7039                 5.7844
 IR Inten    --    330.1987                52.6425                13.4036

                     73                     74                     75
                      A                      A                      A
 Frequencies --   3058.2284              3084.9169              3086.6644
 Red. masses --      1.0644                 1.0944                 1.0843
 Frc consts  --      5.8655                 6.1366                 6.0867
 IR Inten    --     16.8708                27.0879                 7.5096

                     76                     77                     78
                      A                      A                      A
 Frequencies --   3096.0226              3113.8014              3251.7584
 Red. masses --      1.1001                 1.1002                 1.0961
 Frc consts  --      6.2129                 6.2851                 6.8289
 IR Inten    --     22.1328                 9.0470                 7.7310

                     79                     80                     81
                      A                      A                      A
 Frequencies --   3263.7164              3513.3466              3516.7392
 Red. masses --      1.0976                 1.0845                 1.0501
 Frc consts  --      6.8886                 7.8875                 7.6519
 IR Inten    --      1.2824               426.4790                 0.9270

                     82                     83                     84
                      A                      A                      A
 Frequencies --   3600.1786              3604.2897              3753.5065
 Red. masses --      1.0782                 1.0936                 1.0646
 Frc consts  --      8.2339                 8.3701                 8.8368
 IR Inten    --     87.3764                 6.5615                93.8615

 - Thermochemistry -
 -------------------
 Temperature   298.150 Kelvin.  Pressure   1.00000 Atm.
 Atom     1 has atomic number  8 and mass  15.99491

 Molecular mass:   226.10659 amu.
 Principal axes and moments of inertia in atomic units:
                           1         2         3
     Eigenvalues --  3057.598564797.627557313.27625
           X            0.94018  -0.16072  -0.30037
           Y            0.21300   0.96545   0.15013
           Z            0.26586  -0.20513   0.94193
 This molecule is an asymmetric top.
 Rotational symmetry number  1.
 Warning -- assumption of classical behavior for rotation
           may cause significant error
 Rotational temperatures (Kelvin)      0.02833     0.01805     0.01184
 Rotational constants (GHZ):           0.59025     0.37617     0.24678
 Zero-point vibrational energy     644402.5 (Joules/Mol)
                                  154.01589 (Kcal/Mol)
 Warning -- explicit consideration of  21 degrees of freedom as
           vibrations may cause significant error
 Vibrational temperatures:     13.33    49.13    77.60    82.05   114.18
          (Kelvin)            128.31   165.61   187.91   206.27   275.40
                              350.82   417.49   424.06   432.49   459.88
                              506.61   581.74   632.62   765.44   807.70
                              857.43   903.37   909.86   928.90   965.52
                              985.07  1033.09  1112.97  1120.92  1169.26
                             1206.34  1229.18  1236.06  1281.04  1294.60
                             1356.38  1375.32  1411.64  1470.03  1478.44
                             1526.28  1585.59  1622.03  1634.59  1657.04
                             1684.40  1706.59  1740.03  1773.09  1816.19
                             1825.40  1841.15  1856.75  1909.02  1939.51
                             1958.61  1993.23  2005.80  2045.95  2051.75
                             2082.55  2095.03  2133.30  2162.04  2169.02
                             2235.27  2327.99  2386.92  2466.33  2600.23
                             4329.89  4372.62  4400.10  4438.50  4441.02
                             4454.48  4480.06  4678.55  4695.75  5054.92
                             5059.80  5179.85  5185.76  5400.45

 Zero-point correction=                           0.245440 (Hartree/Particle)
 Thermal correction to Energy=                    0.261361
 Thermal correction to Enthalpy=                  0.262305
 Thermal correction to Gibbs Free Energy=         0.198813
 Sum of electronic and zero-point Energies=           -795.966239
 Sum of electronic and thermal Energies=              -795.950318
 Sum of electronic and thermal Enthalpies=            -795.949374
 Sum of electronic and thermal Free Energies=         -796.012866

                     E (Thermal)             CV                S
                      KCal/Mol        Cal/Mol-Kelvin    Cal/Mol-Kelvin
 Total                  164.006             57.974            133.630
 Electronic               0.000              0.000              0.000
 Translational            0.889              2.981             42.150
 Rotational               0.889              2.981             33.039
 Vibrational            162.229             52.013             58.441
 Vibration     1          0.593              1.987              8.163
 Vibration     2          0.594              1.983              5.572
 Vibration     3          0.596              1.976              4.668
 Vibration     4          0.596              1.975              4.557
 Vibration     5          0.600              1.963              3.907
 Vibration     6          0.602              1.957              3.678
 Vibration     7          0.608              1.937              3.181
 Vibration     8          0.612              1.923              2.937
 Vibration     9          0.616              1.910              2.759
 Vibration    10          0.634              1.852              2.214
 Vibration    11          0.659              1.773              1.775
 Vibration    12          0.686              1.692              1.473
 Vibration    13          0.689              1.684              1.447
 Vibration    14          0.693              1.673              1.414
 Vibration    15          0.706              1.636              1.312
 Vibration    16          0.729              1.571              1.157
 Vibration    17          0.770              1.461              0.947
 Vibration    18          0.800              1.384              0.828
 Vibration    19          0.887              1.179              0.583
 Vibration    20          0.917              1.115              0.521
 Vibration    21          0.954              1.040              0.457

 Optimization completed on the basis of negligible forces.
    -- Stationary point found.
 Normal termination of Gaussian 09 at Sat Jul 24 02:41:03 2021.
