 Gaussian 09, Revision D.01,
 Gaussian 09:  ES64L-G09RevD.01 24-Apr-2013

 ----------------------------------------------------------------------
 # B3LYP/6-31+G(d,p) EmpiricalDispersion=GD3BJ opt=calcfc freq=noraman
 nosymm integral(ultrafinegrid)
 ----------------------------------------------------------------------

 ------------------------------------------------------------
 Candidate Structure: Conf:150 OPT and FREQ calc in gas phase
 ------------------------------------------------------------
 Symbolic Z-matrix:
 Charge =  0 Multiplicity = 1

 SCF Done:  E(RB3LYP) =  -796.204235197     A.U. after   14 cycles
 SCF Done:  E(RB3LYP) =  -796.205449563     A.U. after   15 cycles
 SCF Done:  E(RB3LYP) =  -796.199169652     A.U. after   14 cycles
 SCF Done:  E(RB3LYP) =  -796.205566129     A.U. after   10 cycles
 SCF Done:  E(RB3LYP) =  -796.206281748     A.U. after   15 cycles
 SCF Done:  E(RB3LYP) =  -796.206412528     A.U. after   12 cycles
 SCF Done:  E(RB3LYP) =  -796.206456454     A.U. after   12 cycles
 SCF Done:  E(RB3LYP) =  -796.206460518     A.U. after   10 cycles
 SCF Done:  E(RB3LYP) =  -796.206461542     A.U. after   10 cycles
 SCF Done:  E(RB3LYP) =  -796.206461676     A.U. after    8 cycles
 SCF Done:  E(RB3LYP) =  -796.206461860     A.U. after    8 cycles
 SCF Done:  E(RB3LYP) =  -796.206462075     A.U. after    9 cycles
 SCF Done:  E(RB3LYP) =  -796.206462260     A.U. after    9 cycles
 SCF Done:  E(RB3LYP) =  -796.206462287     A.U. after    8 cycles
 Optimization completed.
    -- Stationary point found.
 Normal termination of Gaussian 09 at Sat Jul 24 02:08:12 2021.

 ----------------------------------------------------------------------
 #N Geom=AllCheck Guess=TCheck SCRF=Check GenChk RB3LYP/6-31+G(d,p) Fre
 q
 ----------------------------------------------------------------------

 Structure from the checkpoint file:  "conf-150.chk"
 ------------------------------------------------------------
 Candidate Structure: Conf:150 OPT and FREQ calc in gas phase
 ------------------------------------------------------------
 Charge =  0 Multiplicity = 1

                          Input orientation:
 ---------------------------------------------------------------------
 Center     Atomic      Atomic             Coordinates (Angstroms)
 Number     Number       Type             X           Y           Z
 ---------------------------------------------------------------------
      1          8           0       -1.058100   -1.877853   -0.877660
      2          6           0       -1.240461   -0.749784   -0.421064
      3          7           0       -0.378977   -0.192132    0.479906
      4          6           0        0.723783   -0.951722    1.039500
      5          6           0        1.124092   -0.284754    2.343204
      6          8           0        2.113981   -0.952461    2.964990
      7          8           0        0.624908    0.730783    2.782047
      8          6           0        1.932063   -1.063645    0.069432
      9          6           0        2.588309    0.243334   -0.221316
     10          6           0        3.782729    0.791750    0.193183
     11          7           0        3.948791    2.062116   -0.318692
     12          6           0        2.868901    2.293955   -1.036087
     13          7           0        2.013402    1.225330   -1.011151
     14          6           0       -2.402422    0.129299   -0.854907
     15          6           0       -3.702963   -0.668693   -0.978130
     16          7           0       -4.757551    0.181527   -1.536228
     17          1           0       -0.615943    0.668052    0.959201
     18          1           0        0.382430   -1.971084    1.258041
     19          1           0        2.343493   -0.455153    3.768517
     20          1           0        1.557042   -1.542490   -0.840349
     21          1           0        2.668889   -1.736386    0.514468
     22          1           0        4.530760    0.333637    0.824933
     23          1           0        2.654218    3.197845   -1.588219
     24          1           0        1.113420    1.159404   -1.462276
     25          1           0       -2.165197    0.550801   -1.839585
     26          1           0       -2.530845    0.974136   -0.166716
     27          1           0       -3.529581   -1.502995   -1.662033
     28          1           0       -3.953020   -1.105242    0.003099
     29          1           0       -5.063804    0.881148   -0.864934
     30          1           0       -5.572035   -0.369114   -1.790636
 ---------------------------------------------------------------------

 SCF Done:  E(RB3LYP) =  -796.206462287     A.U. after    1 cycles

 Alpha  occ. eigenvalues --  -19.23588 -19.18194 -19.13968 -14.40134 -14.38635
 Alpha  occ. eigenvalues --  -14.33452 -14.32363 -10.35756 -10.30990 -10.26892
 Alpha  occ. eigenvalues --  -10.24781 -10.23068 -10.22561 -10.22109 -10.21160
 Alpha  occ. eigenvalues --  -10.20532  -1.14510  -1.05975  -1.05406  -1.02179
 Alpha  occ. eigenvalues --   -0.95163  -0.89763  -0.87852  -0.82294  -0.77631
 Alpha  occ. eigenvalues --   -0.75133  -0.69550  -0.66197  -0.62430  -0.61932
 Alpha  occ. eigenvalues --   -0.60819  -0.59679  -0.54583  -0.54407  -0.52211
 Alpha  occ. eigenvalues --   -0.51258  -0.50777  -0.49362  -0.48103  -0.46677
 Alpha  occ. eigenvalues --   -0.46240  -0.45087  -0.44306  -0.43372  -0.42966
 Alpha  occ. eigenvalues --   -0.41477  -0.41306  -0.40761  -0.40179  -0.39491
 Alpha  occ. eigenvalues --   -0.36899  -0.36131  -0.35678  -0.31685  -0.29096
 Alpha  occ. eigenvalues --   -0.28563  -0.27668  -0.27425  -0.25474  -0.23392
 Alpha virt. eigenvalues --   -0.03230  -0.01806  -0.00895  -0.00517  -0.00330
 Alpha virt. eigenvalues --    0.00473   0.01647   0.01974   0.02828   0.03392
 Alpha virt. eigenvalues --    0.03765   0.04595   0.04836   0.05207   0.05583

 Mulliken charges:
               1
     1  O   -0.489972
     2  C    0.063495
     3  N   -0.273559
     4  C   -0.400138
     5  C    0.510874
     6  O   -0.387062
     7  O   -0.425382
     8  C   -0.328289
     9  C    0.058499
    10  C   -0.066587
    11  N   -0.283921
    12  C    0.248436
    13  N   -0.272081
    14  C   -0.052280
    15  C   -0.305129
    16  N   -0.607758
    17  H    0.331325
    18  H    0.190922
    19  H    0.379514
    20  H    0.193933
    21  H    0.172181
    22  H    0.126133
    23  H    0.135103
    24  H    0.304102
    25  H    0.184153
    26  H    0.127475
    27  H    0.171848
    28  H    0.130833
    29  H    0.274809
    30  H    0.288523
 Sum of Mulliken charges =   0.00000

 Dipole moment (field-independent basis, Debye):
    X=             -3.1818    Y=             -0.5410    Z=              1.5981  Tot=              3.6015
 Quadrupole moment (field-independent basis, Debye-Ang):
   XX=            -99.4169   YY=           -103.8723   ZZ=            -92.8172
   XY=            -11.8078   XZ=              2.1282   YZ=             -7.4853

  Exact polarizability: 162.378   8.114 138.619  19.373  -6.237 127.586
 Approx polarizability: 207.922   2.950 222.688  25.238   0.126 183.088

                      1                      2                      3
                      A                      A                      A
 Frequencies --     12.6623                22.8024                47.8300
 Red. masses --      4.1160                 4.1083                 5.1455
 Frc consts  --      0.0004                 0.0013                 0.0069
 IR Inten    --      0.9483                 1.5801                 6.3921

                      4                      5                      6
                      A                      A                      A
 Frequencies --     52.1467                63.7687                73.2245
 Red. masses --      3.5434                 7.5138                 8.8454
 Frc consts  --      0.0057                 0.0180                 0.0279
 IR Inten    --      7.5282                 0.1252                 1.8398

                      7                      8                      9
                      A                      A                      A
 Frequencies --     78.5294               121.0248               132.6645
 Red. masses --      2.7549                 4.8028                 4.2761
 Frc consts  --      0.0100                 0.0414                 0.0443
 IR Inten    --      2.2713                 3.7564                 5.6769

                     10                     11                     12
                      A                      A                      A
 Frequencies --    191.0589               216.7847               246.8498
 Red. masses --      5.1308                 3.3374                 1.4577
 Frc consts  --      0.1103                 0.0924                 0.0523
 IR Inten    --      1.7507                13.1003                39.1031

                     13                     14                     15
                      A                      A                      A
 Frequencies --    266.3942               306.3572               327.0532
 Red. masses --      3.5705                 5.3946                 5.8098
 Frc consts  --      0.1493                 0.2983                 0.3661
 IR Inten    --     21.5381                 0.9293                 1.8919

                     16                     17                     18
                      A                      A                      A
 Frequencies --    366.2500               396.9347               471.7671
 Red. masses --      2.2951                 3.5749                 3.1887
 Frc consts  --      0.1814                 0.3319                 0.4181
 IR Inten    --      3.2250                 5.1074                17.6777

                     19                     20                     21
                      A                      A                      A
 Frequencies --    495.7453               542.8526               573.3688
 Red. masses --      1.3402                 3.0143                 1.5508
 Frc consts  --      0.1941                 0.5234                 0.3004
 IR Inten    --    126.9032                27.3318                15.7223

                     22                     23                     24
                      A                      A                      A
 Frequencies --    590.4915               616.3761               643.0253
 Red. masses --      2.9369                 1.9995                 2.3408
 Frc consts  --      0.6033                 0.4476                 0.5702
 IR Inten    --     41.3516                84.6355                 2.1980

                     25                     26                     27
                      A                      A                      A
 Frequencies --    657.2461               677.4511               700.3657
 Red. masses --      2.2857                 2.7644                 3.3749
 Frc consts  --      0.5817                 0.7475                 0.9753
 IR Inten    --     11.8145                 3.4676                53.9440

                     28                     29                     30
                      A                      A                      A
 Frequencies --    741.2488               780.4363               802.3637
 Red. masses --      4.5239                 2.2438                 1.4044
 Frc consts  --      1.4645                 0.8052                 0.5327
 IR Inten    --      7.3735                39.8782                 9.5083

                     31                     32                     33
                      A                      A                      A
 Frequencies --    806.5479               831.0897               847.3393
 Red. masses --      1.5636                 1.3311                 1.4326
 Frc consts  --      0.5993                 0.5417                 0.6060
 IR Inten    --     29.2306               120.0261                15.5184

                     34                     35                     36
                      A                      A                      A
 Frequencies --    874.8624               925.0819               939.1290
 Red. masses --      2.7529                 3.5596                 5.1041
 Frc consts  --      1.2414                 1.7948                 2.6523
 IR Inten    --      5.4855                 8.6879                10.6591

                     37                     38                     39
                      A                      A                      A
 Frequencies --    968.0340               984.0067              1023.7125
 Red. masses --      2.8861                 2.0541                 2.8016
 Frc consts  --      1.5934                 1.1718                 1.7299
 IR Inten    --      6.5841                 4.1141                27.2046

                     40                     41                     42
                      A                      A                      A
 Frequencies --   1030.1405              1063.2711              1093.5832
 Red. masses --      3.0877                 2.6684                 2.2678
 Frc consts  --      1.9305                 1.7774                 1.5979
 IR Inten    --      2.0301                16.1896                31.2440

                     43                     44                     45
                      A                      A                      A
 Frequencies --   1113.3301              1116.7758              1149.0152
 Red. masses --      1.5689                 2.1687                 1.9708
 Frc consts  --      1.1458                 1.5936                 1.5330
 IR Inten    --     12.9108                53.4172                14.9268

                     46                     47                     48
                      A                      A                      A
 Frequencies --   1158.9223              1181.4267              1211.8406
 Red. masses --      1.6337                 2.1235                 1.4628
 Frc consts  --      1.2928                 1.7463                 1.2657
 IR Inten    --     39.8390               180.1910                 1.3206

                     49                     50                     51
                      A                      A                      A
 Frequencies --   1241.1445              1254.1503              1261.6053
 Red. masses --      1.6689                 1.5833                 1.7077
 Frc consts  --      1.5147                 1.4672                 1.6014
 IR Inten    --     23.9833                 7.2005                11.7359

                     52                     53                     54
                      A                      A                      A
 Frequencies --   1269.2701              1289.6412              1312.0099
 Red. masses --      1.7469                 1.3077                 1.4556
 Frc consts  --      1.6582                 1.2815                 1.4763
 IR Inten    --     13.3774                 3.6400                 0.7896

                     55                     56                     57
                      A                      A                      A
 Frequencies --   1337.0089              1361.9205              1376.4628
 Red. masses --      1.1139                 1.4799                 1.6274
 Frc consts  --      1.1732                 1.6173                 1.8167
 IR Inten    --      8.9400                 9.0081                16.5924

                     58                     59                     60
                      A                      A                      A
 Frequencies --   1396.1705              1416.1945              1427.0903
 Red. masses --      2.6009                 2.3473                 1.6148
 Frc consts  --      2.9871                 2.7737                 1.9377
 IR Inten    --     24.3126               103.6429                73.3930

                     61                     62                     63
                      A                      A                      A
 Frequencies --   1432.6794              1477.7230              1488.9154
 Red. masses --      2.9588                 1.0997                 1.1548
 Frc consts  --      3.5782                 1.4148                 1.5084
 IR Inten    --     30.0572                 9.0664                12.1179

                     64                     65                     66
                      A                      A                      A
 Frequencies --   1505.5304              1520.5530              1534.0318
 Red. masses --      3.5882                 1.0832                 2.2653
 Frc consts  --      4.7919                 1.4756                 3.1408
 IR Inten    --     64.2913                 1.3535               298.1400

                     67                     68                     69
                      A                      A                      A
 Frequencies --   1616.6413              1668.4108              1738.6026
 Red. masses --      4.6267                 1.0921                 9.3638
 Frc consts  --      7.1244                 1.7912                16.6765
 IR Inten    --      7.3089                34.2274               259.5486

                     70                     71                     72
                      A                      A                      A
 Frequencies --   1812.9591              2970.5198              3037.1576
 Red. masses --      9.9945                 1.0735                 1.0601
 Frc consts  --     19.3547                 5.5809                 5.7614
 IR Inten    --    227.3108                66.2830                18.2109

                     73                     74                     75
                      A                      A                      A
 Frequencies --   3058.7782              3076.6412              3079.8072
 Red. masses --      1.0819                 1.0639                 1.1005
 Frc consts  --      5.9641                 5.9336                 6.1502
 IR Inten    --      9.9697                 8.4093                11.0820

                     76                     77                     78
                      A                      A                      A
 Frequencies --   3116.1182              3130.6884              3255.3054
 Red. masses --      1.0916                 1.1024                 1.0961
 Frc consts  --      6.2450                 6.3658                 6.8434
 IR Inten    --     14.4800                 5.0502                 5.6441

                     79                     80                     81
                      A                      A                      A
 Frequencies --   3265.3003              3509.3818              3599.3284
 Red. masses --      1.0980                 1.0499                 1.0934
 Frc consts  --      6.8978                 7.6183                 8.3459
 IR Inten    --      0.8930                 0.3969                 1.6435

                     82                     83                     84
                      A                      A                      A
 Frequencies --   3602.4021              3668.7240              3755.8152
 Red. masses --      1.0780                 1.0814                 1.0646
 Frc consts  --      8.2427                 8.5753                 8.8476
 IR Inten    --     73.5348                52.9936                91.1794

 - Thermochemistry -
 -------------------
 Temperature   298.150 Kelvin.  Pressure   1.00000 Atm.
 Atom     1 has atomic number  8 and mass  15.99491

 Molecular mass:   226.10659 amu.
 Principal axes and moments of inertia in atomic units:
                           1         2         3
     Eigenvalues --  2286.465156267.252687331.12289
           X            0.95287  -0.11440  -0.28099
           Y            0.18724  -0.50701   0.84136
           Z            0.23871   0.85432   0.46169
 This molecule is an asymmetric top.
 Rotational symmetry number  1.
 Warning -- assumption of classical behavior for rotation
           may cause significant error
 Rotational temperatures (Kelvin)      0.03788     0.01382     0.01181
 Rotational constants (GHZ):           0.78931     0.28796     0.24618
 Zero-point vibrational energy     642381.9 (Joules/Mol)
                                  153.53296 (Kcal/Mol)
 Warning -- explicit consideration of  23 degrees of freedom as
           vibrations may cause significant error
 Vibrational temperatures:     18.22    32.81    68.82    75.03    91.75
          (Kelvin)            105.35   112.99   174.13   190.87   274.89
                              311.90   355.16   383.28   440.78   470.56
                              526.95   571.10   678.77   713.27   781.04
                              824.95   849.58   886.83   925.17   945.63
                              974.70  1007.67  1066.49  1122.87  1154.42
                             1160.44  1195.75  1219.13  1258.73  1330.98
                             1351.20  1392.78  1415.76  1472.89  1482.14
                             1529.81  1573.42  1601.83  1606.79  1653.17
                             1667.43  1699.81  1743.57  1785.73  1804.44
                             1815.17  1826.19  1855.50  1887.69  1923.66
                             1959.50  1980.42  2008.78  2037.59  2053.26
                             2061.30  2126.11  2142.21  2166.12  2187.73
                             2207.13  2325.98  2400.47  2501.46  2608.44
                             4273.91  4369.79  4400.89  4426.59  4431.15
                             4483.39  4504.36  4683.65  4698.03  5049.21
                             5178.62  5183.05  5278.47  5403.77

 Zero-point correction=                           0.244670 (Hartree/Particle)
 Thermal correction to Energy=                    0.261015
 Thermal correction to Enthalpy=                  0.261960
 Thermal correction to Gibbs Free Energy=         0.196900
 Sum of electronic and zero-point Energies=           -795.961792
 Sum of electronic and thermal Energies=              -795.945447
 Sum of electronic and thermal Enthalpies=            -795.944503
 Sum of electronic and thermal Free Energies=         -796.009562

                     E (Thermal)             CV                S
                      KCal/Mol        Cal/Mol-Kelvin    Cal/Mol-Kelvin
 Total                  163.790             58.674            136.928
 Electronic               0.000              0.000              0.000
 Translational            0.889              2.981             42.150
 Rotational               0.889              2.981             33.018
 Vibrational            162.012             52.713             61.760
 Vibration     1          0.593              1.987              7.542
 Vibration     2          0.593              1.985              6.374
 Vibration     3          0.595              1.978              4.905
 Vibration     4          0.596              1.977              4.734
 Vibration     5          0.597              1.972              4.337
 Vibration     6          0.599              1.967              4.065
 Vibration     7          0.600              1.964              3.927
 Vibration     8          0.609              1.932              3.084
 Vibration     9          0.613              1.921              2.907
 Vibration    10          0.634              1.852              2.218
 Vibration    11          0.646              1.815              1.986
 Vibration    12          0.661              1.768              1.753
 Vibration    13          0.672              1.735              1.619
 Vibration    14          0.697              1.662              1.382
 Vibration    15          0.711              1.621              1.275
 Vibration    16          0.739              1.542              1.095
 Vibration    17          0.763              1.477              0.974
 Vibration    18          0.829              1.313              0.733
 Vibration    19          0.851              1.259              0.669
 Vibration    20          0.898              1.155              0.559
 Vibration    21          0.930              1.089              0.498
 Vibration    22          0.948              1.052              0.466
 Vibration    23          0.976              0.997              0.422

 Optimization completed.
    -- Stationary point found.
 Normal termination of Gaussian 09 at Sat Jul 24 02:47:30 2021.
