 Gaussian 09, Revision D.01,
 Gaussian 09:  ES64L-G09RevD.01 24-Apr-2013

 ----------------------------------------------------------------------
 # B3LYP/6-31+G(d,p) EmpiricalDispersion=GD3BJ opt=calcfc freq=noraman
 nosymm integral(ultrafinegrid)
 ----------------------------------------------------------------------

 ------------------------------------------------------------
 Candidate Structure: Conf:609 OPT and FREQ calc in gas phase
 ------------------------------------------------------------
 Symbolic Z-matrix:
 Charge =  0 Multiplicity = 1

 SCF Done:  E(RB3LYP) =  -796.195944044     A.U. after   15 cycles
 SCF Done:  E(RB3LYP) =  -796.198563730     A.U. after   16 cycles
 SCF Done:  E(RB3LYP) =  -796.198967399     A.U. after   15 cycles
 SCF Done:  E(RB3LYP) =  -796.199318307     A.U. after   14 cycles
 SCF Done:  E(RB3LYP) =  -796.198934863     A.U. after   15 cycles
 SCF Done:  E(RB3LYP) =  -796.199473235     A.U. after   12 cycles
 SCF Done:  E(RB3LYP) =  -796.199554873     A.U. after   13 cycles
 SCF Done:  E(RB3LYP) =  -796.199569619     A.U. after   12 cycles
 SCF Done:  E(RB3LYP) =  -796.199573478     A.U. after   11 cycles
 SCF Done:  E(RB3LYP) =  -796.199574155     A.U. after   11 cycles
 SCF Done:  E(RB3LYP) =  -796.199574246     A.U. after    9 cycles
 Optimization completed.
    -- Stationary point found.
 Normal termination of Gaussian 09 at Sat Jul 24 01:59:10 2021.

 ----------------------------------------------------------------------
 #N Geom=AllCheck Guess=TCheck SCRF=Check GenChk RB3LYP/6-31+G(d,p) Fre
 q
 ----------------------------------------------------------------------

 Structure from the checkpoint file:  "conf-609.chk"
 ------------------------------------------------------------
 Candidate Structure: Conf:609 OPT and FREQ calc in gas phase
 ------------------------------------------------------------
 Charge =  0 Multiplicity = 1

                          Input orientation:
 ---------------------------------------------------------------------
 Center     Atomic      Atomic             Coordinates (Angstroms)
 Number     Number       Type             X           Y           Z
 ---------------------------------------------------------------------
      1          8           0        1.395555    1.203433   -0.550773
      2          6           0        1.624437    0.362098    0.315992
      3          7           0        0.628346   -0.452932    0.787160
      4          6           0       -0.674172   -0.457207    0.135610
      5          6           0       -0.468990   -0.787810   -1.351467
      6          8           0       -1.324658   -0.141567   -2.185523
      7          8           0        0.340202   -1.589030   -1.757185
      8          6           0       -1.487079    0.830101    0.434657
      9          6           0       -2.968336    0.634795    0.450304
     10          6           0       -3.873731    0.610016    1.490151
     11          7           0       -5.155047    0.394563    1.026813
     12          6           0       -5.037279    0.286611   -0.281392
     13          7           0       -3.736660    0.425799   -0.681051
     14          6           0        3.008383    0.143636    0.890133
     15          6           0        3.966966   -0.398251   -0.199773
     16          7           0        5.348096   -0.595113    0.223757
     17          1           0        0.886546   -1.259929    1.334964
     18          1           0       -1.226471   -1.308421    0.548881
     19          1           0       -1.092439   -0.422076   -3.087644
     20          1           0       -1.190279    1.156739    1.434319
     21          1           0       -1.182978    1.617486   -0.258880
     22          1           0       -3.670023    0.747833    2.543177
     23          1           0       -5.844393    0.111325   -0.978531
     24          1           0       -3.364402    0.359997   -1.617287
     25          1           0        3.377209    1.111474    1.246614
     26          1           0        2.986114   -0.542289    1.745719
     27          1           0        3.583326   -1.353283   -0.575261
     28          1           0        3.956516    0.296854   -1.043739
     29          1           0        5.419789   -1.260502    0.988291
     30          1           0        5.775521    0.275655    0.526411
 ---------------------------------------------------------------------

 SCF Done:  E(RB3LYP) =  -796.199574246     A.U. after    2 cycles

 Alpha  occ. eigenvalues --  -19.23692 -19.17379 -19.14172 -14.39484 -14.39004
 Alpha  occ. eigenvalues --  -14.33339 -14.32065 -10.35377 -10.30967 -10.27326
 Alpha  occ. eigenvalues --  -10.24423 -10.22764 -10.22555 -10.21624 -10.21088
 Alpha  occ. eigenvalues --  -10.20244  -1.14166  -1.06158  -1.04918  -1.01781
 Alpha  occ. eigenvalues --   -0.95231  -0.89729  -0.87486  -0.81908  -0.77426
 Alpha  occ. eigenvalues --   -0.74583  -0.68934  -0.66293  -0.63164  -0.61848
 Alpha  occ. eigenvalues --   -0.60136  -0.59310  -0.55658  -0.53307  -0.52363
 Alpha  occ. eigenvalues --   -0.51593  -0.51453  -0.49161  -0.47429  -0.46137
 Alpha  occ. eigenvalues --   -0.45613  -0.44370  -0.43891  -0.43066  -0.42483
 Alpha  occ. eigenvalues --   -0.41631  -0.41178  -0.40462  -0.39979  -0.39314
 Alpha  occ. eigenvalues --   -0.38133  -0.35873  -0.35049  -0.30895  -0.29186
 Alpha  occ. eigenvalues --   -0.28518  -0.28127  -0.27247  -0.24947  -0.23086
 Alpha virt. eigenvalues --   -0.03506  -0.01944  -0.01236  -0.00347   0.00188
 Alpha virt. eigenvalues --    0.01106   0.01450   0.01920   0.02823   0.03139
 Alpha virt. eigenvalues --    0.03879   0.04341   0.04697   0.05405   0.05454

 Mulliken charges:
               1
     1  O   -0.431057
     2  C    0.136936
     3  N   -0.271943
     4  C   -0.167801
     5  C    0.463914
     6  O   -0.494339
     7  O   -0.400587
     8  C   -1.285800
     9  C    1.064314
    10  C   -0.112901
    11  N   -0.290238
    12  C    0.265514
    13  N   -0.331217
    14  C   -0.336716
    15  C   -0.228228
    16  N   -0.597194
    17  H    0.306145
    18  H    0.172610
    19  H    0.393420
    20  H    0.163179
    21  H    0.203555
    22  H    0.121547
    23  H    0.133053
    24  H    0.324348
    25  H    0.170892
    26  H    0.129112
    27  H    0.157719
    28  H    0.173413
    29  H    0.282321
    30  H    0.286025
 Sum of Mulliken charges =   0.00000

 Dipole moment (field-independent basis, Debye):
    X=              1.8310    Y=             -1.2773    Z=              0.3591  Tot=              2.2612
 Quadrupole moment (field-independent basis, Debye-Ang):
   XX=           -118.8995   YY=            -99.9975   ZZ=            -86.0470
   XY=              4.8054   XZ=             28.3110   YZ=             -3.5083

  Exact polarizability: 192.244  -4.823 109.621   0.605   2.393 135.972
 Approx polarizability: 229.504  -1.789 174.586  -2.044  -6.851 213.536

                      1                      2                      3
                      A                      A                      A
 Frequencies --     15.6353                25.5570                36.7264
 Red. masses --      4.2001                 5.0811                 5.3565
 Frc consts  --      0.0006                 0.0020                 0.0043
 IR Inten    --      1.2705                 9.2174                 6.1636

                      4                      5                      6
                      A                      A                      A
 Frequencies --     55.3509                70.0197                90.1207
 Red. masses --      4.8195                 2.9876                 2.5258
 Frc consts  --      0.0087                 0.0086                 0.0121
 IR Inten    --      1.5280                 3.4485                 2.6192

                      7                      8                      9
                      A                      A                      A
 Frequencies --     93.6920               127.6107               145.1320
 Red. masses --      9.6016                 6.3191                 6.3996
 Frc consts  --      0.0497                 0.0606                 0.0794
 IR Inten    --      2.6289                 2.3447                 5.3524

                     10                     11                     12
                      A                      A                      A
 Frequencies --    192.0624               220.7917               282.2176
 Red. masses --      4.5156                 5.3529                 3.2595
 Frc consts  --      0.0981                 0.1537                 0.1530
 IR Inten    --     10.2465                 2.3638                14.7321

                     13                     14                     15
                      A                      A                      A
 Frequencies --    296.3415               306.4914               338.6229
 Red. masses --      1.1935                 3.3579                 3.9309
 Frc consts  --      0.0618                 0.1858                 0.2656
 IR Inten    --     40.3773                 7.1872                 1.4208

                     16                     17                     18
                      A                      A                      A
 Frequencies --    368.4740               390.1029               437.6657
 Red. masses --      3.4715                 3.6100                 1.4917
 Frc consts  --      0.2777                 0.3237                 0.1684
 IR Inten    --      1.2339                13.2159                37.3674

                     19                     20                     21
                      A                      A                      A
 Frequencies --    444.6551               518.9762               546.9556
 Red. masses --      2.7820                 3.5922                 2.8722
 Frc consts  --      0.3241                 0.5700                 0.5063
 IR Inten    --     36.1562                31.1660                28.4908

                     22                     23                     24
                      A                      A                      A
 Frequencies --    590.5382               609.3127               668.4701
 Red. masses --      1.5666                 2.0808                 2.7780
 Frc consts  --      0.3219                 0.4551                 0.7314
 IR Inten    --     32.4326                89.9446                50.5503

                     25                     26                     27
                      A                      A                      A
 Frequencies --    681.1152               687.6610               727.3187
 Red. masses --      2.9900                 1.8601                 3.9211
 Frc consts  --      0.8173                 0.5182                 1.2221
 IR Inten    --     38.9523                 5.6559                26.5929

                     28                     29                     30
                      A                      A                      A
 Frequencies --    738.8432               769.4156               779.0042
 Red. masses --      5.5548                 1.2797                 2.8195
 Frc consts  --      1.7866                 0.4463                 1.0081
 IR Inten    --      2.7995                 1.7949                 2.7523

                     31                     32                     33
                      A                      A                      A
 Frequencies --    802.3702               804.6697               839.5953
 Red. masses --      1.4533                 1.3936                 1.5144
 Frc consts  --      0.5513                 0.5317                 0.6290
 IR Inten    --    224.1409                35.7746                25.1411

                     34                     35                     36
                      A                      A                      A
 Frequencies --    854.2168               914.3726               939.3447
 Red. masses --      3.0007                 2.5358                 5.7470
 Frc consts  --      1.2900                 1.2492                 2.9877
 IR Inten    --     10.0298                 0.5571                12.1210

                     37                     38                     39
                      A                      A                      A
 Frequencies --    967.8844               988.8732              1013.1837
 Red. masses --      1.6716                 2.1476                 4.8214
 Frc consts  --      0.9226                 1.2373                 2.9161
 IR Inten    --      6.2485                12.2531                71.9940

                     40                     41                     42
                      A                      A                      A
 Frequencies --   1030.7331              1051.7105              1089.6473
 Red. masses --      3.6025                 4.4802                 1.7731
 Frc consts  --      2.2550                 2.9197                 1.2404
 IR Inten    --     17.7844                 5.3474                15.4672

                     43                     44                     45
                      A                      A                      A
 Frequencies --   1103.1771              1119.2953              1139.9505
 Red. masses --      3.5104                 1.5393                 1.7478
 Frc consts  --      2.5171                 1.1362                 1.3382
 IR Inten    --     31.5121                41.1226                37.4589

                     46                     47                     48
                      A                      A                      A
 Frequencies --   1150.5721              1163.8684              1200.5376
 Red. masses --      2.1578                 2.1993                 1.5086
 Frc consts  --      1.6830                 1.7552                 1.2811
 IR Inten    --     47.8917               164.6147                42.0948

                     49                     50                     51
                      A                      A                      A
 Frequencies --   1254.8155              1266.8942              1276.6205
 Red. masses --      1.7325                 2.2854                 1.3921
 Frc consts  --      1.6073                 2.1612                 1.3367
 IR Inten    --     50.7642                23.9539                 4.7650

                     52                     53                     54
                      A                      A                      A
 Frequencies --   1292.0977              1304.6172              1328.4517
 Red. masses --      1.3257                 1.2924                 1.4154
 Frc consts  --      1.3041                 1.2960                 1.4717
 IR Inten    --      4.4275                 2.3135                12.1805

                     55                     56                     57
                      A                      A                      A
 Frequencies --   1333.8480              1353.4522              1382.5212
 Red. masses --      1.4754                 1.9065                 1.4439
 Frc consts  --      1.5466                 2.0577                 1.6260
 IR Inten    --     47.7419                 9.3586                10.2227

                     58                     59                     60
                      A                      A                      A
 Frequencies --   1384.2218              1392.9605              1400.5307
 Red. masses --      1.4024                 1.2389                 3.1572
 Frc consts  --      1.5832                 1.4163                 3.6487
 IR Inten    --      5.1431                22.3693                13.6398

                     61                     62                     63
                      A                      A                      A
 Frequencies --   1433.2925              1485.6025              1489.9579
 Red. masses --      2.9170                 1.1123                 1.1427
 Frc consts  --      3.5306                 1.4464                 1.4947
 IR Inten    --     26.2506                 2.4098                12.3184

                     64                     65                     66
                      A                      A                      A
 Frequencies --   1504.3786              1506.1492              1528.9829
 Red. masses --      1.0908                 3.4021                 1.9875
 Frc consts  --      1.4545                 4.5471                 2.7375
 IR Inten    --      5.2116                40.9209               227.9435

                     67                     68                     69
                      A                      A                      A
 Frequencies --   1613.1715              1668.3835              1743.8416
 Red. masses --      4.4955                 1.0922                 9.1863
 Frc consts  --      6.8927                 1.7913                16.4590
 IR Inten    --      7.5417                33.8690               195.5996

                     70                     71                     72
                      A                      A                      A
 Frequencies --   1825.2787              3041.1133              3061.0565
 Red. masses --     10.2888                 1.0608                 1.0650
 Frc consts  --     20.1964                 5.7804                 5.8794
 IR Inten    --    302.4982                17.8297                20.9929

                     73                     74                     75
                      A                      A                      A
 Frequencies --   3071.1707              3086.5376              3091.8147
 Red. masses --      1.0827                 1.0622                 1.0993
 Frc consts  --      6.0168                 5.9621                 6.1914
 IR Inten    --      2.6504                 9.8690                 7.0250

                     76                     77                     78
                      A                      A                      A
 Frequencies --   3120.1944              3133.2723              3250.3211
 Red. masses --      1.1054                 1.1040                 1.0961
 Frc consts  --      6.3407                 6.3858                 6.8229
 IR Inten    --     20.7960                 2.7104                 7.2219

                     79                     80                     81
                      A                      A                      A
 Frequencies --   3263.4777              3508.8308              3600.4819
 Red. masses --      1.0977                 1.0483                 1.0947
 Frc consts  --      6.8878                 7.6045                 8.3609
 IR Inten    --      1.3164                 1.2144                 1.5484

                     82                     83                     84
                      A                      A                      A
 Frequencies --   3651.5200              3658.7627              3747.3579
 Red. masses --      1.0787                 1.0813                 1.0644
 Frc consts  --      8.4741                 8.5287                 8.8062
 IR Inten    --     29.4011               119.8382                80.9630

 - Thermochemistry -
 -------------------
 Temperature   298.150 Kelvin.  Pressure   1.00000 Atm.
 Atom     1 has atomic number  8 and mass  15.99491

 Molecular mass:   226.10659 amu.
 Principal axes and moments of inertia in atomic units:
                           1         2         3
     Eigenvalues --  1291.088877937.376448644.53986
           X            0.99617   0.04681   0.07384
           Y           -0.08571   0.35599   0.93055
           Z           -0.01728   0.93332  -0.35864
 This molecule is an asymmetric top.
 Rotational symmetry number  1.
 Warning -- assumption of classical behavior for rotation
           may cause significant error
 Rotational temperatures (Kelvin)      0.06709     0.01091     0.01002
 Rotational constants (GHZ):           1.39784     0.22737     0.20877
 Zero-point vibrational energy     642902.3 (Joules/Mol)
                                  153.65733 (Kcal/Mol)
 Warning -- explicit consideration of  23 degrees of freedom as
           vibrations may cause significant error
 Vibrational temperatures:     22.50    36.77    52.84    79.64   100.74
          (Kelvin)            129.66   134.80   183.60   208.81   276.33
                              317.67   406.05   426.37   440.97   487.20
                              530.15   561.27   629.70   639.76   746.69
                              786.95   849.65   876.66   961.78   979.97
                              989.39  1046.45  1063.03  1107.02  1120.81
                             1154.43  1157.74  1207.99  1229.03  1315.58
                             1351.51  1392.57  1422.77  1457.74  1482.99
                             1513.17  1567.76  1587.22  1610.41  1640.13
                             1655.41  1674.54  1727.30  1805.40  1822.78
                             1836.77  1859.04  1877.05  1911.34  1919.11
                             1947.31  1989.14  1991.58  2004.16  2015.05
                             2062.19  2137.45  2143.71  2164.46  2167.01
                             2199.86  2320.99  2400.43  2509.00  2626.17
                             4375.48  4404.17  4418.72  4440.83  4448.43
                             4489.26  4508.07  4676.48  4695.41  5048.42
                             5180.28  5253.72  5264.14  5391.61

 Zero-point correction=                           0.244869 (Hartree/Particle)
 Thermal correction to Energy=                    0.261105
 Thermal correction to Enthalpy=                  0.262049
 Thermal correction to Gibbs Free Energy=         0.197835
 Sum of electronic and zero-point Energies=           -795.954706
 Sum of electronic and thermal Energies=              -795.938469
 Sum of electronic and thermal Enthalpies=            -795.937525
 Sum of electronic and thermal Free Energies=         -796.001739

                     E (Thermal)             CV                S
                      KCal/Mol        Cal/Mol-Kelvin    Cal/Mol-Kelvin
 Total                  163.846             58.843            135.151
 Electronic               0.000              0.000              0.000
 Translational            0.889              2.981             42.150
 Rotational               0.889              2.981             32.849
 Vibrational            162.068             52.882             60.152
 Vibration     1          0.593              1.986              7.123
 Vibration     2          0.593              1.985              6.147
 Vibration     3          0.594              1.982              5.428
 Vibration     4          0.596              1.975              4.616
 Vibration     5          0.598              1.968              4.153
 Vibration     6          0.602              1.956              3.657
 Vibration     7          0.603              1.954              3.581
 Vibration     8          0.611              1.926              2.982
 Vibration     9          0.617              1.908              2.735
 Vibration    10          0.634              1.851              2.208
 Vibration    11          0.648              1.809              1.953
 Vibration    12          0.681              1.707              1.520
 Vibration    13          0.690              1.681              1.437
 Vibration    14          0.697              1.661              1.381
 Vibration    15          0.719              1.598              1.219
 Vibration    16          0.741              1.537              1.086
 Vibration    17          0.758              1.491              1.000
 Vibration    18          0.798              1.388              0.834
 Vibration    19          0.804              1.373              0.812
 Vibration    20          0.874              1.208              0.612
 Vibration    21          0.902              1.146              0.551
 Vibration    22          0.948              1.052              0.466
 Vibration    23          0.968              1.012              0.434

 Normal termination of Gaussian 09 at Sat Jul 24 02:38:22 2021.
