 Gaussian 09, Revision D.01,
 Gaussian 09:  ES64L-G09RevD.01 24-Apr-2013

 ----------------------------------------------------------------------
 # B3LYP/6-31+G(d,p) EmpiricalDispersion=GD3BJ opt=calcfc freq=noraman
 nosymm integral(ultrafinegrid)
 ----------------------------------------------------------------------

 ------------------------------------------------------------
 Candidate Structure: Conf:490 OPT and FREQ calc in gas phase
 ------------------------------------------------------------
 Symbolic Z-matrix:
 Charge =  0 Multiplicity = 1

 SCF Done:  E(RB3LYP) =  -796.201750960     A.U. after   15 cycles
 SCF Done:  E(RB3LYP) =  -796.204371304     A.U. after   15 cycles
 SCF Done:  E(RB3LYP) =  -796.196528703     A.U. after   16 cycles
 SCF Done:  E(RB3LYP) =  -796.204696417     A.U. after   11 cycles
 SCF Done:  E(RB3LYP) =  -796.205485806     A.U. after   14 cycles
 SCF Done:  E(RB3LYP) =  -796.205510116     A.U. after   13 cycles
 SCF Done:  E(RB3LYP) =  -796.205507979     A.U. after   13 cycles
 SCF Done:  E(RB3LYP) =  -796.205749974     A.U. after   12 cycles
 SCF Done:  E(RB3LYP) =  -796.205781193     A.U. after   12 cycles
 SCF Done:  E(RB3LYP) =  -796.205784640     A.U. after   11 cycles
 SCF Done:  E(RB3LYP) =  -796.205785240     A.U. after   10 cycles
 SCF Done:  E(RB3LYP) =  -796.205785354     A.U. after    9 cycles
 SCF Done:  E(RB3LYP) =  -796.205785364     A.U. after    8 cycles
 Optimization completed.
    -- Stationary point found.
 Normal termination of Gaussian 09 at Sat Jul 24 02:10:28 2021.

 ----------------------------------------------------------------------
 #N Geom=AllCheck Guess=TCheck SCRF=Check GenChk RB3LYP/6-31+G(d,p) Fre
 q
 ----------------------------------------------------------------------

 Structure from the checkpoint file:  "conf-490.chk"
 ------------------------------------------------------------
 Candidate Structure: Conf:490 OPT and FREQ calc in gas phase
 ------------------------------------------------------------
 Charge =  0 Multiplicity = 1

                          Input orientation:
 ---------------------------------------------------------------------
 Center     Atomic      Atomic             Coordinates (Angstroms)
 Number     Number       Type             X           Y           Z
 ---------------------------------------------------------------------
      1          8           0        0.884560    0.578915   -2.335693
      2          6           0        1.574858    0.189518   -1.389813
      3          7           0        1.075123    0.048383   -0.133771
      4          6           0       -0.285834    0.424720    0.159680
      5          6           0       -0.408711    0.698238    1.659207
      6          8           0       -1.540777    1.315853    2.056849
      7          8           0        0.433908    0.376859    2.465616
      8          6           0       -1.289150   -0.673750   -0.310105
      9          6           0       -2.722728   -0.291727   -0.127016
     10          6           0       -3.493377    0.715786   -0.675207
     11          7           0       -4.765411    0.712501   -0.135651
     12          6           0       -4.776973   -0.278175    0.731129
     13          7           0       -3.566004   -0.916059    0.775667
     14          6           0        3.044816   -0.178607   -1.573069
     15          6           0        3.978682    0.174195   -0.407579
     16          7           0        3.670715   -0.637698    0.780774
     17          1           0        1.701247   -0.254544    0.618339
     18          1           0       -0.523559    1.339449   -0.396770
     19          1           0       -2.150118    1.445341    1.306607
     20          1           0       -1.072293   -0.840870   -1.368345
     21          1           0       -1.064755   -1.602439    0.225604
     22          1           0       -3.206453    1.421246   -1.442682
     23          1           0       -5.615090   -0.577713    1.343777
     24          1           0       -3.314425   -1.680904    1.384988
     25          1           0        3.100272   -1.257508   -1.775332
     26          1           0        3.372231    0.327287   -2.484739
     27          1           0        5.019755    0.067198   -0.746515
     28          1           0        3.837319    1.225669   -0.135002
     29          1           0        4.122329   -0.272479    1.613751
     30          1           0        3.979654   -1.598802    0.659910
 ---------------------------------------------------------------------

 SCF Done:  E(RB3LYP) =  -796.205785364     A.U. after    1 cycles

 Alpha  occ. eigenvalues --  -19.21457 -19.15982 -19.12518 -14.41522 -14.36378
 Alpha  occ. eigenvalues --  -14.34967 -14.33653 -10.33918 -10.29538 -10.26144
 Alpha  occ. eigenvalues --  -10.25979 -10.24612 -10.23761 -10.22644 -10.21847
 Alpha  occ. eigenvalues --  -10.20733  -1.12031  -1.04336  -1.03866  -1.03475
 Alpha  occ. eigenvalues --   -0.93676  -0.90942  -0.89154  -0.81979  -0.77742
 Alpha  occ. eigenvalues --   -0.74699  -0.69005  -0.64974  -0.63457  -0.63059
 Alpha  occ. eigenvalues --   -0.61068  -0.58652  -0.57210  -0.54965  -0.52419
 Alpha  occ. eigenvalues --   -0.50586  -0.48678  -0.48265  -0.47050  -0.46828
 Alpha  occ. eigenvalues --   -0.45783  -0.44856  -0.44178  -0.43876  -0.42626
 Alpha  occ. eigenvalues --   -0.42174  -0.40982  -0.40405  -0.39928  -0.38886
 Alpha  occ. eigenvalues --   -0.38036  -0.35692  -0.33716  -0.30376  -0.29610
 Alpha  occ. eigenvalues --   -0.28725  -0.27453  -0.27057  -0.25896  -0.24500
 Alpha virt. eigenvalues --   -0.02208  -0.01321  -0.00874  -0.00032   0.00774
 Alpha virt. eigenvalues --    0.00899   0.01623   0.01875   0.02572   0.02750
 Alpha virt. eigenvalues --    0.03310   0.04098   0.04535   0.05101   0.06009

 Mulliken charges:
               1
     1  O   -0.507202
     2  C    0.301472
     3  N   -0.198490
     4  C   -0.576074
     5  C    0.505579
     6  O   -0.339101
     7  O   -0.447229
     8  C   -0.538727
     9  C    0.161007
    10  C    0.055787
    11  N   -0.280275
    12  C    0.204974
    13  N   -0.333653
    14  C   -0.212588
    15  C   -0.209215
    16  N   -0.713525
    17  H    0.392784
    18  H    0.190077
    19  H    0.371394
    20  H    0.209783
    21  H    0.145349
    22  H    0.145100
    23  H    0.142140
    24  H    0.306922
    25  H    0.162182
    26  H    0.176311
    27  H    0.136524
    28  H    0.155223
    29  H    0.300643
    30  H    0.292827
 Sum of Mulliken charges =   0.00000

 Dipole moment (field-independent basis, Debye):
    X=              3.3627    Y=             -3.9799    Z=              1.1853  Tot=              5.3434
 Quadrupole moment (field-independent basis, Debye-Ang):
   XX=            -85.1280   YY=            -90.4383   ZZ=           -112.6615
   XY=              8.3274   XZ=             -6.8010   YZ=             -3.4941

  Exact polarizability: 185.094  -8.881 112.346  -6.197  -9.192 135.119
 Approx polarizability: 228.532 -19.839 182.726   1.191 -25.296 206.866

                      1                      2                      3
                      A                      A                      A
 Frequencies --     16.1374                33.4753                45.5656
 Red. masses --      4.6305                 5.2350                 4.3092
 Frc consts  --      0.0007                 0.0035                 0.0053
 IR Inten    --      0.8076                 6.1282                 2.7793

                      4                      5                      6
                      A                      A                      A
 Frequencies --     57.2632                79.8275                87.1004
 Red. masses --      4.5035                 5.6578                 5.4211
 Frc consts  --      0.0087                 0.0212                 0.0242
 IR Inten    --      8.0308                 2.5367                 5.5390

                      7                      8                      9
                      A                      A                      A
 Frequencies --    102.0745               119.2956               174.6856
 Red. masses --      6.7707                 4.3065                 5.0271
 Frc consts  --      0.0416                 0.0361                 0.0904
 IR Inten    --      5.7045                 6.5151                 7.3595

                     10                     11                     12
                      A                      A                      A
 Frequencies --    199.9436               227.7513               289.7383
 Red. masses --      2.2758                 5.3078                 8.1227
 Frc consts  --      0.0536                 0.1622                 0.4018
 IR Inten    --      7.5218                 5.8344                 0.6562

                     13                     14                     15
                      A                      A                      A
 Frequencies --    295.4984               332.9062               346.4596
 Red. masses --      1.2800                 2.2031                 4.5945
 Frc consts  --      0.0659                 0.1439                 0.3249
 IR Inten    --      9.4646                 5.9677                14.4668

                     16                     17                     18
                      A                      A                      A
 Frequencies --    347.4314               391.4334               475.7021
 Red. masses --      4.7139                 4.4221                 2.7292
 Frc consts  --      0.3352                 0.3992                 0.3639
 IR Inten    --      1.2460                18.8860                13.2585

                     19                     20                     21
                      A                      A                      A
 Frequencies --    508.2490               542.1239               600.7173
 Red. masses --      3.1764                 1.4081                 2.7318
 Frc consts  --      0.4834                 0.2438                 0.5808
 IR Inten    --     26.7482                86.1201                36.3956

                     22                     23                     24
                      A                      A                      A
 Frequencies --    603.3244               644.3172               666.2637
 Red. masses --      1.7477                 2.7761                 3.0167
 Frc consts  --      0.3748                 0.6790                 0.7890
 IR Inten    --     51.0093                 5.6223                16.9820

                     25                     26                     27
                      A                      A                      A
 Frequencies --    676.7411               691.4686               732.6560
 Red. masses --      3.2353                 3.2795                 3.2998
 Frc consts  --      0.8730                 0.9238                 1.0436
 IR Inten    --     13.6384                24.7845                 8.9619

                     28                     29                     30
                      A                      A                      A
 Frequencies --    762.1209               803.0440               811.9737
 Red. masses --      3.3051                 1.4802                 1.4032
 Frc consts  --      1.1311                 0.5624                 0.5451
 IR Inten    --      3.6277                41.3233                36.9494

                     31                     32                     33
                      A                      A                      A
 Frequencies --    822.8982               842.0882               853.0439
 Red. masses --      2.0853                 1.3164                 1.4020
 Frc consts  --      0.8320                 0.5500                 0.6011
 IR Inten    --      2.7113                99.3051                29.2317

                     34                     35                     36
                      A                      A                      A
 Frequencies --    891.9078               917.1047               938.8938
 Red. masses --      2.6946                 2.0280                 5.8504
 Frc consts  --      1.2629                 1.0050                 3.0386
 IR Inten    --     11.2555                17.6406                 8.9552

                     37                     38                     39
                      A                      A                      A
 Frequencies --    975.0542              1001.9911              1014.0561
 Red. masses --      2.1318                 1.7025                 3.0381
 Frc consts  --      1.1941                 1.0071                 1.8407
 IR Inten    --     15.9763                25.0136                 2.1578

                     40                     41                     42
                      A                      A                      A
 Frequencies --   1030.2399              1039.7872              1085.6114
 Red. masses --      3.8226                 3.1183                 2.6075
 Frc consts  --      2.3905                 1.9863                 1.8106
 IR Inten    --      9.7823                 7.5118                 7.7827

                     43                     44                     45
                      A                      A                      A
 Frequencies --   1115.9349              1145.5783              1147.3529
 Red. masses --      1.5895                 1.7028                 2.2289
 Frc consts  --      1.1662                 1.3166                 1.7288
 IR Inten    --     15.5797                 5.4670                14.9435

                     46                     47                     48
                      A                      A                      A
 Frequencies --   1161.0581              1164.6272              1201.9028
 Red. masses --      1.4467                 2.2590                 2.1629
 Frc consts  --      1.1490                 1.8053                 1.8409
 IR Inten    --      5.9286                22.0720                11.6005

                     49                     50                     51
                      A                      A                      A
 Frequencies --   1252.1099              1260.4380              1280.7275
 Red. masses --      1.5459                 1.8138                 1.4354
 Frc consts  --      1.4279                 1.6978                 1.3872
 IR Inten    --     19.0617                26.2136                 3.5948

                     52                     53                     54
                      A                      A                      A
 Frequencies --   1295.1814              1311.2731              1313.2531
 Red. masses --      1.3405                 1.4526                 1.3564
 Frc consts  --      1.3249                 1.4716                 1.3782
 IR Inten    --      7.6778               100.1550                 7.4910

                     55                     56                     57
                      A                      A                      A
 Frequencies --   1319.5653              1359.4254              1369.4818
 Red. masses --      1.5817                 1.3675                 1.4104
 Frc consts  --      1.6227                 1.4889                 1.5585
 IR Inten    --     36.7786                98.6764                15.6336

                     58                     59                     60
                      A                      A                      A
 Frequencies --   1400.5698              1407.7878              1420.1135
 Red. masses --      2.3904                 2.0347                 1.4517
 Frc consts  --      2.7626                 2.3759                 1.7249
 IR Inten    --     50.5534                60.9110                24.7586

                     61                     62                     63
                      A                      A                      A
 Frequencies --   1436.2960              1466.9206              1490.2314
 Red. masses --      3.2589                 1.0829                 1.1581
 Frc consts  --      3.9610                 1.3730                 1.5153
 IR Inten    --     20.0310                14.0494                 8.6408

                     64                     65                     66
                      A                      A                      A
 Frequencies --   1498.3700              1513.9129              1558.0139
 Red. masses --      3.6627                 1.0931                 2.1309
 Frc consts  --      4.8449                 1.4761                 3.0476
 IR Inten    --     23.1275                10.1806               395.9022

                     67                     68                     69
                      A                      A                      A
 Frequencies --   1604.9542              1659.2056              1724.4913
 Red. masses --      4.2190                 1.0915                 9.1890
 Frc consts  --      6.4030                 1.7705                16.1005
 IR Inten    --      8.1438                41.3848               335.7495

                     70                     71                     72
                      A                      A                      A
 Frequencies --   1835.0325              2998.5669              3033.9837
 Red. masses --      9.9734                 1.0710                 1.0703
 Frc consts  --     19.7871                 5.6739                 5.8049
 IR Inten    --    286.1503                86.1050                 9.4395

                     73                     74                     75
                      A                      A                      A
 Frequencies --   3052.4944              3064.9711              3081.3843
 Red. masses --      1.0771                 1.0686                 1.0929
 Frc consts  --      5.9130                 5.9146                 6.1140
 IR Inten    --      6.4844                21.9911                25.0649

                     76                     77                     78
                      A                      A                      A
 Frequencies --   3118.8441              3120.3328              3255.6785
 Red. masses --      1.1031                 1.0934                 1.0964
 Frc consts  --      6.3221                 6.2724                 6.8471
 IR Inten    --      1.8063                 9.1234                 3.3079

                     79                     80                     81
                      A                      A                      A
 Frequencies --   3269.7620              3393.7466              3514.3861
 Red. masses --      1.0982                 1.0824                 1.0502
 Frc consts  --      6.9176                 7.3452                 7.6419
 IR Inten    --      0.9757               372.6033                 0.3696

                     82                     83                     84
                      A                      A                      A
 Frequencies --   3605.1969              3656.9379              3666.0248
 Red. masses --      1.0938                 1.0815                 1.0670
 Frc consts  --      8.3763                 8.5212                 8.4487
 IR Inten    --      6.4679                49.8803               229.3073

 - Thermochemistry -
 -------------------
 Temperature   298.150 Kelvin.  Pressure   1.00000 Atm.
 Atom     1 has atomic number  8 and mass  15.99491

 Molecular mass:   226.10659 amu.
 Principal axes and moments of inertia in atomic units:
                           1         2         3
     Eigenvalues --  1651.608096613.723357589.01899
           X            0.99119   0.13138   0.01696
           Y           -0.02402   0.05241   0.99834
           Z           -0.13027   0.98995  -0.05510
 This molecule is an asymmetric top.
 Rotational symmetry number  1.
 Warning -- assumption of classical behavior for rotation
           may cause significant error
 Rotational temperatures (Kelvin)      0.05244     0.01310     0.01141
 Rotational constants (GHZ):           1.09272     0.27288     0.23781
 Zero-point vibrational energy     643735.0 (Joules/Mol)
                                  153.85635 (Kcal/Mol)
 Warning -- explicit consideration of  22 degrees of freedom as
           vibrations may cause significant error
 Vibrational temperatures:     23.22    48.16    65.56    82.39   114.85
          (Kelvin)            125.32   146.86   171.64   251.33   287.67
                              327.68   416.87   425.16   478.98   498.48
                              499.88   563.18   684.43   731.26   779.99
                              864.30   868.05   927.03   958.60   973.68
                              994.87  1054.13  1096.52  1155.40  1168.25
                             1183.97  1211.58  1227.34  1283.25  1319.51
                             1350.86  1402.88  1441.64  1459.00  1482.28
                             1496.02  1561.95  1605.58  1648.23  1650.78
                             1670.50  1675.64  1729.27  1801.50  1813.49
                             1842.68  1863.47  1886.63  1889.48  1898.56
                             1955.91  1970.38  2015.10  2025.49  2043.22
                             2066.51  2110.57  2144.11  2155.82  2178.18
                             2241.63  2309.17  2387.22  2481.16  2640.20
                             4314.26  4365.22  4391.85  4409.80  4433.42
                             4487.32  4489.46  4684.19  4704.45  4882.84
                             5056.41  5187.07  5261.51  5274.59

 Zero-point correction=                           0.245186 (Hartree/Particle)
 Thermal correction to Energy=                    0.261048
 Thermal correction to Enthalpy=                  0.261993
 Thermal correction to Gibbs Free Energy=         0.199054
 Sum of electronic and zero-point Energies=           -795.960600
 Sum of electronic and thermal Energies=              -795.944737
 Sum of electronic and thermal Enthalpies=            -795.943793
 Sum of electronic and thermal Free Energies=         -796.006732

                     E (Thermal)             CV                S
                      KCal/Mol        Cal/Mol-Kelvin    Cal/Mol-Kelvin
 Total                  163.810             57.865            132.466
 Electronic               0.000              0.000              0.000
 Translational            0.889              2.981             42.150
 Rotational               0.889              2.981             32.783
 Vibrational            162.033             51.903             57.534
 Vibration     1          0.593              1.986              7.060
 Vibration     2          0.594              1.983              5.612
 Vibration     3          0.595              1.979              5.001
 Vibration     4          0.596              1.975              4.549
 Vibration     5          0.600              1.963              3.895
 Vibration     6          0.601              1.958              3.724
 Vibration     7          0.604              1.948              3.414
 Vibration     8          0.609              1.933              3.112
 Vibration     9          0.627              1.874              2.384
 Vibration    10          0.638              1.840              2.134
 Vibration    11          0.651              1.799              1.897
 Vibration    12          0.686              1.693              1.475
 Vibration    13          0.690              1.682              1.442
 Vibration    14          0.715              1.610              1.246
 Vibration    15          0.724              1.582              1.182
 Vibration    16          0.725              1.580              1.178
 Vibration    17          0.759              1.488              0.995
 Vibration    18          0.832              1.304              0.722
 Vibration    19          0.863              1.232              0.638
 Vibration    20          0.897              1.157              0.561
 Vibration    21          0.959              1.030              0.448
 Vibration    22          0.962              1.025              0.444

 Optimization completed.
    -- Stationary point found.
 Normal termination of Gaussian 09 at Sat Jul 24 02:53:15 2021.
