 Gaussian 09, Revision D.01,
 Gaussian 09:  ES64L-G09RevD.01 24-Apr-2013

 ----------------------------------------------------------------------
 # B3LYP/6-31+G(d,p) EmpiricalDispersion=GD3BJ opt=calcfc freq=noraman
 nosymm integral(ultrafinegrid)
 ----------------------------------------------------------------------

 ------------------------------------------------------------
 Candidate Structure: Conf:640 OPT and FREQ calc in gas phase
 ------------------------------------------------------------
 Symbolic Z-matrix:
 Charge =  0 Multiplicity = 1

 SCF Done:  E(RB3LYP) =  -796.205211163     A.U. after   15 cycles
 SCF Done:  E(RB3LYP) =  -796.208154255     A.U. after   15 cycles
 SCF Done:  E(RB3LYP) =  -796.208198402     A.U. after   16 cycles
 SCF Done:  E(RB3LYP) =  -796.208656141     A.U. after   12 cycles
 SCF Done:  E(RB3LYP) =  -796.208683326     A.U. after   12 cycles
 SCF Done:  E(RB3LYP) =  -796.208691247     A.U. after   12 cycles
 SCF Done:  E(RB3LYP) =  -796.208706969     A.U. after   12 cycles
 SCF Done:  E(RB3LYP) =  -796.208707306     A.U. after   11 cycles
 Optimization completed.
    -- Stationary point found.
 Normal termination of Gaussian 09 at Sat Jul 24 01:49:36 2021.

 ----------------------------------------------------------------------
 #N Geom=AllCheck Guess=TCheck SCRF=Check GenChk RB3LYP/6-31+G(d,p) Fre
 q
 ----------------------------------------------------------------------

 Structure from the checkpoint file:  "conf-640.chk"
 ------------------------------------------------------------
 Candidate Structure: Conf:640 OPT and FREQ calc in gas phase
 ------------------------------------------------------------
 Charge =  0 Multiplicity = 1

                          Input orientation:
 ---------------------------------------------------------------------
 Center     Atomic      Atomic             Coordinates (Angstroms)
 Number     Number       Type             X           Y           Z
 ---------------------------------------------------------------------
      1          8           0        0.928489   -1.245184   -1.273026
      2          6           0        1.174604   -0.136539   -0.780330
      3          7           0        0.273476    0.882794   -0.810375
      4          6           0       -0.995203    0.765957   -1.494361
      5          6           0       -1.219839    2.014737   -2.328353
      6          8           0       -2.210971    1.844458   -3.226554
      7          8           0       -0.620959    3.059988   -2.183812
      8          6           0       -2.211811    0.570657   -0.539533
      9          6           0       -1.995487   -0.434711    0.544404
     10          6           0       -2.399664   -0.432745    1.862343
     11          7           0       -2.029689   -1.602449    2.492312
     12          6           0       -1.399978   -2.305377    1.571496
     13          7           0       -1.370150   -1.656524    0.367514
     14          6           0        2.461981    0.129335   -0.033315
     15          6           0        2.501896   -0.697555    1.278512
     16          7           0        3.716450   -0.555210    2.069498
     17          1           0        0.545996    1.803621   -0.493961
     18          1           0       -0.923375   -0.097874   -2.160834
     19          1           0       -2.336031    2.688882   -3.693158
     20          1           0       -3.071128    0.305261   -1.167199
     21          1           0       -2.452904    1.525878   -0.060308
     22          1           0       -2.944640    0.342031    2.384106
     23          1           0       -0.945471   -3.275278    1.715011
     24          1           0       -0.772052   -1.898376   -0.419084
     25          1           0        2.582243    1.194998    0.194392
     26          1           0        3.292226   -0.177045   -0.678255
     27          1           0        1.648614   -0.419771    1.907185
     28          1           0        2.374642   -1.753369    1.023134
     29          1           0        3.857459    0.400899    2.382373
     30          1           0        4.541353   -0.841617    1.550128
 ---------------------------------------------------------------------

 SCF Done:  E(RB3LYP) =  -796.208707306     A.U. after    1 cycles

 Alpha  occ. eigenvalues --  -19.24119 -19.18599 -19.14759 -14.39447 -14.38684
 Alpha  occ. eigenvalues --  -14.33426 -14.31697 -10.36189 -10.31737 -10.27399
 Alpha  occ. eigenvalues --  -10.23884 -10.22919 -10.22803 -10.22675 -10.21329
 Alpha  occ. eigenvalues --  -10.20005  -1.14928  -1.06589  -1.05907  -1.01268
 Alpha  occ. eigenvalues --   -0.95946  -0.89884  -0.87027  -0.82522  -0.77707
 Alpha  occ. eigenvalues --   -0.75301  -0.69185  -0.66473  -0.63102  -0.62034
 Alpha  occ. eigenvalues --   -0.60653  -0.58998  -0.55650  -0.53007  -0.52930
 Alpha  occ. eigenvalues --   -0.51990  -0.50782  -0.49867  -0.48961  -0.47294
 Alpha  occ. eigenvalues --   -0.45713  -0.45080  -0.43833  -0.43217  -0.42874
 Alpha  occ. eigenvalues --   -0.41969  -0.41445  -0.40909  -0.40172  -0.39390
 Alpha  occ. eigenvalues --   -0.37963  -0.36181  -0.36045  -0.32214  -0.29384
 Alpha  occ. eigenvalues --   -0.28896  -0.28050  -0.26862  -0.25083  -0.22805
 Alpha virt. eigenvalues --   -0.03639  -0.02079  -0.01486  -0.00681   0.00890
 Alpha virt. eigenvalues --    0.01024   0.01668   0.01974   0.02496   0.03674
 Alpha virt. eigenvalues --    0.03853   0.04605   0.05106   0.05512   0.06042

 Mulliken charges:
               1
     1  O   -0.469417
     2  C   -0.014989
     3  N   -0.245539
     4  C   -0.428974
     5  C    0.620680
     6  O   -0.409038
     7  O   -0.438740
     8  C   -1.066706
     9  C    0.594664
    10  C    0.089500
    11  N   -0.247659
    12  C    0.119909
    13  N   -0.301072
    14  C   -0.055770
    15  C   -0.207273
    16  N   -0.594935
    17  H    0.327359
    18  H    0.202691
    19  H    0.379822
    20  H    0.189202
    21  H    0.157586
    22  H    0.122395
    23  H    0.136488
    24  H    0.335460
    25  H    0.131752
    26  H    0.171302
    27  H    0.164497
    28  H    0.168354
    29  H    0.283805
    30  H    0.284644
 Sum of Mulliken charges =   0.00000

 Dipole moment (field-independent basis, Debye):
    X=              0.9558    Y=              3.4185    Z=             -3.8176  Tot=              5.2128
 Quadrupole moment (field-independent basis, Debye-Ang):
   XX=            -89.0413   YY=            -97.4458   ZZ=           -106.6267
   XY=             -4.9894   XZ=             10.4775   YZ=              4.1967

  Exact polarizability: 143.073  -8.877 143.523   7.981 -20.872 145.473
 Approx polarizability: 187.580 -12.317 225.876   2.695  -5.059 210.191

                      1                      2                      3
                      A                      A                      A
 Frequencies --     19.5181                25.6055                52.0323
 Red. masses --      5.6672                 3.3222                 5.8592
 Frc consts  --      0.0013                 0.0013                 0.0093
 IR Inten    --      1.7950                 1.4749                 3.2437

                      4                      5                      6
                      A                      A                      A
 Frequencies --     58.4357                72.0445                83.8862
 Red. masses --      6.0119                 5.0912                 1.8934
 Frc consts  --      0.0121                 0.0156                 0.0079
 IR Inten    --      0.3837                 5.2640                 2.0220

                      7                      8                      9
                      A                      A                      A
 Frequencies --     98.5898               141.9986               163.9742
 Red. masses --      6.0158                 5.4171                 6.5412
 Frc consts  --      0.0345                 0.0644                 0.1036
 IR Inten    --      1.0444                10.6244                 8.0911

                     10                     11                     12
                      A                      A                      A
 Frequencies --    178.8669               199.2006               271.3360
 Red. masses --      4.6031                 4.9068                 5.0984
 Frc consts  --      0.0868                 0.1147                 0.2212
 IR Inten    --     14.2549                13.2670                 1.6378

                     13                     14                     15
                      A                      A                      A
 Frequencies --    294.3761               304.5506               318.6010
 Red. masses --      1.3330                 2.2017                 5.6943
 Frc consts  --      0.0681                 0.1203                 0.3406
 IR Inten    --     35.1241                10.8656                 3.3042

                     16                     17                     18
                      A                      A                      A
 Frequencies --    341.5937               392.8313               453.7777
 Red. masses --      3.4381                 3.6746                 3.5334
 Frc consts  --      0.2364                 0.3341                 0.4287
 IR Inten    --      5.8860                 2.6641                 9.0516

                     19                     20                     21
                      A                      A                      A
 Frequencies --    507.2210               527.8041               603.6942
 Red. masses --      1.2892                 3.2076                 1.3710
 Frc consts  --      0.1954                 0.5265                 0.2944
 IR Inten    --     60.6297                43.0346                95.1154

                     22                     23                     24
                      A                      A                      A
 Frequencies --    620.1820               626.9215               654.7292
 Red. masses --      2.9564                 3.7193                 3.5363
 Frc consts  --      0.6700                 0.8613                 0.8932
 IR Inten    --     34.6112                34.5790                45.1056

                     25                     26                     27
                      A                      A                      A
 Frequencies --    669.7582               698.0871               704.8517
 Red. masses --      3.4436                 1.4972                 2.5588
 Frc consts  --      0.9101                 0.4299                 0.7490
 IR Inten    --     47.7950                75.4050                43.3368

                     28                     29                     30
                      A                      A                      A
 Frequencies --    754.0862               773.0159               783.7552
 Red. masses --      6.1953                 1.1643                 4.3045
 Frc consts  --      2.0756                 0.4099                 1.5579
 IR Inten    --      0.8040                 2.3772                 8.7777

                     31                     32                     33
                      A                      A                      A
 Frequencies --    797.2979               811.1788               836.3511
 Red. masses --      1.4403                 1.3912                 1.3480
 Frc consts  --      0.5394                 0.5393                 0.5555
 IR Inten    --    228.4453                18.7003                27.9965

                     34                     35                     36
                      A                      A                      A
 Frequencies --    894.6338               935.3081               942.1950
 Red. masses --      2.0934                 4.5088                 5.6685
 Frc consts  --      0.9872                 2.3239                 2.9648
 IR Inten    --      3.2290                 0.9673                13.9720

                     37                     38                     39
                      A                      A                      A
 Frequencies --    976.7931               993.5599              1006.9010
 Red. masses --      1.3666                 3.3981                 4.6837
 Frc consts  --      0.7683                 1.9764                 2.7978
 IR Inten    --      5.0897                11.7170                60.0111

                     40                     41                     42
                      A                      A                      A
 Frequencies --   1021.5883              1043.8143              1101.9093
 Red. masses --      3.6318                 3.1384                 2.4233
 Frc consts  --      2.2332                 2.0147                 1.7336
 IR Inten    --     16.8562                 7.0155                 8.9784

                     43                     44                     45
                      A                      A                      A
 Frequencies --   1110.8979              1143.9671              1151.2980
 Red. masses --      2.1597                 1.8586                 2.1816
 Frc consts  --      1.5703                 1.4331                 1.7037
 IR Inten    --     44.8865                39.0686               138.3697

                     46                     47                     48
                      A                      A                      A
 Frequencies --   1155.0426              1181.6097              1227.8513
 Red. masses --      1.8383                 1.9879                 1.5416
 Frc consts  --      1.4450                 1.6353                 1.3693
 IR Inten    --     15.8647                81.6040                12.1408

                     49                     50                     51
                      A                      A                      A
 Frequencies --   1253.8082              1267.1932              1280.1382
 Red. masses --      1.5046                 1.8379                 1.4092
 Frc consts  --      1.3936                 1.7389                 1.3606
 IR Inten    --     11.3046                 6.5223                 5.3196

                     52                     53                     54
                      A                      A                      A
 Frequencies --   1285.8035              1294.4634              1330.9529
 Red. masses --      1.5756                 1.3239                 1.3980
 Frc consts  --      1.5347                 1.3071                 1.4591
 IR Inten    --     12.3502                 5.5570                 9.8245

                     55                     56                     57
                      A                      A                      A
 Frequencies --   1351.2926              1368.1106              1383.0792
 Red. masses --      1.8339                 1.4245                 1.2039
 Frc consts  --      1.9730                 1.5709                 1.3568
 IR Inten    --      5.3001                12.3443                 6.9306

                     58                     59                     60
                      A                      A                      A
 Frequencies --   1393.4739              1397.3913              1406.9786
 Red. masses --      1.2208                 2.7614                 2.6989
 Frc consts  --      1.3967                 3.1770                 3.1478
 IR Inten    --     16.6104                15.1373               205.8262

                     61                     62                     63
                      A                      A                      A
 Frequencies --   1457.0762              1485.7194              1487.0454
 Red. masses --      2.2474                 1.1353                 1.1843
 Frc consts  --      2.8113                 1.4765                 1.5430
 IR Inten    --     32.8255                 3.6637                19.2448

                     64                     65                     66
                      A                      A                      A
 Frequencies --   1504.4839              1508.5391              1552.3890
 Red. masses --      1.0922                 3.1765                 2.1970
 Frc consts  --      1.4566                 4.2590                 3.1194
 IR Inten    --      6.7744                18.2300               249.8454

                     67                     68                     69
                      A                      A                      A
 Frequencies --   1616.0974              1667.8157              1711.5043
 Red. masses --      3.8939                 1.0948                 8.0144
 Frc consts  --      5.9920                 1.7943                13.8318
 IR Inten    --      8.0885                36.1047               214.7163

                     70                     71                     72
                      A                      A                      A
 Frequencies --   1814.2104              3042.6118              3045.5823
 Red. masses --     10.0031                 1.0610                 1.0601
 Frc consts  --     19.3982                 5.7872                 5.7933
 IR Inten    --    293.2959                20.8397                12.2257

                     73                     74                     75
                      A                      A                      A
 Frequencies --   3060.1416              3083.0417              3095.1709
 Red. masses --      1.0635                 1.0997                 1.1008
 Frc consts  --      5.8678                 6.1585                 6.2131
 IR Inten    --     26.5528                 8.1820                 3.1978

                     76                     77                     78
                      A                      A                      A
 Frequencies --   3105.7902              3118.6220              3248.8535
 Red. masses --      1.0867                 1.1065                 1.0963
 Frc consts  --      6.1758                 6.3406                 6.8175
 IR Inten    --      7.0844                22.4107                 6.8290

                     79                     80                     81
                      A                      A                      A
 Frequencies --   3265.6331              3511.3410              3526.0819
 Red. masses --      1.0976                 1.0483                 1.0839
 Frc consts  --      6.8967                 7.6153                 7.9403
 IR Inten    --      1.0146                 0.9395               228.4210

                     82                     83                     84
                      A                      A                      A
 Frequencies --   3603.7311              3630.2699              3747.9591
 Red. masses --      1.0949                 1.0779                 1.0645
 Frc consts  --      8.3775                 8.3698                 8.8102
 IR Inten    --      1.9619                55.6833                89.9269

 - Thermochemistry -
 -------------------
 Temperature   298.150 Kelvin.  Pressure   1.00000 Atm.
 Atom     1 has atomic number  8 and mass  15.99491

 Molecular mass:   226.10659 amu.
 Principal axes and moments of inertia in atomic units:
                           1         2         3
     Eigenvalues --  3122.376294469.938056602.08629
           X            0.54237   0.83847  -0.05298
           Y           -0.51613   0.38229   0.76646
           Z            0.66291  -0.38836   0.64010
 This molecule is an asymmetric top.
 Rotational symmetry number  1.
 Warning -- assumption of classical behavior for rotation
           may cause significant error
 Rotational temperatures (Kelvin)      0.02774     0.01938     0.01312
 Rotational constants (GHZ):           0.57800     0.40375     0.27336
 Zero-point vibrational energy     643769.9 (Joules/Mol)
                                  153.86469 (Kcal/Mol)
 Warning -- explicit consideration of  22 degrees of freedom as
           vibrations may cause significant error
 Vibrational temperatures:     28.08    36.84    74.86    84.08   103.66
          (Kelvin)            120.69   141.85   204.30   235.92   257.35
                              286.60   390.39   423.54   438.18   458.40
                              491.48   565.20   652.88   729.78   759.39
                              868.58   892.30   902.00   942.01   963.63
                             1004.39  1014.12  1084.96  1112.20  1127.65
                             1147.13  1167.10  1203.32  1287.18  1345.70
                             1355.61  1405.39  1429.51  1448.70  1469.84
                             1501.81  1585.40  1598.33  1645.91  1656.46
                             1661.85  1700.07  1766.60  1803.95  1823.21
                             1841.83  1849.98  1862.44  1914.94  1944.21
                             1968.40  1989.94  2004.90  2010.53  2024.33
                             2096.41  2137.62  2139.52  2164.61  2170.45
                             2233.54  2325.20  2399.61  2462.47  2610.24
                             4377.63  4381.91  4402.86  4435.80  4453.25
                             4468.53  4487.00  4674.37  4698.51  5052.03
                             5073.24  5184.96  5223.14  5392.47

 Zero-point correction=                           0.245199 (Hartree/Particle)
 Thermal correction to Energy=                    0.261309
 Thermal correction to Enthalpy=                  0.262253
 Thermal correction to Gibbs Free Energy=         0.198752
 Sum of electronic and zero-point Energies=           -795.963508
 Sum of electronic and thermal Energies=              -795.947399
 Sum of electronic and thermal Enthalpies=            -795.946454
 Sum of electronic and thermal Free Energies=         -796.009956

                     E (Thermal)             CV                S
                      KCal/Mol        Cal/Mol-Kelvin    Cal/Mol-Kelvin
 Total                  163.974             58.400            133.650
 Electronic               0.000              0.000              0.000
 Translational            0.889              2.981             42.150
 Rotational               0.889              2.981             32.888
 Vibrational            162.196             52.438             58.612
 Vibration     1          0.593              1.986              6.683
 Vibration     2          0.593              1.985              6.144
 Vibration     3          0.596              1.977              4.739
 Vibration     4          0.596              1.974              4.509
 Vibration     5          0.598              1.967              4.097
 Vibration     6          0.601              1.960              3.798
 Vibration     7          0.604              1.950              3.482
 Vibration     8          0.615              1.911              2.777
 Vibration     9          0.623              1.887              2.503
 Vibration    10          0.629              1.868              2.340
 Vibration    11          0.637              1.841              2.140
 Vibration    12          0.675              1.726              1.588
 Vibration    13          0.689              1.684              1.449
 Vibration    14          0.695              1.665              1.392
 Vibration    15          0.705              1.638              1.317
 Vibration    16          0.721              1.592              1.205
 Vibration    17          0.760              1.486              0.989
 Vibration    18          0.812              1.353              0.784
 Vibration    19          0.862              1.234              0.640
 Vibration    20          0.883              1.188              0.592
 Vibration    21          0.962              1.024              0.443
 Vibration    22          0.980              0.989              0.416

 Optimization completed.
    -- Stationary point found.
 Normal termination of Gaussian 09 at Sat Jul 24 02:31:26 2021.
