 Gaussian 09, Revision D.01,
 Gaussian 09:  ES64L-G09RevD.01 24-Apr-2013

 ----------------------------------------------------------------------
 # B3LYP/6-31+G(d,p) EmpiricalDispersion=GD3BJ opt=calcfc freq=noraman
 nosymm integral(ultrafinegrid)
 ----------------------------------------------------------------------

 ------------------------------------------------------------
 Candidate Structure: Conf:338 OPT and FREQ calc in gas phase
 ------------------------------------------------------------
 Symbolic Z-matrix:
 Charge =  0 Multiplicity = 1

 SCF Done:  E(RB3LYP) =  -796.207483514     A.U. after   15 cycles
 SCF Done:  E(RB3LYP) =  -796.209787637     A.U. after   13 cycles
 SCF Done:  E(RB3LYP) =  -796.209934712     A.U. after   14 cycles
 SCF Done:  E(RB3LYP) =  -796.210086443     A.U. after   13 cycles
 SCF Done:  E(RB3LYP) =  -796.210159264     A.U. after   13 cycles
 SCF Done:  E(RB3LYP) =  -796.210490020     A.U. after   15 cycles
 SCF Done:  E(RB3LYP) =  -796.212710777     A.U. after   15 cycles
 SCF Done:  E(RB3LYP) =  -796.206265224     A.U. after   14 cycles
 SCF Done:  E(RB3LYP) =  -796.212838594     A.U. after   10 cycles
 SCF Done:  E(RB3LYP) =  -796.212984951     A.U. after   13 cycles
 SCF Done:  E(RB3LYP) =  -796.213449099     A.U. after   13 cycles
 SCF Done:  E(RB3LYP) =  -796.214525724     A.U. after   13 cycles
 SCF Done:  E(RB3LYP) =  -796.214808083     A.U. after   12 cycles
 SCF Done:  E(RB3LYP) =  -796.214917567     A.U. after   13 cycles
 SCF Done:  E(RB3LYP) =  -796.215095738     A.U. after   12 cycles
 SCF Done:  E(RB3LYP) =  -796.215108881     A.U. after   11 cycles
 SCF Done:  E(RB3LYP) =  -796.215111762     A.U. after   10 cycles
 SCF Done:  E(RB3LYP) =  -796.215112226     A.U. after    9 cycles
 SCF Done:  E(RB3LYP) =  -796.215112296     A.U. after    8 cycles
 Optimization completed.
    -- Stationary point found.
 Normal termination of Gaussian 09 at Sat Jul 24 02:34:21 2021.

 ----------------------------------------------------------------------
 #N Geom=AllCheck Guess=TCheck SCRF=Check GenChk RB3LYP/6-31+G(d,p) Fre
 q
 ----------------------------------------------------------------------

 Structure from the checkpoint file:  "conf-338.chk"
 ------------------------------------------------------------
 Candidate Structure: Conf:338 OPT and FREQ calc in gas phase
 ------------------------------------------------------------
 Charge =  0 Multiplicity = 1

                          Input orientation:
 ---------------------------------------------------------------------
 Center     Atomic      Atomic             Coordinates (Angstroms)
 Number     Number       Type             X           Y           Z
 ---------------------------------------------------------------------
      1          8           0        0.571632    0.520626    1.748169
      2          6           0        1.295381    0.053727    0.855059
      3          7           0        0.805696   -0.582697   -0.230550
      4          6           0       -0.617061   -0.776298   -0.420237
      5          6           0       -0.811403   -1.861662   -1.458968
      6          8           0       -2.095400   -2.273127   -1.502609
      7          8           0        0.053094   -2.299214   -2.189732
      8          6           0       -1.373798    0.537395   -0.855563
      9          6           0       -2.441063    0.958904    0.094517
     10          6           0       -3.794158    1.179605   -0.049909
     11          7           0       -4.354431    1.572948    1.147400
     12          6           0       -3.353783    1.585112    2.009842
     13          7           0       -2.175169    1.225646    1.423555
     14          6           0        2.813417    0.157437    0.957028
     15          6           0        3.574493    0.347908   -0.361269
     16          7           0        3.441606   -0.835667   -1.224765
     17          1           0        1.472698   -0.958761   -0.913679
     18          1           0       -1.059329   -1.124373    0.518216
     19          1           0       -2.166731   -2.937841   -2.208572
     20          1           0       -1.825191    0.407652   -1.842776
     21          1           0       -0.608083    1.314590   -0.956420
     22          1           0       -4.389319    1.076227   -0.946713
     23          1           0       -3.426774    1.843022    3.056856
     24          1           0       -1.252492    1.107576    1.842157
     25          1           0        3.017631    0.992638    1.631326
     26          1           0        3.174531   -0.748607    1.463601
     27          1           0        3.153792    1.201797   -0.903710
     28          1           0        4.619311    0.599336   -0.126715
     29          1           0        3.961782   -1.625814   -0.851456
     30          1           0        3.789055   -0.658040   -2.162302
 ---------------------------------------------------------------------

 SCF Done:  E(RB3LYP) =  -796.215112296     A.U. after    1 cycles

 Alpha  occ. eigenvalues --  -19.22881 -19.17495 -19.14031 -14.37418 -14.37200
 Alpha  occ. eigenvalues --  -14.35683 -14.30532 -10.35100 -10.30861 -10.26231
 Alpha  occ. eigenvalues --  -10.24528 -10.22799 -10.21729 -10.21615 -10.21235
 Alpha  occ. eigenvalues --  -10.18900  -1.13791  -1.05509  -1.04787  -1.00042
 Alpha  occ. eigenvalues --   -0.94633  -0.91679  -0.85802  -0.81247  -0.77766
 Alpha  occ. eigenvalues --   -0.74357  -0.68301  -0.66464  -0.63248  -0.59931
 Alpha  occ. eigenvalues --   -0.59432  -0.57683  -0.54642  -0.53793  -0.52701
 Alpha  occ. eigenvalues --   -0.51337  -0.49643  -0.48322  -0.48085  -0.47638
 Alpha  occ. eigenvalues --   -0.46344  -0.44471  -0.43118  -0.42931  -0.42161
 Alpha  occ. eigenvalues --   -0.41345  -0.40028  -0.39751  -0.39436  -0.39057
 Alpha  occ. eigenvalues --   -0.38573  -0.36550  -0.35043  -0.31010  -0.28420
 Alpha  occ. eigenvalues --   -0.28092  -0.27378  -0.26780  -0.25712  -0.21649
 Alpha virt. eigenvalues --   -0.02665  -0.01897  -0.01053   0.00055   0.00782
 Alpha virt. eigenvalues --    0.01472   0.01675   0.02589   0.03024   0.03340
 Alpha virt. eigenvalues --    0.04199   0.04986   0.05393   0.05833   0.06224

 Mulliken charges:
               1
     1  O   -0.562914
     2  C    0.438043
     3  N   -0.217949
     4  C   -0.626122
     5  C    0.657518
     6  O   -0.404392
     7  O   -0.442751
     8  C   -0.740523
     9  C    0.532759
    10  C   -0.200150
    11  N   -0.297997
    12  C    0.263924
    13  N   -0.328491
    14  C   -0.287414
    15  C   -0.218414
    16  N   -0.707564
    17  H    0.395496
    18  H    0.189078
    19  H    0.377939
    20  H    0.158900
    21  H    0.175394
    22  H    0.119584
    23  H    0.129711
    24  H    0.365125
    25  H    0.177015
    26  H    0.167961
    27  H    0.152274
    28  H    0.138595
    29  H    0.296919
    30  H    0.298446
 Sum of Mulliken charges =   0.00000

 Dipole moment (field-independent basis, Debye):
    X=              7.0179    Y=             -2.1577    Z=             -2.5763  Tot=              7.7810
 Quadrupole moment (field-independent basis, Debye-Ang):
   XX=           -101.9994   YY=            -96.1177   ZZ=            -93.3439
   XY=             10.7402   XZ=              6.8493   YZ=             -1.6589

  Exact polarizability: 176.595 -11.571 117.831  -8.727  24.045 141.283
 Approx polarizability: 231.789 -13.482 168.255 -10.484  29.168 217.328

                      1                      2                      3
                      A                      A                      A
 Frequencies --     19.5019                46.2456                52.9152
 Red. masses --      4.7724                 6.9068                 7.3528
 Frc consts  --      0.0011                 0.0087                 0.0121
 IR Inten    --      0.5685                 2.0090                 2.8537

                      4                      5                      6
                      A                      A                      A
 Frequencies --     70.3430                77.0947                98.9034
 Red. masses --      3.4342                 4.6447                 4.4630
 Frc consts  --      0.0100                 0.0163                 0.0257
 IR Inten    --      0.3448                 0.6011                 7.0860

                      7                      8                      9
                      A                      A                      A
 Frequencies --    111.9907               123.7224               182.6661
 Red. masses --      6.3165                 6.0794                 2.7320
 Frc consts  --      0.0467                 0.0548                 0.0537
 IR Inten    --      5.6603                 4.2105                 5.8438

                     10                     11                     12
                      A                      A                      A
 Frequencies --    195.0513               237.8576               284.2207
 Red. masses --      5.0471                 3.7011                 3.9310
 Frc consts  --      0.1131                 0.1234                 0.1871
 IR Inten    --      3.0357                 5.4569                 4.0345

                     13                     14                     15
                      A                      A                      A
 Frequencies --    304.2290               308.1419               331.9898
 Red. masses --      2.5914                 1.4913                 4.3450
 Frc consts  --      0.1413                 0.0834                 0.2822
 IR Inten    --      0.5754                13.8977                 0.3800

                     16                     17                     18
                      A                      A                      A
 Frequencies --    355.3055               413.7897               465.0019
 Red. masses --      4.0142                 3.5208                 2.5756
 Frc consts  --      0.2986                 0.3552                 0.3281
 IR Inten    --      4.6533                 7.4145                26.6792

                     19                     20                     21
                      A                      A                      A
 Frequencies --    516.2599               591.2612               612.0722
 Red. masses --      3.2398                 1.4903                 3.4191
 Frc consts  --      0.5088                 0.3070                 0.7547
 IR Inten    --     38.5722                89.2543                 4.9583

                     22                     23                     24
                      A                      A                      A
 Frequencies --    632.5466               645.1728               671.0362
 Red. masses --      3.6025                 3.7526                 3.6859
 Frc consts  --      0.8493                 0.9203                 0.9779
 IR Inten    --     28.7007                 5.0449                46.4802

                     25                     26                     27
                      A                      A                      A
 Frequencies --    693.9570               719.0667               772.8142
 Red. masses --      3.5003                 3.4192                 4.0450
 Frc consts  --      0.9932                 1.0416                 1.4234
 IR Inten    --     19.6644                15.9987                 3.5725

                     28                     29                     30
                      A                      A                      A
 Frequencies --    788.6787               811.1807               812.9875
 Red. masses --      1.0874                 1.3227                 1.3377
 Frc consts  --      0.3985                 0.5128                 0.5209
 IR Inten    --     31.7649                41.5735                47.1024

                     31                     32                     33
                      A                      A                      A
 Frequencies --    837.3398               857.9912               859.3955
 Red. masses --      1.3592                 1.8738                 1.5639
 Frc consts  --      0.5615                 0.8127                 0.6805
 IR Inten    --     30.8993                17.9900                90.3811

                     34                     35                     36
                      A                      A                      A
 Frequencies --    900.6021               913.8185               943.2925
 Red. masses --      2.3041                 1.9802                 5.8804
 Frc consts  --      1.1011                 0.9743                 3.0828
 IR Inten    --     19.2507                17.1672                15.9944

                     37                     38                     39
                      A                      A                      A
 Frequencies --    966.0189               983.2601              1008.7325
 Red. masses --      3.1706                 2.8869                 1.7340
 Frc consts  --      1.7433                 1.6444                 1.0396
 IR Inten    --     11.3019                 3.3924                 8.8200

                     40                     41                     42
                      A                      A                      A
 Frequencies --   1027.1194              1030.5139              1087.9526
 Red. masses --      3.5293                 2.7172                 2.6351
 Frc consts  --      2.1937                 1.7001                 1.8377
 IR Inten    --      0.7158                41.1350                 7.8221

                     43                     44                     45
                      A                      A                      A
 Frequencies --   1134.1775              1138.9710              1152.4277
 Red. masses --      2.5750                 1.8264                 1.8862
 Frc consts  --      1.9516                 1.3960                 1.4759
 IR Inten    --     48.0301                59.3761                 8.9826

                     46                     47                     48
                      A                      A                      A
 Frequencies --   1155.9785              1177.0447              1209.9762
 Red. masses --      1.4980                 2.4019                 1.2854
 Frc consts  --      1.1794                 1.9606                 1.1087
 IR Inten    --     24.8645               158.2383                 6.3927

                     49                     50                     51
                      A                      A                      A
 Frequencies --   1265.7351              1269.4513              1278.0826
 Red. masses --      1.3995                 1.9572                 1.4566
 Frc consts  --      1.3210                 1.8583                 1.4019
 IR Inten    --     12.4129                11.6574                 8.6831

                     52                     53                     54
                      A                      A                      A
 Frequencies --   1288.3687              1309.6700              1310.9864
 Red. masses --      1.3712                 1.4867                 1.3437
 Frc consts  --      1.3410                 1.5024                 1.3607
 IR Inten    --     13.1243                 2.5564                 2.8133

                     55                     56                     57
                      A                      A                      A
 Frequencies --   1326.5777              1360.0444              1373.0295
 Red. masses --      1.4546                 1.4392                 1.4588
 Frc consts  --      1.5082                 1.5685                 1.6204
 IR Inten    --     14.4214                24.9745                 8.6231

                     58                     59                     60
                      A                      A                      A
 Frequencies --   1393.3651              1413.6652              1424.2542
 Red. masses --      4.2041                 1.9274                 1.6711
 Frc consts  --      4.8090                 2.2694                 1.9973
 IR Inten    --     19.1368                53.0678                40.5309

                     61                     62                     63
                      A                      A                      A
 Frequencies --   1449.4903              1468.0839              1481.7096
 Red. masses --      2.4256                 1.0823                 1.1503
 Frc consts  --      3.0026                 1.3743                 1.4880
 IR Inten    --     84.2893                13.7184                15.8555

                     64                     65                     66
                      A                      A                      A
 Frequencies --   1507.6219              1515.2726              1579.3665
 Red. masses --      3.4268                 1.0883                 2.1827
 Frc consts  --      4.5890                 1.4722                 3.2079
 IR Inten    --     30.1944                 6.1623               342.6402

                     67                     68                     69
                      A                      A                      A
 Frequencies --   1617.9885              1660.2233              1707.2011
 Red. masses --      4.3184                 1.0912                 8.2126
 Frc consts  --      6.6607                 1.7721                14.1026
 IR Inten    --     22.4858                41.6063               355.9910

                     70                     71                     72
                      A                      A                      A
 Frequencies --   1813.4835              3000.6121              3035.2497
 Red. masses --      9.9032                 1.0706                 1.0705
 Frc consts  --     19.1890                 5.6793                 5.8109
 IR Inten    --    310.9724                79.8167                 7.4886

                     73                     74                     75
                      A                      A                      A
 Frequencies --   3052.5413              3078.6156              3084.8815
 Red. masses --      1.0650                 1.0932                 1.0843
 Frc consts  --      5.8469                 6.1048                 6.0797
 IR Inten    --     21.7362                26.7942                10.2620

                     76                     77                     78
                      A                      A                      A
 Frequencies --   3110.0276              3121.8571              3250.3768
 Red. masses --      1.0992                 1.0933                 1.0961
 Frc consts  --      6.2640                 6.2782                 6.8229
 IR Inten    --     10.2645                 7.4176                 8.3551

                     79                     80                     81
                      A                      A                      A
 Frequencies --   3263.5149              3365.2822              3486.6648
 Red. masses --      1.0975                 1.0826                 1.0857
 Frc consts  --      6.8869                 7.2240                 7.7765
 IR Inten    --      1.5198               435.7484               450.1917

                     82                     83                     84
                      A                      A                      A
 Frequencies --   3513.6817              3603.5799              3755.9762
 Red. masses --      1.0503                 1.0936                 1.0645
 Frc consts  --      7.6401                 8.3673                 8.8481
 IR Inten    --      0.5563                 6.6039                84.6826

 - Thermochemistry -
 -------------------
 Temperature   298.150 Kelvin.  Pressure   1.00000 Atm.
 Atom     1 has atomic number  8 and mass  15.99491

 Molecular mass:   226.10659 amu.
 Principal axes and moments of inertia in atomic units:
                           1         2         3
     Eigenvalues --  2342.520915386.644417213.86310
           X            0.94485   0.32332   0.05219
           Y           -0.26031   0.64470   0.71875
           Z           -0.19874   0.69270  -0.69331
 This molecule is an asymmetric top.
 Rotational symmetry number  1.
 Warning -- assumption of classical behavior for rotation
           may cause significant error
 Rotational temperatures (Kelvin)      0.03697     0.01608     0.01201
 Rotational constants (GHZ):           0.77043     0.33504     0.25018
 Zero-point vibrational energy     645188.8 (Joules/Mol)
                                  154.20383 (Kcal/Mol)
 Warning -- explicit consideration of  21 degrees of freedom as
           vibrations may cause significant error
 Vibrational temperatures:     28.06    66.54    76.13   101.21   110.92
          (Kelvin)            142.30   161.13   178.01   262.82   280.63
                              342.22   408.93   437.72   443.35   477.66
                              511.20   595.35   669.03   742.78   850.69
                              880.63   910.09   928.26   965.47   998.45
                             1034.58  1111.91  1134.73  1167.11  1169.71
                             1204.74  1234.46  1236.48  1295.76  1314.78
                             1357.19  1389.88  1414.69  1451.34  1477.79
                             1482.68  1565.32  1631.83  1638.72  1658.08
                             1663.19  1693.50  1740.88  1821.11  1826.46
                             1838.87  1853.67  1884.32  1886.21  1908.65
                             1956.80  1975.48  2004.74  2033.95  2049.18
                             2085.49  2112.24  2131.85  2169.13  2180.14
                             2272.35  2327.92  2388.69  2456.28  2609.20
                             4317.21  4367.04  4391.92  4429.44  4438.45
                             4474.63  4491.65  4676.56  4695.46  4841.88
                             5016.53  5055.40  5184.74  5404.01

 Zero-point correction=                           0.245739 (Hartree/Particle)
 Thermal correction to Energy=                    0.261370
 Thermal correction to Enthalpy=                  0.262314
 Thermal correction to Gibbs Free Energy=         0.200523
 Sum of electronic and zero-point Energies=           -795.969373
 Sum of electronic and thermal Energies=              -795.953742
 Sum of electronic and thermal Enthalpies=            -795.952798
 Sum of electronic and thermal Free Energies=         -796.014589

                     E (Thermal)             CV                S
                      KCal/Mol        Cal/Mol-Kelvin    Cal/Mol-Kelvin
 Total                  164.012             57.341            130.050
 Electronic               0.000              0.000              0.000
 Translational            0.889              2.981             42.150
 Rotational               0.889              2.981             32.876
 Vibrational            162.235             51.379             55.024
 Vibration     1          0.593              1.986              6.684
 Vibration     2          0.595              1.979              4.972
 Vibration     3          0.596              1.976              4.705
 Vibration     4          0.598              1.968              4.144
 Vibration     5          0.599              1.964              3.964
 Vibration     6          0.604              1.950              3.476
 Vibration     7          0.607              1.940              3.234
 Vibration     8          0.610              1.929              3.041
 Vibration     9          0.630              1.863              2.301
 Vibration    10          0.636              1.847              2.179
 Vibration    11          0.656              1.783              1.819
 Vibration    12          0.683              1.703              1.508
 Vibration    13          0.695              1.666              1.394
 Vibration    14          0.698              1.658              1.372
 Vibration    15          0.714              1.612              1.250
 Vibration    16          0.731              1.564              1.143
 Vibration    17          0.777              1.440              0.913
 Vibration    18          0.822              1.328              0.752
 Vibration    19          0.871              1.214              0.619
 Vibration    20          0.949              1.050              0.465
 Vibration    21          0.971              1.006              0.429

 Optimization completed.
    -- Stationary point found.
 Normal termination of Gaussian 09 at Sat Jul 24 03:20:57 2021.
