 Gaussian 09, Revision D.01,
 Gaussian 09:  ES64L-G09RevD.01 24-Apr-2013

 ----------------------------------------------------------------------
 # B3LYP/6-31+G(d,p) EmpiricalDispersion=GD3BJ opt=calcfc freq=noraman
 nosymm integral(ultrafinegrid)
 ----------------------------------------------------------------------

 ------------------------------------------------------------
 Candidate Structure: Conf:591 OPT and FREQ calc in gas phase
 ------------------------------------------------------------
 Symbolic Z-matrix:
 Charge =  0 Multiplicity = 1

 SCF Done:  E(RB3LYP) =  -796.200889571     A.U. after   15 cycles
 SCF Done:  E(RB3LYP) =  -796.203389127     A.U. after   13 cycles
 SCF Done:  E(RB3LYP) =  -796.203383014     A.U. after   13 cycles
 SCF Done:  E(RB3LYP) =  -796.200070129     A.U. after   16 cycles
 SCF Done:  E(RB3LYP) =  -796.203755415     A.U. after   13 cycles
 SCF Done:  E(RB3LYP) =  -796.204037653     A.U. after   13 cycles
 SCF Done:  E(RB3LYP) =  -796.204221471     A.U. after   13 cycles
 SCF Done:  E(RB3LYP) =  -796.205310934     A.U. after   15 cycles
 SCF Done:  E(RB3LYP) =  -796.203800017     A.U. after   15 cycles
 SCF Done:  E(RB3LYP) =  -796.207073210     A.U. after   12 cycles
 SCF Done:  E(RB3LYP) =  -796.208281909     A.U. after   13 cycles
 SCF Done:  E(RB3LYP) =  -796.208716503     A.U. after   12 cycles
 SCF Done:  E(RB3LYP) =  -796.208934700     A.U. after   12 cycles
 SCF Done:  E(RB3LYP) =  -796.208905771     A.U. after   12 cycles
 SCF Done:  E(RB3LYP) =  -796.209036882     A.U. after   12 cycles
 SCF Done:  E(RB3LYP) =  -796.209044028     A.U. after   10 cycles
 SCF Done:  E(RB3LYP) =  -796.209045251     A.U. after   10 cycles
 SCF Done:  E(RB3LYP) =  -796.209045464     A.U. after   10 cycles
 SCF Done:  E(RB3LYP) =  -796.209045491     A.U. after    8 cycles
 Optimization completed.
    -- Stationary point found.
 Normal termination of Gaussian 09 at Sat Jul 24 02:34:32 2021.

 ----------------------------------------------------------------------
 #N Geom=AllCheck Guess=TCheck SCRF=Check GenChk RB3LYP/6-31+G(d,p) Fre
 q
 ----------------------------------------------------------------------

 Structure from the checkpoint file:  "conf-591.chk"
 ------------------------------------------------------------
 Candidate Structure: Conf:591 OPT and FREQ calc in gas phase
 ------------------------------------------------------------
 Charge =  0 Multiplicity = 1

                          Input orientation:
 ---------------------------------------------------------------------
 Center     Atomic      Atomic             Coordinates (Angstroms)
 Number     Number       Type             X           Y           Z
 ---------------------------------------------------------------------
      1          8           0       -0.815587    0.253868   -1.020021
      2          6           0       -1.276462    0.121817    0.122122
      3          7           0       -0.499372   -0.226223    1.176375
      4          6           0        0.919754   -0.495479    1.042434
      5          6           0        1.359922   -1.227347    2.294548
      6          8           0        2.610104   -1.708124    2.175539
      7          8           0        0.686580   -1.349821    3.298582
      8          6           0        1.783720    0.804274    0.824136
      9          6           0        2.553887    0.803697   -0.450915
     10          6           0        3.900057    0.891376   -0.734155
     11          7           0        4.115093    0.851647   -2.095658
     12          6           0        2.914042    0.735363   -2.632738
     13          7           0        1.935055    0.705128   -1.682294
     14          6           0       -2.747574    0.335960    0.415353
     15          6           0       -3.634154   -0.557228   -0.464144
     16          7           0       -5.044735   -0.287509   -0.171544
     17          1           0       -0.903381   -0.368788    2.094134
     18          1           0        1.079519   -1.158885    0.186800
     19          1           0        2.845872   -2.136074    3.016447
     20          1           0        2.487889    0.934398    1.649964
     21          1           0        1.087827    1.649432    0.863620
     22          1           0        4.718959    0.981076   -0.033831
     23          1           0        2.699459    0.670283   -3.689990
     24          1           0        0.929306    0.586191   -1.794155
     25          1           0       -2.984858    0.160480    1.468979
     26          1           0       -2.969067    1.388549    0.198122
     27          1           0       -3.437240   -1.607612   -0.220867
     28          1           0       -3.350404   -0.407022   -1.514909
     29          1           0       -5.645545   -0.971599   -0.621886
     30          1           0       -5.318645    0.628309   -0.519404
 ---------------------------------------------------------------------

 SCF Done:  E(RB3LYP) =  -796.209045491     A.U. after    1 cycles

 Alpha  occ. eigenvalues --  -19.23969 -19.18680 -19.15039 -14.39453 -14.37853
 Alpha  occ. eigenvalues --  -14.33741 -14.31078 -10.36263 -10.31913 -10.27349
 Alpha  occ. eigenvalues --  -10.23379 -10.23115 -10.22488 -10.21851 -10.21452
 Alpha  occ. eigenvalues --  -10.19486  -1.14960  -1.06701  -1.05953  -1.00650
 Alpha  occ. eigenvalues --   -0.95913  -0.90121  -0.86420  -0.82137  -0.77768
 Alpha  occ. eigenvalues --   -0.74986  -0.69098  -0.66655  -0.62786  -0.61470
 Alpha  occ. eigenvalues --   -0.60414  -0.58348  -0.54949  -0.54654  -0.52562
 Alpha  occ. eigenvalues --   -0.50971  -0.50792  -0.49625  -0.48918  -0.46989
 Alpha  occ. eigenvalues --   -0.46267  -0.45374  -0.44071  -0.43396  -0.42272
 Alpha  occ. eigenvalues --   -0.41405  -0.40373  -0.40163  -0.39889  -0.39442
 Alpha  occ. eigenvalues --   -0.38541  -0.36256  -0.36073  -0.32242  -0.29447
 Alpha  occ. eigenvalues --   -0.28990  -0.27403  -0.26330  -0.25548  -0.22270
 Alpha virt. eigenvalues --   -0.03728  -0.01941  -0.01221  -0.00500   0.00389
 Alpha virt. eigenvalues --    0.01246   0.01496   0.02222   0.02697   0.03863
 Alpha virt. eigenvalues --    0.03899   0.04519   0.04722   0.05329   0.06077

 Mulliken charges:
               1
     1  O   -0.563206
     2  C    0.551675
     3  N   -0.249599
     4  C   -0.680501
     5  C    0.662667
     6  O   -0.404692
     7  O   -0.456668
     8  C   -0.612129
     9  C    0.403406
    10  C   -0.156396
    11  N   -0.298961
    12  C    0.259272
    13  N   -0.325391
    14  C   -0.297894
    15  C   -0.278944
    16  N   -0.599092
    17  H    0.329665
    18  H    0.194613
    19  H    0.381846
    20  H    0.160873
    21  H    0.179378
    22  H    0.121378
    23  H    0.131212
    24  H    0.364295
    25  H    0.150684
    26  H    0.166400
    27  H    0.140079
    28  H    0.160629
    29  H    0.287487
    30  H    0.277914
 Sum of Mulliken charges =   0.00000

 Dipole moment (field-independent basis, Debye):
    X=             -3.9265    Y=             -1.1084    Z=              2.3064  Tot=              4.6868
 Quadrupole moment (field-independent basis, Debye-Ang):
   XX=           -106.8641   YY=            -92.9118   ZZ=            -98.4645
   XY=             -7.3902   XZ=             24.0317   YZ=              1.9007

  Exact polarizability: 176.528   2.077 105.078  -8.097 -11.469 155.330
 Approx polarizability: 226.996  -0.947 154.237 -12.289  -8.803 233.982

                      1                      2                      3
                      A                      A                      A
 Frequencies --     15.4739                36.9273                51.8634
 Red. masses --      3.3241                 5.9475                 4.4901
 Frc consts  --      0.0005                 0.0048                 0.0071
 IR Inten    --      1.3950                 1.4762                 1.3700

                      4                      5                      6
                      A                      A                      A
 Frequencies --     58.3000                73.7479                79.6653
 Red. masses --      8.8151                 2.6811                 4.1211
 Frc consts  --      0.0177                 0.0086                 0.0154
 IR Inten    --      1.4260                 1.8592                 0.8501

                      7                      8                      9
                      A                      A                      A
 Frequencies --     91.4463               128.4924               138.1734
 Red. masses --      6.4398                 5.9758                 4.1568
 Frc consts  --      0.0317                 0.0581                 0.0468
 IR Inten    --      9.2635                 3.1983                 9.6668

                     10                     11                     12
                      A                      A                      A
 Frequencies --    188.8400               226.8759               239.9191
 Red. masses --      5.0436                 2.8913                 1.5002
 Frc consts  --      0.1060                 0.0877                 0.0509
 IR Inten    --      2.1000                 9.3168                47.6063

                     13                     14                     15
                      A                      A                      A
 Frequencies --    283.0893               293.0340               315.2126
 Red. masses --      3.4092                 3.2728                 3.5173
 Frc consts  --      0.1610                 0.1656                 0.2059
 IR Inten    --     12.5912                 6.4834                 3.7282

                     16                     17                     18
                      A                      A                      A
 Frequencies --    355.1770               393.4531               425.6200
 Red. masses --      6.6760                 4.1819                 3.5489
 Frc consts  --      0.4962                 0.3814                 0.3788
 IR Inten    --      0.5302                 6.2724                 3.6160

                     19                     20                     21
                      A                      A                      A
 Frequencies --    530.7824               563.5696               593.2560
 Red. masses --      2.4052                 1.5123                 1.4449
 Frc consts  --      0.3992                 0.2830                 0.2996
 IR Inten    --     69.4100                36.2368                85.6062

                     22                     23                     24
                      A                      A                      A
 Frequencies --    630.5971               643.6432               651.1062
 Red. masses --      3.9546                 3.8431                 2.3397
 Frc consts  --      0.9265                 0.9380                 0.5844
 IR Inten    --     25.8116                 5.4572                 5.4050

                     25                     26                     27
                      A                      A                      A
 Frequencies --    670.5819               717.6556               755.7725
 Red. masses --      3.6128                 3.4607                 5.3647
 Frc consts  --      0.9572                 1.0501                 1.8054
 IR Inten    --     48.6171                22.0785                11.7623

                     28                     29                     30
                      A                      A                      A
 Frequencies --    778.0734               781.9283               797.0801
 Red. masses --      1.2274                 2.6234                 1.2666
 Frc consts  --      0.4378                 0.9450                 0.4741
 IR Inten    --     40.4602                11.2131                22.1907

                     31                     32                     33
                      A                      A                      A
 Frequencies --    813.3425               836.6923               839.1651
 Red. masses --      1.4117                 1.3190                 1.3395
 Frc consts  --      0.5502                 0.5440                 0.5557
 IR Inten    --     28.6830               132.4952                34.1869

                     34                     35                     36
                      A                      A                      A
 Frequencies --    869.0705               942.8881               948.1053
 Red. masses --      2.4699                 5.8754                 3.4119
 Frc consts  --      1.0991                 3.0776                 1.8070
 IR Inten    --     17.2210                14.2507                 6.7831

                     37                     38                     39
                      A                      A                      A
 Frequencies --    975.2541               986.4825              1026.5655
 Red. masses --      2.7964                 2.9080                 3.2133
 Frc consts  --      1.5670                 1.6673                 1.9951
 IR Inten    --      1.9405                 3.7943                10.6135

                     40                     41                     42
                      A                      A                      A
 Frequencies --   1027.2734              1052.8877              1089.3187
 Red. masses --      3.5260                 2.2254                 2.7637
 Frc consts  --      2.1923                 1.4535                 1.9322
 IR Inten    --     15.9319                 1.7604                50.7031

                     43                     44                     45
                      A                      A                      A
 Frequencies --   1134.1324              1137.5367              1152.4266
 Red. masses --      2.4435                 1.7876                 1.9592
 Frc consts  --      1.8518                 1.3629                 1.5331
 IR Inten    --     37.7642                46.3318                 6.2330

                     46                     47                     48
                      A                      A                      A
 Frequencies --   1155.9126              1182.9400              1208.0819
 Red. masses --      1.4477                 2.3338                 1.2717
 Frc consts  --      1.1397                 1.9242                 1.0935
 IR Inten    --     44.2224               153.1767                 5.7186

                     49                     50                     51
                      A                      A                      A
 Frequencies --   1238.8543              1268.7989              1277.3950
 Red. masses --      1.5043                 1.9603                 1.5209
 Frc consts  --      1.3603                 1.8594                 1.4622
 IR Inten    --     16.4023                 8.9207                 8.6299

                     52                     53                     54
                      A                      A                      A
 Frequencies --   1288.5713              1300.8783              1315.1797
 Red. masses --      1.3441                 1.3464                 1.2338
 Frc consts  --      1.3149                 1.3424                 1.2574
 IR Inten    --      8.8604                 4.8610                 1.1459

                     55                     56                     57
                      A                      A                      A
 Frequencies --   1329.0559              1359.8668              1363.3539
 Red. masses --      1.3288                 1.4374                 1.4368
 Frc consts  --      1.3829                 1.5661                 1.5735
 IR Inten    --      6.0723                41.4604                 2.5657

                     58                     59                     60
                      A                      A                      A
 Frequencies --   1393.7459              1420.3207              1425.3581
 Red. masses --      4.2439                 2.2336                 1.5269
 Frc consts  --      4.8572                 2.6548                 1.8277
 IR Inten    --     20.5890                67.7288                82.0201

                     61                     62                     63
                      A                      A                      A
 Frequencies --   1448.2890              1481.3893              1485.8548
 Red. masses --      2.4782                 1.1432                 1.1226
 Frc consts  --      3.0626                 1.4782                 1.4602
 IR Inten    --     79.1061                15.4634                11.1584

                     64                     65                     66
                      A                      A                      A
 Frequencies --   1507.6111              1524.1137              1549.8890
 Red. masses --      3.4282                 1.0858                 2.5350
 Frc consts  --      4.5909                 1.4860                 3.5879
 IR Inten    --     30.7371                 2.2461               320.0214

                     67                     68                     69
                      A                      A                      A
 Frequencies --   1618.0046              1666.1067              1712.9705
 Red. masses --      4.3476                 1.0908                 8.5192
 Frc consts  --      6.7059                 1.7840                14.7281
 IR Inten    --     14.7120                38.4542               253.1020

                     70                     71                     72
                      A                      A                      A
 Frequencies --   1806.9325              3017.1988              3046.0069
 Red. masses --      9.8120                 1.0641                 1.0651
 Frc consts  --     18.8753                 5.7073                 5.8223
 IR Inten    --    324.2934                32.1378                 9.4053

                     73                     74                     75
                      A                      A                      A
 Frequencies --   3055.8001              3071.0108              3085.1014
 Red. masses --      1.0649                 1.0954                 1.0842
 Frc consts  --      5.8586                 6.0869                 6.0802
 IR Inten    --     19.8011                19.5740                 7.7313

                     76                     77                     78
                      A                      A                      A
 Frequencies --   3107.2413              3113.1120              3251.2427
 Red. masses --      1.1028                 1.0996                 1.0962
 Frc consts  --      6.2734                 6.2787                 6.8269
 IR Inten    --     22.7522                 9.7137                 7.8174

                     79                     80                     81
                      A                      A                      A
 Frequencies --   3264.0923              3505.7883              3507.5405
 Red. masses --      1.0976                 1.0500                 1.0851
 Frc consts  --      6.8900                 7.6036                 7.8651
 IR Inten    --      1.3155                 0.4355               446.0922

                     82                     83                     84
                      A                      A                      A
 Frequencies --   3596.5482              3603.5980              3753.4045
 Red. masses --      1.0933                 1.0783                 1.0646
 Frc consts  --      8.3319                 8.2505                 8.8363
 IR Inten    --      2.2669                84.9989                93.9433

 - Thermochemistry -
 -------------------
 Temperature   298.150 Kelvin.  Pressure   1.00000 Atm.
 Atom     1 has atomic number  8 and mass  15.99491

 Molecular mass:   226.10659 amu.
 Principal axes and moments of inertia in atomic units:
                           1         2         3
     Eigenvalues --  2671.226285920.573188187.70957
           X            0.98737   0.15353  -0.03919
           Y            0.09771  -0.39520   0.91338
           Z           -0.12474   0.90567   0.40521
 This molecule is an asymmetric top.
 Rotational symmetry number  1.
 Warning -- assumption of classical behavior for rotation
           may cause significant error
 Rotational temperatures (Kelvin)      0.03242     0.01463     0.01058
 Rotational constants (GHZ):           0.67562     0.30483     0.22042
 Zero-point vibrational energy     643876.0 (Joules/Mol)
                                  153.89005 (Kcal/Mol)
 Warning -- explicit consideration of  21 degrees of freedom as
           vibrations may cause significant error
 Vibrational temperatures:     22.26    53.13    74.62    83.88   106.11
          (Kelvin)            114.62   131.57   184.87   198.80   271.70
                              326.42   345.19   407.30   421.61   453.52
                              511.02   566.09   612.37   763.68   810.85
                              853.56   907.29   926.06   936.80   964.82
                             1032.55  1087.39  1119.47  1125.02  1146.82
                             1170.22  1203.81  1207.37  1250.40  1356.60
                             1364.11  1403.17  1419.33  1477.00  1478.02
                             1514.87  1567.28  1631.76  1636.66  1658.08
                             1663.10  1701.98  1738.16  1782.43  1825.52
                             1837.88  1853.96  1871.67  1892.25  1912.21
                             1956.54  1961.56  2005.29  2043.52  2050.77
                             2083.76  2131.39  2137.81  2169.11  2192.86
                             2229.94  2327.94  2397.15  2464.58  2599.77
                             4341.07  4382.52  4396.61  4418.49  4438.77
                             4470.62  4479.07  4677.81  4696.29  5044.04
                             5046.56  5174.62  5184.77  5400.31

 Zero-point correction=                           0.245239 (Hartree/Particle)
 Thermal correction to Energy=                    0.261353
 Thermal correction to Enthalpy=                  0.262297
 Thermal correction to Gibbs Free Energy=         0.198529
 Sum of electronic and zero-point Energies=           -795.963806
 Sum of electronic and thermal Energies=              -795.947693
 Sum of electronic and thermal Enthalpies=            -795.946749
 Sum of electronic and thermal Free Energies=         -796.010516

                     E (Thermal)             CV                S
                      KCal/Mol        Cal/Mol-Kelvin    Cal/Mol-Kelvin
 Total                  164.001             58.108            134.210
 Electronic               0.000              0.000              0.000
 Translational            0.889              2.981             42.150
 Rotational               0.889              2.981             33.226
 Vibrational            162.224             52.146             58.834
 Vibration     1          0.593              1.986              7.144
 Vibration     2          0.594              1.982              5.417
 Vibration     3          0.596              1.977              4.745
 Vibration     4          0.596              1.974              4.514
 Vibration     5          0.599              1.966              4.051
 Vibration     6          0.600              1.963              3.899
 Vibration     7          0.602              1.955              3.629
 Vibration     8          0.611              1.925              2.968
 Vibration     9          0.614              1.915              2.829
 Vibration    10          0.633              1.855              2.239
 Vibration    11          0.651              1.800              1.904
 Vibration    12          0.657              1.779              1.803
 Vibration    13          0.682              1.705              1.515
 Vibration    14          0.688              1.687              1.456
 Vibration    15          0.703              1.645              1.335
 Vibration    16          0.731              1.565              1.143
 Vibration    17          0.761              1.484              0.987
 Vibration    18          0.787              1.415              0.873
 Vibration    19          0.886              1.182              0.585
 Vibration    20          0.919              1.110              0.517
 Vibration    21          0.951              1.046              0.461

 Normal termination of Gaussian 09 at Sat Jul 24 03:14:11 2021.
