 Gaussian 09, Revision D.01,
 Gaussian 09:  ES64L-G09RevD.01 24-Apr-2013

 ----------------------------------------------------------------------
 # B3LYP/6-31+G(d,p) EmpiricalDispersion=GD3BJ opt=calcfc freq=noraman
 nosymm integral(ultrafinegrid)
 ----------------------------------------------------------------------

 ------------------------------------------------------------
 Candidate Structure: Conf:340 OPT and FREQ calc in gas phase
 ------------------------------------------------------------
 Symbolic Z-matrix:
 Charge =  0 Multiplicity = 1

 SCF Done:  E(RB3LYP) =  -796.202368094     A.U. after   14 cycles
 SCF Done:  E(RB3LYP) =  -796.205215994     A.U. after   15 cycles
 SCF Done:  E(RB3LYP) =  -796.205114330     A.U. after   13 cycles
 SCF Done:  E(RB3LYP) =  -796.199644249     A.U. after   13 cycles
 SCF Done:  E(RB3LYP) =  -796.205305833     A.U. after    9 cycles
 SCF Done:  E(RB3LYP) =  -796.205484775     A.U. after   12 cycles
 SCF Done:  E(RB3LYP) =  -796.205501819     A.U. after   11 cycles
 SCF Done:  E(RB3LYP) =  -796.205525869     A.U. after   11 cycles
 SCF Done:  E(RB3LYP) =  -796.205530660     A.U. after   11 cycles
 SCF Done:  E(RB3LYP) =  -796.205531787     A.U. after   10 cycles
 SCF Done:  E(RB3LYP) =  -796.205532021     A.U. after    9 cycles
 SCF Done:  E(RB3LYP) =  -796.205532088     A.U. after    9 cycles
 Optimization completed.
    -- Stationary point found.
 Normal termination of Gaussian 09 at Sat Jul 24 02:04:36 2021.

 ----------------------------------------------------------------------
 #N Geom=AllCheck Guess=TCheck SCRF=Check GenChk RB3LYP/6-31+G(d,p) Fre
 q
 ----------------------------------------------------------------------

 Structure from the checkpoint file:  "conf-340.chk"
 ------------------------------------------------------------
 Candidate Structure: Conf:340 OPT and FREQ calc in gas phase
 ------------------------------------------------------------
 Charge =  0 Multiplicity = 1

                          Input orientation:
 ---------------------------------------------------------------------
 Center     Atomic      Atomic             Coordinates (Angstroms)
 Number     Number       Type             X           Y           Z
 ---------------------------------------------------------------------
      1          8           0        0.593511   -0.962334   -0.809065
      2          6           0        1.381406   -0.175549   -0.265116
      3          7           0        0.940350    0.981259    0.294809
      4          6           0       -0.450317    1.344967    0.161415
      5          6           0       -0.625143    2.824595    0.465542
      6          8           0       -1.877705    3.294131    0.298987
      7          8           0        0.271714    3.542215    0.844561
      8          6           0       -1.398077    0.472725    1.057351
      9          6           0       -2.597242    0.038193    0.289978
     10          6           0       -3.938838    0.359731    0.328480
     11          7           0       -4.621054   -0.284319   -0.685419
     12          6           0       -3.707653   -0.980385   -1.333870
     13          7           0       -2.465721   -0.818660   -0.786715
     14          6           0        2.869632   -0.446624   -0.189158
     15          6           0        3.164679   -1.887176    0.241284
     16          7           0        4.605538   -2.138202    0.178536
     17          1           0        1.573601    1.681727    0.661542
     18          1           0       -0.741179    1.181196   -0.883195
     19          1           0       -2.489766    2.591818    0.009838
     20          1           0       -0.822262   -0.394888    1.389065
     21          1           0       -1.701782    1.020681    1.953751
     22          1           0       -4.451398    0.988498    1.044273
     23          1           0       -3.887509   -1.611952   -2.192191
     24          1           0       -1.574714   -1.202672   -1.091185
     25          1           0        3.294420   -0.289358   -1.187528
     26          1           0        3.357696    0.265320    0.487213
     27          1           0        2.663926   -2.563565   -0.455842
     28          1           0        2.722208   -2.064665    1.236204
     29          1           0        4.809372   -3.126541    0.291681
     30          1           0        5.102182   -1.640056    0.912637
 ---------------------------------------------------------------------

 SCF Done:  E(RB3LYP) =  -796.205532088     A.U. after    1 cycles

 Alpha  occ. eigenvalues --  -19.22869 -19.17483 -19.15361 -14.40182 -14.39679
 Alpha  occ. eigenvalues --  -14.33882 -14.33112 -10.35415 -10.32153 -10.27581
 Alpha  occ. eigenvalues --  -10.25506 -10.24125 -10.23439 -10.23199 -10.21812
 Alpha  occ. eigenvalues --  -10.21664  -1.13433  -1.06971  -1.05438  -1.02826
 Alpha  occ. eigenvalues --   -0.96090  -0.90265  -0.88534  -0.82824  -0.78472
 Alpha  occ. eigenvalues --   -0.75315  -0.69832  -0.65823  -0.63723  -0.62652
 Alpha  occ. eigenvalues --   -0.61681  -0.60491  -0.57486  -0.55996  -0.52363
 Alpha  occ. eigenvalues --   -0.51395  -0.50469  -0.49340  -0.48264  -0.47071
 Alpha  occ. eigenvalues --   -0.46996  -0.45182  -0.44566  -0.43745  -0.43267
 Alpha  occ. eigenvalues --   -0.42420  -0.41928  -0.41294  -0.40993  -0.40394
 Alpha  occ. eigenvalues --   -0.37376  -0.36826  -0.35024  -0.31297  -0.29796
 Alpha  occ. eigenvalues --   -0.29441  -0.29010  -0.28220  -0.25900  -0.24582
 Alpha virt. eigenvalues --   -0.03130  -0.01594  -0.01451  -0.00726   0.00088
 Alpha virt. eigenvalues --    0.00568   0.00821   0.01353   0.02584   0.03018
 Alpha virt. eigenvalues --    0.03445   0.03874   0.04639   0.04902   0.05357

 Mulliken charges:
               1
     1  O   -0.557449
     2  C    0.415432
     3  N   -0.257824
     4  C   -0.600307
     5  C    0.525924
     6  O   -0.387414
     7  O   -0.453240
     8  C   -0.516396
     9  C    0.223824
    10  C   -0.192540
    11  N   -0.285756
    12  C    0.284731
    13  N   -0.274167
    14  C   -0.159285
    15  C   -0.224480
    16  N   -0.602933
    17  H    0.330447
    18  H    0.191520
    19  H    0.358459
    20  H    0.188078
    21  H    0.173751
    22  H    0.137943
    23  H    0.139792
    24  H    0.355563
    25  H    0.194934
    26  H    0.130177
    27  H    0.168813
    28  H    0.128232
    29  H    0.287889
    30  H    0.276282
 Sum of Mulliken charges =   0.00000

 Dipole moment (field-independent basis, Debye):
    X=              3.4920    Y=             -2.6389    Z=              1.3624  Tot=              4.5841
 Quadrupole moment (field-independent basis, Debye-Ang):
   XX=           -110.9119   YY=           -108.3483   ZZ=            -92.6560
   XY=             -3.2686   XZ=              5.1792   YZ=             -4.0728

  Exact polarizability: 179.467  -4.046 139.565   9.393  18.126 114.529
 Approx polarizability: 235.454   3.745 200.464  14.210  33.556 181.139

                      1                      2                      3
                      A                      A                      A
 Frequencies --     15.8146                35.6463                57.6511
 Red. masses --      3.4527                 5.9452                 3.1001
 Frc consts  --      0.0005                 0.0045                 0.0061
 IR Inten    --      0.7945                 2.6939                 4.4798

                      4                      5                      6
                      A                      A                      A
 Frequencies --     75.0892                83.3310                87.3926
 Red. masses --      3.9714                 6.5642                 4.0410
 Frc consts  --      0.0132                 0.0269                 0.0182
 IR Inten    --      3.3929                 1.8478                 3.7675

                      7                      8                      9
                      A                      A                      A
 Frequencies --    100.9797               114.5559               169.1995
 Red. masses --      5.8905                 5.9583                 4.5206
 Frc consts  --      0.0354                 0.0461                 0.0763
 IR Inten    --      6.2265                 8.0842                 9.8971

                     10                     11                     12
                      A                      A                      A
 Frequencies --    191.6896               207.3318               247.5158
 Red. masses --      5.2225                 3.6534                 1.2682
 Frc consts  --      0.1131                 0.0925                 0.0458
 IR Inten    --      8.8026                 6.9414                47.5940

                     13                     14                     15
                      A                      A                      A
 Frequencies --    277.3961               317.1866               340.3754
 Red. masses --      4.7565                 5.6738                 2.3618
 Frc consts  --      0.2156                 0.3363                 0.1612
 IR Inten    --      5.2891                 1.5760                 6.5338

                     16                     17                     18
                      A                      A                      A
 Frequencies --    357.3895               396.0963               412.0387
 Red. masses --      5.9519                 3.9737                 3.9467
 Frc consts  --      0.4479                 0.3673                 0.3948
 IR Inten    --      9.3075                 7.1987                10.2260

                     19                     20                     21
                      A                      A                      A
 Frequencies --    526.8998               547.6253               598.1315
 Red. masses --      1.4351                 2.4556                 1.5310
 Frc consts  --      0.2347                 0.4339                 0.3227
 IR Inten    --     60.2157                13.9946                68.3331

                     22                     23                     24
                      A                      A                      A
 Frequencies --    628.2612               646.3759               659.5596
 Red. masses --      2.5845                 3.9823                 2.8198
 Frc consts  --      0.6010                 0.9803                 0.7227
 IR Inten    --     58.9406                 5.7962                 6.2916

                     25                     26                     27
                      A                      A                      A
 Frequencies --    675.5324               713.7151               741.9091
 Red. masses --      4.0874                 3.6460                 1.1842
 Frc consts  --      1.0990                 1.0942                 0.3840
 IR Inten    --     18.5598                 3.3836                51.7488

                     28                     29                     30
                      A                      A                      A
 Frequencies --    756.4155               773.3720               799.9177
 Red. masses --      3.3952                 3.7824                 1.3703
 Frc consts  --      1.1445                 1.3329                 0.5166
 IR Inten    --     18.8572                 6.3051                33.2706

                     31                     32                     33
                      A                      A                      A
 Frequencies --    826.4399               827.8776               842.7394
 Red. masses --      1.3955                 1.3237                 1.3280
 Frc consts  --      0.5616                 0.5345                 0.5557
 IR Inten    --     21.8494               115.1637                20.8301

                     34                     35                     36
                      A                      A                      A
 Frequencies --    863.5362               941.5813               952.0251
 Red. masses --      2.7191                 5.7852                 2.7624
 Frc consts  --      1.1946                 3.0219                 1.4752
 IR Inten    --     10.6364                10.5245                 8.6742

                     37                     38                     39
                      A                      A                      A
 Frequencies --    982.0711               990.7339              1023.0396
 Red. masses --      2.0741                 5.6544                 3.4607
 Frc consts  --      1.1786                 3.2700                 2.1340
 IR Inten    --      2.4987                 2.8572                14.2392

                     40                     41                     42
                      A                      A                      A
 Frequencies --   1034.2772              1066.2304              1095.8812
 Red. masses --      3.1004                 2.6873                 2.3522
 Frc consts  --      1.9541                 1.8000                 1.6644
 IR Inten    --      3.1093                16.2784                31.7367

                     43                     44                     45
                      A                      A                      A
 Frequencies --   1123.2910              1134.4663              1147.6264
 Red. masses --      1.6241                 1.6622                 2.1366
 Frc consts  --      1.2074                 1.2604                 1.6579
 IR Inten    --     40.9408                 8.7091                 7.8269

                     46                     47                     48
                      A                      A                      A
 Frequencies --   1166.6587              1194.5418              1203.2090
 Red. masses --      1.5624                 1.6231                 2.1184
 Frc consts  --      1.2529                 1.3646                 1.8069
 IR Inten    --      5.4747                28.5888                 1.8139

                     49                     50                     51
                      A                      A                      A
 Frequencies --   1234.6063              1260.1038              1263.3090
 Red. masses --      1.4895                 1.3987                 2.1980
 Frc consts  --      1.3377                 1.3085                 2.0668
 IR Inten    --     29.2464                 6.7816                29.2037

                     52                     53                     54
                      A                      A                      A
 Frequencies --   1280.1533              1299.5041              1333.3922
 Red. masses --      1.3628                 1.4055                 1.3050
 Frc consts  --      1.3159                 1.3984                 1.3670
 IR Inten    --      6.1861                72.0758                 4.7617

                     55                     56                     57
                      A                      A                      A
 Frequencies --   1336.8079              1351.6739              1371.5898
 Red. masses --      1.1763                 1.7488                 1.4417
 Frc consts  --      1.2386                 1.8825                 1.5979
 IR Inten    --     38.3063               176.5390                12.2385

                     58                     59                     60
                      A                      A                      A
 Frequencies --   1391.1500              1416.0826              1427.1997
 Red. masses --      3.2083                 1.7359                 1.5552
 Frc consts  --      3.6583                 2.0510                 1.8664
 IR Inten    --      6.6105                39.9187                72.2286

                     61                     62                     63
                      A                      A                      A
 Frequencies --   1440.4692              1477.9887              1489.4908
 Red. masses --      2.5873                 1.1078                 1.1255
 Frc consts  --      3.1631                 1.4257                 1.4712
 IR Inten    --     73.1609                10.3417                13.2268

                     64                     65                     66
                      A                      A                      A
 Frequencies --   1509.5409              1520.9553              1532.8188
 Red. masses --      3.5887                 1.0840                 2.7022
 Frc consts  --      4.8181                 1.4774                 3.7407
 IR Inten    --     47.4901                 0.9516               291.9342

                     67                     68                     69
                      A                      A                      A
 Frequencies --   1616.2393              1668.6671              1704.9248
 Red. masses --      4.5175                 1.0948                 8.4938
 Frc consts  --      6.9529                 1.7961                14.5466
 IR Inten    --     11.6802                31.2747               220.7509

                     70                     71                     72
                      A                      A                      A
 Frequencies --   1840.0019              2963.3920              3044.8663
 Red. masses --     10.0801                 1.0735                 1.0607
 Frc consts  --     20.1071                 5.5543                 5.7938
 IR Inten    --    341.1204                73.4444                15.5766

                     73                     74                     75
                      A                      A                      A
 Frequencies --   3050.1740              3077.3645              3089.7059
 Red. masses --      1.0824                 1.0610                 1.0989
 Frc consts  --      5.9334                 5.9200                 6.1807
 IR Inten    --      9.0419                15.6043                 5.2431

                     76                     77                     78
                      A                      A                      A
 Frequencies --   3114.1087              3123.0556              3246.7858
 Red. masses --      1.0927                 1.1056                 1.0964
 Frc consts  --      6.2433                 6.3531                 6.8094
 IR Inten    --     17.0263                 6.7525                 4.2925

                     79                     80                     81
                      A                      A                      A
 Frequencies --   3267.3387              3510.7999              3557.1489
 Red. masses --      1.0979                 1.0499                 1.0839
 Frc consts  --      6.9053                 7.6241                 8.0804
 IR Inten    --      0.9345                 0.3623               218.8116

                     82                     83                     84
                      A                      A                      A
 Frequencies --   3601.0408              3605.2520              3667.3803
 Red. masses --      1.0936                 1.0786                 1.0675
 Frc consts  --      8.3550                 8.2604                 8.4589
 IR Inten    --      2.2585                82.3203               237.7690

 - Thermochemistry -
 -------------------
 Temperature   298.150 Kelvin.  Pressure   1.00000 Atm.
 Atom     1 has atomic number  8 and mass  15.99491

 Molecular mass:   226.10659 amu.
 Principal axes and moments of inertia in atomic units:
                           1         2         3
     Eigenvalues --  2462.474246068.878408122.64884
           X            0.96168   0.25249  -0.10686
           Y           -0.27172   0.92976  -0.24842
           Z            0.03663   0.26794   0.96274
 This molecule is an asymmetric top.
 Rotational symmetry number  1.
 Warning -- assumption of classical behavior for rotation
           may cause significant error
 Rotational temperatures (Kelvin)      0.03517     0.01427     0.01066
 Rotational constants (GHZ):           0.73290     0.29738     0.22219
 Zero-point vibrational energy     643924.1 (Joules/Mol)
                                  153.90155 (Kcal/Mol)
 Warning -- explicit consideration of  21 degrees of freedom as
           vibrations may cause significant error
 Vibrational temperatures:     22.75    51.29    82.95   108.04   119.89
          (Kelvin)            125.74   145.29   164.82   243.44   275.80
                              298.30   356.12   399.11   456.36   489.72
                              514.20   569.89   592.83   758.09   787.91
                              860.58   903.93   929.99   948.96   971.94
                             1026.88  1067.44  1088.31  1112.71  1150.90
                             1189.06  1191.13  1212.51  1242.43  1354.72
                             1369.75  1412.98  1425.44  1471.92  1488.09
                             1534.07  1576.73  1616.16  1632.24  1651.18
                             1678.56  1718.68  1731.15  1776.32  1813.01
                             1817.62  1841.85  1869.69  1918.45  1923.37
                             1944.75  1973.41  2001.55  2037.42  2053.42
                             2072.51  2126.49  2143.04  2171.89  2188.31
                             2205.38  2325.40  2400.84  2453.00  2647.35
                             4263.65  4380.88  4388.51  4427.64  4445.39
                             4480.50  4493.37  4671.39  4700.97  5051.25
                             5117.94  5181.09  5187.15  5276.54

 Zero-point correction=                           0.245258 (Hartree/Particle)
 Thermal correction to Energy=                    0.261231
 Thermal correction to Enthalpy=                  0.262175
 Thermal correction to Gibbs Free Energy=         0.199164
 Sum of electronic and zero-point Energies=           -795.960274
 Sum of electronic and thermal Energies=              -795.944301
 Sum of electronic and thermal Enthalpies=            -795.943357
 Sum of electronic and thermal Free Energies=         -796.006368

                     E (Thermal)             CV                S
                      KCal/Mol        Cal/Mol-Kelvin    Cal/Mol-Kelvin
 Total                  163.925             58.064            132.619
 Electronic               0.000              0.000              0.000
 Translational            0.889              2.981             42.150
 Rotational               0.889              2.981             33.162
 Vibrational            162.147             52.102             57.307
 Vibration     1          0.593              1.986              7.101
 Vibration     2          0.594              1.982              5.487
 Vibration     3          0.596              1.974              4.536
 Vibration     4          0.599              1.966              4.015
 Vibration     5          0.600              1.961              3.811
 Vibration     6          0.601              1.958              3.718
 Vibration     7          0.604              1.948              3.435
 Vibration     8          0.607              1.937              3.190
 Vibration     9          0.625              1.880              2.444
 Vibration    10          0.634              1.851              2.211
 Vibration    11          0.641              1.829              2.067
 Vibration    12          0.661              1.767              1.748
 Vibration    13          0.678              1.715              1.550
 Vibration    14          0.704              1.641              1.325
 Vibration    15          0.720              1.595              1.210
 Vibration    16          0.733              1.560              1.133
 Vibration    17          0.763              1.479              0.977
 Vibration    18          0.776              1.444              0.919
 Vibration    19          0.882              1.190              0.594
 Vibration    20          0.903              1.145              0.549
 Vibration    21          0.956              1.036              0.453

 Normal termination of Gaussian 09 at Sat Jul 24 02:44:40 2021.
