 Gaussian 09, Revision D.01,
 Gaussian 09:  ES64L-G09RevD.01 24-Apr-2013

 ----------------------------------------------------------------------
 # B3LYP/6-311G(2df,2pd) EmpiricalDispersion=GD3BJ opt=calcfc freq=nora
 man nosymm integral(ultrafinegrid)
 ----------------------------------------------------------------------

 ------------------------------------------------------------
 Candidate Structure: Conf:338 OPT and FREQ calc in gas phase
 ------------------------------------------------------------
 Symbolic Z-matrix:
 Charge =  0 Multiplicity = 1

 SCF Done:  E(RB3LYP) =  -796.420420667     A.U. after   13 cycles
 SCF Done:  E(RB3LYP) =  -796.422286037     A.U. after   13 cycles
 SCF Done:  E(RB3LYP) =  -796.422069799     A.U. after   13 cycles
 SCF Done:  E(RB3LYP) =  -796.420989968     A.U. after   14 cycles
 SCF Done:  E(RB3LYP) =  -796.422488396     A.U. after   11 cycles
 SCF Done:  E(RB3LYP) =  -796.422783405     A.U. after   12 cycles
 SCF Done:  E(RB3LYP) =  -796.424405863     A.U. after   14 cycles
 SCF Done:  E(RB3LYP) =  -796.419999111     A.U. after   14 cycles
 SCF Done:  E(RB3LYP) =  -796.426035977     A.U. after   11 cycles
 SCF Done:  E(RB3LYP) =  -796.426978669     A.U. after   11 cycles
 SCF Done:  E(RB3LYP) =  -796.427254540     A.U. after   11 cycles
 SCF Done:  E(RB3LYP) =  -796.427694471     A.U. after   11 cycles
 SCF Done:  E(RB3LYP) =  -796.427813407     A.U. after   10 cycles
 SCF Done:  E(RB3LYP) =  -796.427850035     A.U. after   10 cycles
 SCF Done:  E(RB3LYP) =  -796.427861327     A.U. after    9 cycles
 SCF Done:  E(RB3LYP) =  -796.427863712     A.U. after    9 cycles
 SCF Done:  E(RB3LYP) =  -796.427863960     A.U. after    7 cycles
 SCF Done:  E(RB3LYP) =  -796.427864006     A.U. after    6 cycles
 SCF Done:  E(RB3LYP) =  -796.427864009     A.U. after    6 cycles
 Optimization completed.
    -- Stationary point found.
 Normal termination of Gaussian 09 at Sat Jul 24 09:28:15 2021.

 ----------------------------------------------------------------------
 #N Geom=AllCheck Guess=TCheck SCRF=Check GenChk RB3LYP/6-311G(2df,2pd)
  Freq
 ----------------------------------------------------------------------

 Structure from the checkpoint file:  "conf-338.chk"
 ------------------------------------------------------------
 Candidate Structure: Conf:338 OPT and FREQ calc in gas phase
 ------------------------------------------------------------
 Charge =  0 Multiplicity = 1

                          Input orientation:
 ---------------------------------------------------------------------
 Center     Atomic      Atomic             Coordinates (Angstroms)
 Number     Number       Type             X           Y           Z
 ---------------------------------------------------------------------
      1          8           0        0.577586    0.511440    1.747724
      2          6           0        1.287429    0.050778    0.855553
      3          7           0        0.796908   -0.569772   -0.232357
      4          6           0       -0.620034   -0.765781   -0.422391
      5          6           0       -0.811179   -1.862545   -1.445184
      6          8           0       -2.101804   -2.231985   -1.522878
      7          8           0        0.056598   -2.338725   -2.128562
      8          6           0       -1.381201    0.536173   -0.864375
      9          6           0       -2.434625    0.965873    0.089867
     10          6           0       -3.780954    1.186439   -0.043583
     11          7           0       -4.329705    1.580452    1.154076
     12          6           0       -3.327676    1.591724    2.003955
     13          7           0       -2.158365    1.231573    1.411962
     14          6           0        2.804208    0.144031    0.952806
     15          6           0        3.561144    0.338553   -0.361224
     16          7           0        3.437525   -0.842423   -1.222650
     17          1           0        1.454724   -0.956944   -0.909032
     18          1           0       -1.062917   -1.103497    0.514775
     19          1           0       -2.164334   -2.908036   -2.212243
     20          1           0       -1.842194    0.391717   -1.839757
     21          1           0       -0.620938    1.309915   -0.984427
     22          1           0       -4.378633    1.082600   -0.933926
     23          1           0       -3.390534    1.849688    3.047928
     24          1           0       -1.236437    1.110012    1.821251
     25          1           0        3.012178    0.969052    1.631259
     26          1           0        3.160436   -0.764135    1.449477
     27          1           0        3.135450    1.186390   -0.900679
     28          1           0        4.599816    0.598780   -0.128587
     29          1           0        3.952054   -1.626139   -0.839083
     30          1           0        3.805413   -0.665161   -2.147913
 ---------------------------------------------------------------------

 SCF Done:  E(RB3LYP) =  -796.427864009     A.U. after    1 cycles

 Alpha  occ. eigenvalues --  -19.18272 -19.12729 -19.09472 -14.33708 -14.33601
 Alpha  occ. eigenvalues --  -14.32077 -14.26664 -10.31806 -10.27922 -10.23560
 Alpha  occ. eigenvalues --  -10.22023 -10.19934 -10.19112 -10.19095 -10.18375
 Alpha  occ. eigenvalues --  -10.16017  -1.12891  -1.04939  -1.03948  -0.99425
 Alpha  occ. eigenvalues --   -0.94017  -0.91218  -0.85075  -0.80652  -0.77285
 Alpha  occ. eigenvalues --   -0.73681  -0.67616  -0.65887  -0.62613  -0.59407
 Alpha  occ. eigenvalues --   -0.58896  -0.57134  -0.54149  -0.53361  -0.52282
 Alpha  occ. eigenvalues --   -0.50623  -0.49197  -0.47887  -0.47614  -0.47215
 Alpha  occ. eigenvalues --   -0.45923  -0.43954  -0.42662  -0.42512  -0.41649
 Alpha  occ. eigenvalues --   -0.40973  -0.39584  -0.39191  -0.38918  -0.38613
 Alpha  occ. eigenvalues --   -0.38105  -0.36167  -0.34354  -0.30241  -0.27977
 Alpha  occ. eigenvalues --   -0.27529  -0.26817  -0.26243  -0.25002  -0.21166
 Alpha virt. eigenvalues --   -0.01251   0.00335   0.01955   0.02606   0.03493
 Alpha virt. eigenvalues --    0.05153   0.05332   0.06755   0.07459   0.07919
 Alpha virt. eigenvalues --    0.08531   0.08709   0.09757   0.11124   0.11715

 Mulliken charges:
               1
     1  O   -0.473907
     2  C    0.459451
     3  N   -0.322895
     4  C    0.104995
     5  C    0.504902
     6  O   -0.340820
     7  O   -0.367952
     8  C    0.009407
     9  C    0.090816
    10  C    0.102492
    11  N   -0.361357
    12  C    0.227034
    13  N   -0.240970
    14  C   -0.022971
    15  C    0.115886
    16  N   -0.265217
    17  H    0.122389
    18  H    0.023586
    19  H    0.223160
    20  H    0.001150
    21  H    0.021178
    22  H   -0.005550
    23  H    0.009623
    24  H    0.139559
    25  H    0.016683
    26  H    0.016999
    27  H    0.024416
    28  H   -0.000271
    29  H    0.101813
    30  H    0.086372
 Sum of Mulliken charges =   0.00000

 Dipole moment (field-independent basis, Debye):
    X=              6.6217    Y=             -2.1522    Z=             -2.4768  Tot=              7.3901
 Quadrupole moment (field-independent basis, Debye-Ang):
   XX=            -99.2657   YY=            -94.1124   ZZ=            -91.1638
   XY=             10.1426   XZ=              6.0965   YZ=             -1.1652

  Exact polarizability: 168.069 -10.823 109.501  -6.517  23.477 133.218
 Approx polarizability: 227.233 -13.496 163.747  -8.209  29.146 213.043

                      1                      2                      3
                      A                      A                      A
 Frequencies --     14.8614                43.2668                53.1533
 Red. masses --      4.9230                 5.2204                10.1713
 Frc consts  --      0.0006                 0.0058                 0.0169
 IR Inten    --      0.5194                 2.2884                 2.1955

                      4                      5                      6
                      A                      A                      A
 Frequencies --     68.6938                74.1367                97.1161
 Red. masses --      3.4925                 4.7625                 4.4166
 Frc consts  --      0.0097                 0.0154                 0.0245
 IR Inten    --      0.4365                 0.3684                 6.4405

                      7                      8                      9
                      A                      A                      A
 Frequencies --    109.9263               124.2533               182.0414
 Red. masses --      6.1876                 6.0034                 2.5403
 Frc consts  --      0.0441                 0.0546                 0.0496
 IR Inten    --      4.6414                 4.1704                 5.9666

                     10                     11                     12
                      A                      A                      A
 Frequencies --    197.5158               237.7558               284.7997
 Red. masses --      5.4765                 3.7415                 3.5787
 Frc consts  --      0.1259                 0.1246                 0.1710
 IR Inten    --      2.2772                 6.1009                 4.1827

                     13                     14                     15
                      A                      A                      A
 Frequencies --    296.0945               308.4719               333.4956
 Red. masses --      1.2299                 3.9631                 4.2257
 Frc consts  --      0.0635                 0.2222                 0.2769
 IR Inten    --     11.3569                 3.6193                 0.3960

                     16                     17                     18
                      A                      A                      A
 Frequencies --    355.1388               417.1365               464.1527
 Red. masses --      4.7167                 3.4650                 2.5837
 Frc consts  --      0.3505                 0.3552                 0.3280
 IR Inten    --      3.7484                 6.7640                23.1732

                     19                     20                     21
                      A                      A                      A
 Frequencies --    517.7563               589.0333               613.6770
 Red. masses --      3.2500                 1.4127                 3.6095
 Frc consts  --      0.5133                 0.2888                 0.8009
 IR Inten    --     39.7095                79.5902                 4.8645

                     22                     23                     24
                      A                      A                      A
 Frequencies --    637.6902               653.7682               682.2533
 Red. masses --      3.7094                 3.5571                 3.4058
 Frc consts  --      0.8887                 0.8958                 0.9340
 IR Inten    --     30.3877                 2.2430                45.5568

                     25                     26                     27
                      A                      A                      A
 Frequencies --    698.6672               723.3645               775.4683
 Red. masses --      3.4446                 3.3327                 3.7403
 Frc consts  --      0.9907                 1.0274                 1.3252
 IR Inten    --     16.5044                12.3660                 2.6459

                     28                     29                     30
                      A                      A                      A
 Frequencies --    783.3234               803.8728               827.0654
 Red. masses --      1.1059                 1.2237                 1.4312
 Frc consts  --      0.3998                 0.4659                 0.5768
 IR Inten    --     38.4125                36.2482                18.9030

                     31                     32                     33
                      A                      A                      A
 Frequencies --    843.7480               847.0325               862.6127
 Red. masses --      1.5511                 1.2928                 2.3954
 Frc consts  --      0.6506                 0.5465                 1.0502
 IR Inten    --     12.5936                82.6453                23.2947

                     34                     35                     36
                      A                      A                      A
 Frequencies --    901.7900               915.8232               949.5728
 Red. masses --      2.3677                 1.9943                 5.7211
 Frc consts  --      1.1344                 0.9855                 3.0394
 IR Inten    --     15.3207                 8.8034                24.0779

                     37                     38                     39
                      A                      A                      A
 Frequencies --    967.5812               986.6218              1012.1400
 Red. masses --      2.9944                 3.1987                 1.7847
 Frc consts  --      1.6517                 1.8345                 1.0772
 IR Inten    --      9.3045                 3.4035                 5.2033

                     40                     41                     42
                      A                      A                      A
 Frequencies --   1028.3657              1031.6204              1086.3883
 Red. masses --      3.5069                 2.6770                 2.6352
 Frc consts  --      2.1851                 1.6786                 1.8325
 IR Inten    --      0.3788                36.2209                 6.2828

                     43                     44                     45
                      A                      A                      A
 Frequencies --   1132.7374              1134.7931              1146.7853
 Red. masses --      2.1207                 2.4368                 2.0016
 Frc consts  --      1.6032                 1.8488                 1.5510
 IR Inten    --     56.4540                51.8988                 2.1534

                     46                     47                     48
                      A                      A                      A
 Frequencies --   1157.7188              1176.9398              1211.4874
 Red. masses --      1.4213                 2.4961                 1.3128
 Frc consts  --      1.1224                 2.0372                 1.1352
 IR Inten    --     32.8321               144.0226                 6.6576

                     49                     50                     51
                      A                      A                      A
 Frequencies --   1261.3456              1263.1946              1279.6869
 Red. masses --      1.6970                 1.7912                 1.4024
 Frc consts  --      1.5908                 1.6839                 1.3531
 IR Inten    --      7.6001                21.1988                10.2949

                     52                     53                     54
                      A                      A                      A
 Frequencies --   1290.9660              1308.3961              1313.4723
 Red. masses --      1.2974                 1.4675                 1.3458
 Frc consts  --      1.2740                 1.4802                 1.3680
 IR Inten    --     11.0651                 2.3629                 2.2142

                     55                     56                     57
                      A                      A                      A
 Frequencies --   1332.6959              1358.3218              1372.0832
 Red. masses --      1.4769                 1.3975                 1.4256
 Frc consts  --      1.5455                 1.5192                 1.5813
 IR Inten    --      5.8360                23.5592                 3.3459

                     58                     59                     60
                      A                      A                      A
 Frequencies --   1389.1186              1412.9193              1423.9961
 Red. masses --      4.2556                 2.0360                 1.5491
 Frc consts  --      4.8383                 2.3947                 1.8508
 IR Inten    --     14.7152                52.0305                32.8572

                     61                     62                     63
                      A                      A                      A
 Frequencies --   1445.4320              1467.8894              1479.5082
 Red. masses --      2.3345                 1.0828                 1.1563
 Frc consts  --      2.8737                 1.3746                 1.4913
 IR Inten    --     80.3717                12.7004                15.0529

                     64                     65                     66
                      A                      A                      A
 Frequencies --   1502.4479              1514.8337              1571.0308
 Red. masses --      3.2057                 1.0915                 2.1307
 Frc consts  --      4.2636                 1.4757                 3.0984
 IR Inten    --     20.2031                 7.3176               331.5500

                     67                     68                     69
                      A                      A                      A
 Frequencies --   1613.6839              1658.8200              1714.3937
 Red. masses --      4.1994                 1.0898                 8.2935
 Frc consts  --      6.4428                 1.7668                14.3618
 IR Inten    --     26.3831                31.0616               305.5702

                     70                     71                     72
                      A                      A                      A
 Frequencies --   1822.6831              2985.7122              3023.9970
 Red. masses --      9.8703                 1.0718                 1.0708
 Frc consts  --     19.3199                 5.6296                 5.7695
 IR Inten    --    266.5376                79.0664                 6.2393

                     73                     74                     75
                      A                      A                      A
 Frequencies --   3041.0127              3061.6493              3067.7675
 Red. masses --      1.0664                 1.0908                 1.0835
 Frc consts  --      5.8103                 6.0244                 6.0077
 IR Inten    --     21.0859                27.3582                13.1848

                     76                     77                     78
                      A                      A                      A
 Frequencies --   3098.9060              3107.5199              3229.9230
 Red. masses --      1.0964                 1.0919                 1.0957
 Frc consts  --      6.2034                 6.2126                 6.7349
 IR Inten    --     10.4861                 8.6544                10.5288

                     79                     80                     81
                      A                      A                      A
 Frequencies --   3240.6035              3390.1369              3475.3014
 Red. masses --      1.0978                 1.0814                 1.0855
 Frc consts  --      6.7921                 7.3230                 7.7243
 IR Inten    --      1.7913               390.6167               432.9269

                     82                     83                     84
                      A                      A                      A
 Frequencies --   3505.8307              3585.4058              3757.5198
 Red. masses --      1.0501                 1.0929                 1.0641
 Frc consts  --      7.6041                 8.2777                 8.8518
 IR Inten    --      0.3481                 4.2567                79.5994

 - Thermochemistry -
 -------------------
 Temperature   298.150 Kelvin.  Pressure   1.00000 Atm.
 Atom     1 has atomic number  8 and mass  15.99491

 Molecular mass:   226.10659 amu.
 Principal axes and moments of inertia in atomic units:
                           1         2         3
     Eigenvalues --  2324.926645352.330947166.98800
           X            0.94408   0.32510   0.05491
           Y           -0.26396   0.64547   0.71672
           Z           -0.19757   0.69114  -0.69519
 This molecule is an asymmetric top.
 Rotational symmetry number  1.
 Warning -- assumption of classical behavior for rotation
           may cause significant error
 Rotational temperatures (Kelvin)      0.03725     0.01618     0.01209
 Rotational constants (GHZ):           0.77626     0.33719     0.25181
 Zero-point vibrational energy     644368.0 (Joules/Mol)
                                  154.00764 (Kcal/Mol)
 Warning -- explicit consideration of  21 degrees of freedom as
           vibrations may cause significant error
 Vibrational temperatures:     21.38    62.25    76.48    98.83   106.67
          (Kelvin)            139.73   158.16   178.77   261.92   284.18
                              342.08   409.76   426.01   443.82   479.83
                              510.96   600.17   667.81   744.93   847.49
                              882.94   917.49   940.63   981.61  1005.22
                             1040.76  1115.72  1127.03  1156.59  1189.96
                             1213.96  1218.69  1241.11  1297.47  1317.66
                             1366.22  1392.13  1419.53  1456.24  1479.59
                             1484.27  1563.07  1629.75  1632.71  1649.97
                             1665.70  1693.35  1743.06  1814.79  1817.45
                             1841.18  1857.41  1882.49  1889.79  1917.45
                             1954.32  1974.12  1998.63  2032.87  2048.81
                             2079.65  2111.96  2128.68  2161.68  2179.51
                             2260.36  2321.73  2386.67  2466.63  2622.43
                             4295.77  4350.85  4375.33  4405.02  4413.83
                             4458.63  4471.02  4647.13  4662.50  4877.64
                             5000.18  5044.10  5158.59  5406.23

 Zero-point correction=                           0.245427 (Hartree/Particle)
 Thermal correction to Energy=                    0.261073
 Thermal correction to Enthalpy=                  0.262017
 Thermal correction to Gibbs Free Energy=         0.199854
 Sum of electronic and zero-point Energies=           -796.182437
 Sum of electronic and thermal Energies=              -796.166791
 Sum of electronic and thermal Enthalpies=            -796.165847
 Sum of electronic and thermal Free Energies=         -796.228010

                     E (Thermal)             CV                S
                      KCal/Mol        Cal/Mol-Kelvin    Cal/Mol-Kelvin
 Total                  163.826             57.269            130.834
 Electronic               0.000              0.000              0.000
 Translational            0.889              2.981             42.150
 Rotational               0.889              2.981             32.856
 Vibrational            162.048             51.308             55.829
 Vibration     1          0.593              1.986              7.224
 Vibration     2          0.595              1.980              5.104
 Vibration     3          0.596              1.976              4.696
 Vibration     4          0.598              1.969              4.190
 Vibration     5          0.599              1.966              4.040
 Vibration     6          0.603              1.951              3.511
 Vibration     7          0.606              1.941              3.270
 Vibration     8          0.610              1.929              3.033
 Vibration     9          0.630              1.864              2.307
 Vibration    10          0.637              1.843              2.156
 Vibration    11          0.656              1.783              1.820
 Vibration    12          0.683              1.702              1.505
 Vibration    13          0.690              1.681              1.439
 Vibration    14          0.698              1.658              1.371
 Vibration    15          0.715              1.609              1.243
 Vibration    16          0.731              1.565              1.143
 Vibration    17          0.780              1.433              0.902
 Vibration    18          0.822              1.330              0.754
 Vibration    19          0.873              1.211              0.615
 Vibration    20          0.946              1.055              0.469
 Vibration    21          0.973              1.003              0.427

 Optimization completed.
    -- Stationary point found.
 Normal termination of Gaussian 09 at Sat Jul 24 13:10:25 2021.
