 Gaussian 09, Revision D.01,
 Gaussian 09:  ES64L-G09RevD.01 24-Apr-2013

 ----------------------------------------------------------------------
 # B3LYP/6-311G(2df,2pd) EmpiricalDispersion=GD3BJ opt=calcfc freq=nora
 man nosymm integral(ultrafinegrid)
 ----------------------------------------------------------------------

 ------------------------------------------------------------
 Candidate Structure: Conf:609 OPT and FREQ calc in gas phase
 ------------------------------------------------------------
 Symbolic Z-matrix:
 Charge =  0 Multiplicity = 1

 SCF Done:  E(RB3LYP) =  -796.409466480     A.U. after   13 cycles
 SCF Done:  E(RB3LYP) =  -796.411129126     A.U. after   14 cycles
 SCF Done:  E(RB3LYP) =  -796.411357281     A.U. after   14 cycles
 SCF Done:  E(RB3LYP) =  -796.410871909     A.U. after   14 cycles
 SCF Done:  E(RB3LYP) =  -796.411513802     A.U. after   11 cycles
 SCF Done:  E(RB3LYP) =  -796.409626368     A.U. after   12 cycles
 SCF Done:  E(RB3LYP) =  -796.411978464     A.U. after    8 cycles
 SCF Done:  E(RB3LYP) =  -796.412190678     A.U. after   12 cycles
 SCF Done:  E(RB3LYP) =  -796.412231128     A.U. after   11 cycles
 SCF Done:  E(RB3LYP) =  -796.412249603     A.U. after   10 cycles
 SCF Done:  E(RB3LYP) =  -796.412250940     A.U. after    9 cycles
 SCF Done:  E(RB3LYP) =  -796.412251090     A.U. after    7 cycles
 SCF Done:  E(RB3LYP) =  -796.412251110     A.U. after    6 cycles
 SCF Done:  E(RB3LYP) =  -796.412251113     A.U. after    6 cycles
 Optimization completed.
    -- Stationary point found.
 Normal termination of Gaussian 09 at Sat Jul 24 07:28:33 2021.

 ----------------------------------------------------------------------
 #N Geom=AllCheck Guess=TCheck SCRF=Check GenChk RB3LYP/6-311G(2df,2pd)
  Freq
 ----------------------------------------------------------------------

 Structure from the checkpoint file:  "conf-609.chk"
 ------------------------------------------------------------
 Candidate Structure: Conf:609 OPT and FREQ calc in gas phase
 ------------------------------------------------------------
 Charge =  0 Multiplicity = 1

                          Input orientation:
 ---------------------------------------------------------------------
 Center     Atomic      Atomic             Coordinates (Angstroms)
 Number     Number       Type             X           Y           Z
 ---------------------------------------------------------------------
      1          8           0        1.385917    1.269128   -0.526555
      2          6           0        1.627729    0.439213    0.333167
      3          7           0        0.649789   -0.382383    0.816546
      4          6           0       -0.646850   -0.415042    0.162443
      5          6           0       -0.421400   -0.713466   -1.325774
      6          8           0       -1.266252   -0.057082   -2.155917
      7          8           0        0.395004   -1.490852   -1.732268
      8          6           0       -1.497368    0.837095    0.478501
      9          6           0       -2.968715    0.607588    0.456371
     10          6           0       -3.886343    0.526129    1.472470
     11          7           0       -5.149218    0.294326    0.980197
     12          6           0       -5.006066    0.232815   -0.321530
     13          7           0       -3.708493    0.417648   -0.691319
     14          6           0        3.019851    0.213246    0.871884
     15          6           0        3.886308   -0.484827   -0.200261
     16          7           0        5.273081   -0.722618    0.171428
     17          1           0        0.920096   -1.176550    1.368868
     18          1           0       -1.174339   -1.285752    0.555456
     19          1           0       -1.015292   -0.319297   -3.053582
     20          1           0       -1.230939    1.142174    1.488869
     21          1           0       -1.197109    1.645908   -0.184720
     22          1           0       -3.702988    0.634099    2.528693
     23          1           0       -5.792237    0.060509   -1.037540
     24          1           0       -3.317409    0.388807   -1.616843
     25          1           0        3.450848    1.186922    1.105740
     26          1           0        3.007247   -0.382080    1.787638
     27          1           0        3.427794   -1.439958   -0.462777
     28          1           0        3.863449    0.124792   -1.102959
     29          1           0        5.332718   -1.300041    1.001535
     30          1           0        5.741254    0.149557    0.386688
 ---------------------------------------------------------------------

 SCF Done:  E(RB3LYP) =  -796.412251113     A.U. after    1 cycles

 Alpha  occ. eigenvalues --  -19.19138 -19.12527 -19.09579 -14.35824 -14.35200
 Alpha  occ. eigenvalues --  -14.29457 -14.28166 -10.32093 -10.27882 -10.24615
 Alpha  occ. eigenvalues --  -10.21505 -10.20077 -10.19886 -10.19038 -10.18450
 Alpha  occ. eigenvalues --  -10.17335  -1.13260  -1.05479  -1.04019  -1.01128
 Alpha  occ. eigenvalues --   -0.94487  -0.89188  -0.86711  -0.81281  -0.76862
 Alpha  occ. eigenvalues --   -0.73859  -0.68223  -0.65510  -0.62626  -0.61204
 Alpha  occ. eigenvalues --   -0.59502  -0.58739  -0.55152  -0.52792  -0.51763
 Alpha  occ. eigenvalues --   -0.51068  -0.50686  -0.48610  -0.46887  -0.45669
 Alpha  occ. eigenvalues --   -0.45083  -0.43827  -0.43468  -0.42453  -0.41902
 Alpha  occ. eigenvalues --   -0.41117  -0.40573  -0.40058  -0.39449  -0.38764
 Alpha  occ. eigenvalues --   -0.37647  -0.35479  -0.34364  -0.30092  -0.28547
 Alpha  occ. eigenvalues --   -0.27937  -0.27518  -0.26504  -0.24547  -0.22555
 Alpha virt. eigenvalues --   -0.01887   0.00275   0.01651   0.02004   0.02580
 Alpha virt. eigenvalues --    0.03620   0.05828   0.06215   0.06798   0.07213
 Alpha virt. eigenvalues --    0.07381   0.08418   0.10061   0.10783   0.11191

 Mulliken charges:
               1
     1  O   -0.438669
     2  C    0.404588
     3  N   -0.274518
     4  C    0.090508
     5  C    0.542846
     6  O   -0.363884
     7  O   -0.378932
     8  C    0.016918
     9  C    0.087654
    10  C    0.098942
    11  N   -0.353527
    12  C    0.226454
    13  N   -0.226911
    14  C   -0.016131
    15  C    0.173101
    16  N   -0.334851
    17  H    0.096145
    18  H    0.027258
    19  H    0.221712
    20  H    0.003338
    21  H    0.043416
    22  H    0.002754
    23  H    0.013817
    24  H    0.103477
    25  H    0.008528
    26  H   -0.012735
    27  H    0.019430
    28  H    0.027652
    29  H    0.092841
    30  H    0.098781
 Sum of Mulliken charges =   0.00000

 Dipole moment (field-independent basis, Debye):
    X=              2.0318    Y=             -1.1196    Z=              0.1695  Tot=              2.3260
 Quadrupole moment (field-independent basis, Debye-Ang):
   XX=           -113.7320   YY=            -98.2790   ZZ=            -84.1452
   XY=              4.0486   XZ=             25.4763   YZ=             -3.4364

  Exact polarizability: 184.564  -3.561  99.944   3.154   1.451 127.402
 Approx polarizability: 227.252  -0.430 168.306  -0.087  -7.717 208.263

                      1                      2                      3
                      A                      A                      A
 Frequencies --     18.6143                25.8145                36.6398
 Red. masses --      4.1043                 4.9892                 5.9643
 Frc consts  --      0.0008                 0.0020                 0.0047
 IR Inten    --      1.4060                 8.5567                 4.0739

                      4                      5                      6
                      A                      A                      A
 Frequencies --     51.7760                70.0166                91.4062
 Red. masses --      5.2023                 3.1594                 2.3573
 Frc consts  --      0.0082                 0.0091                 0.0116
 IR Inten    --      1.9747                 4.0055                 2.2101

                      7                      8                      9
                      A                      A                      A
 Frequencies --     97.2462               133.6710               147.6381
 Red. masses --      8.5762                 6.3870                 6.5751
 Frc consts  --      0.0478                 0.0672                 0.0844
 IR Inten    --      2.8319                 2.2683                 5.0201

                     10                     11                     12
                      A                      A                      A
 Frequencies --    191.7225               220.4953               284.6326
 Red. masses --      4.4572                 5.3066                 2.6854
 Frc consts  --      0.0965                 0.1520                 0.1282
 IR Inten    --     10.2641                 1.6681                16.0009

                     13                     14                     15
                      A                      A                      A
 Frequencies --    297.2169               308.2636               340.2992
 Red. masses --      1.2889                 3.4069                 3.7341
 Frc consts  --      0.0671                 0.1907                 0.2548
 IR Inten    --     27.1894                 6.1557                 1.5100

                     16                     17                     18
                      A                      A                      A
 Frequencies --    368.8671               390.9028               432.6246
 Red. masses --      3.5370                 3.7461                 1.2624
 Frc consts  --      0.2835                 0.3373                 0.1392
 IR Inten    --      1.3330                10.7527                55.5097

                     19                     20                     21
                      A                      A                      A
 Frequencies --    447.1727               520.7876               550.0690
 Red. masses --      4.1037                 3.5643                 2.7748
 Frc consts  --      0.4835                 0.5696                 0.4947
 IR Inten    --      8.5245                33.3662                25.6618

                     22                     23                     24
                      A                      A                      A
 Frequencies --    589.7338               612.5716               679.3300
 Red. masses --      1.4873                 2.0025                 2.5774
 Frc consts  --      0.3048                 0.4427                 0.7008
 IR Inten    --     36.7396                85.6571                42.8071

                     25                     26                     27
                      A                      A                      A
 Frequencies --    688.7001               693.9153               735.4968
 Red. masses --      2.9835                 2.1547                 3.7454
 Frc consts  --      0.8338                 0.6113                 1.1937
 IR Inten    --     30.5724                 0.1893                22.8944

                     28                     29                     30
                      A                      A                      A
 Frequencies --    746.9894               772.4966               779.1693
 Red. masses --      6.0622                 1.3037                 2.6724
 Frc consts  --      1.9930                 0.4584                 0.9559
 IR Inten    --      5.7796                 1.2620                 2.7231

                     31                     32                     33
                      A                      A                      A
 Frequencies --    820.4323               835.5691               848.4297
 Red. masses --      1.4257                 1.6390                 1.8416
 Frc consts  --      0.5654                 0.6742                 0.7810
 IR Inten    --     14.5534               189.0654                41.9239

                     34                     35                     36
                      A                      A                      A
 Frequencies --    860.5124               913.9029               945.6065
 Red. masses --      2.0826                 2.4822                 5.5060
 Frc consts  --      0.9086                 1.2215                 2.9007
 IR Inten    --     19.5544                 0.5746                19.2237

                     37                     38                     39
                      A                      A                      A
 Frequencies --    970.4543               992.3041              1007.8619
 Red. masses --      1.7564                 2.1626                 4.4356
 Frc consts  --      0.9746                 1.2547                 2.6546
 IR Inten    --      5.8609                23.2455                84.4553

                     40                     41                     42
                      A                      A                      A
 Frequencies --   1032.4230              1052.1374              1086.9057
 Red. masses --      3.6195                 4.6572                 1.7047
 Frc consts  --      2.2731                 3.0375                 1.1866
 IR Inten    --     15.8228                 4.5133                 9.5186

                     43                     44                     45
                      A                      A                      A
 Frequencies --   1105.3910              1114.7193              1136.9035
 Red. masses --      3.3727                 1.5550                 1.8190
 Frc consts  --      2.4281                 1.1384                 1.3853
 IR Inten    --     14.9208                41.6567                40.1801

                     46                     47                     48
                      A                      A                      A
 Frequencies --   1144.7515              1160.0912              1201.4127
 Red. masses --      2.3178                 2.2410                 1.5281
 Frc consts  --      1.7896                 1.7769                 1.2996
 IR Inten    --     57.7260               149.7513                36.1520

                     49                     50                     51
                      A                      A                      A
 Frequencies --   1255.9086              1261.3476              1278.3909
 Red. masses --      1.8985                 1.9903                 1.3929
 Frc consts  --      1.7643                 1.8657                 1.3412
 IR Inten    --     26.1392                44.4915                 3.9862

                     52                     53                     54
                      A                      A                      A
 Frequencies --   1292.9020              1307.1682              1324.8654
 Red. masses --      1.3544                 1.2724                 1.4217
 Frc consts  --      1.3339                 1.2810                 1.4703
 IR Inten    --      8.3484                 1.5224                29.7626

                     55                     56                     57
                      A                      A                      A
 Frequencies --   1330.1522              1352.7254              1379.5119
 Red. masses --      1.4616                 1.8333                 1.8236
 Frc consts  --      1.5236                 1.9765                 2.0447
 IR Inten    --     35.2334                 7.5715                 5.2117

                     58                     59                     60
                      A                      A                      A
 Frequencies --   1385.4788              1394.1656              1397.1869
 Red. masses --      1.2269                 1.1902                 3.1460
 Frc consts  --      1.3876                 1.3630                 3.6184
 IR Inten    --     15.7924                 5.9480                10.3038

                     61                     62                     63
                      A                      A                      A
 Frequencies --   1427.3453              1485.4945              1489.4746
 Red. masses --      2.7725                 1.1101                 1.1823
 Frc consts  --      3.3280                 1.4433                 1.5454
 IR Inten    --     26.3148                 1.8004                13.3318

                     64                     65                     66
                      A                      A                      A
 Frequencies --   1500.5167              1506.4066              1524.6041
 Red. masses --      2.9305                 1.0918                 1.9336
 Frc consts  --      3.8875                 1.4598                 2.6481
 IR Inten    --     28.4583                 4.9409               210.1476

                     67                     68                     69
                      A                      A                      A
 Frequencies --   1607.6292              1665.5479              1747.5758
 Red. masses --      4.3911                 1.0890                 9.2606
 Frc consts  --      6.6865                 1.7799                16.6632
 IR Inten    --      9.1300                22.9864               170.2017

                     70                     71                     72
                      A                      A                      A
 Frequencies --   1832.1424              3033.4398              3045.5944
 Red. masses --     10.2074                 1.0607                 1.0659
 Frc consts  --     20.1876                 5.7507                 5.8252
 IR Inten    --    267.1258                14.1549                23.9514

                     73                     74                     75
                      A                      A                      A
 Frequencies --   3060.9205              3075.7939              3079.8671
 Red. masses --      1.0815                 1.0619                 1.0964
 Frc consts  --      5.9702                 5.9190                 6.1273
 IR Inten    --      2.5499                10.7316                 3.2717

                     76                     77                     78
                      A                      A                      A
 Frequencies --   3100.9490              3116.3397              3229.9447
 Red. masses --      1.1055                 1.1035                 1.0958
 Frc consts  --      6.2632                 6.3141                 6.7353
 IR Inten    --     27.5329                 3.4651                 8.6659

                     79                     80                     81
                      A                      A                      A
 Frequencies --   3240.7682              3490.7211              3566.3651
 Red. masses --      1.0979                 1.0485                 1.0932
 Frc consts  --      6.7936                 7.5272                 8.1921
 IR Inten    --      1.3592                 0.8777                 0.2118

                     82                     83                     84
                      A                      A                      A
 Frequencies --   3648.1082              3655.1386              3746.0147
 Red. masses --      1.0782                 1.0808                 1.0640
 Frc consts  --      8.4544                 8.5077                 8.7966
 IR Inten    --     26.5693               112.3261                74.2774

 - Thermochemistry -
 -------------------
 Temperature   298.150 Kelvin.  Pressure   1.00000 Atm.
 Atom     1 has atomic number  8 and mass  15.99491

 Molecular mass:   226.10659 amu.
 Principal axes and moments of inertia in atomic units:
                           1         2         3
     Eigenvalues --  1260.264857841.380078500.79064
           X            0.99629   0.04522   0.07324
           Y           -0.08403   0.32652   0.94145
           Z           -0.01866   0.94411  -0.32910
 This molecule is an asymmetric top.
 Rotational symmetry number  1.
 Warning -- assumption of classical behavior for rotation
           may cause significant error
 Rotational temperatures (Kelvin)      0.06873     0.01105     0.01019
 Rotational constants (GHZ):           1.43203     0.23016     0.21230
 Zero-point vibrational energy     642338.4 (Joules/Mol)
                                  153.52256 (Kcal/Mol)
 Warning -- explicit consideration of  23 degrees of freedom as
           vibrations may cause significant error
 Vibrational temperatures:     26.78    37.14    52.72    74.49   100.74
          (Kelvin)            131.51   139.92   192.32   212.42   275.85
                              317.24   409.52   427.63   443.52   489.61
                              530.72   562.42   622.45   643.38   749.30
                              791.43   848.49   881.35   977.40   990.88
                              998.39  1058.21  1074.75  1111.45  1121.05
                             1180.42  1202.20  1220.70  1238.08  1314.90
                             1360.52  1396.27  1427.70  1450.09  1485.42
                             1513.79  1563.81  1590.41  1603.83  1635.75
                             1647.04  1669.11  1728.56  1806.97  1814.80
                             1839.32  1860.20  1880.72  1906.18  1913.79
                             1946.27  1984.81  1993.39  2005.89  2010.24
                             2053.63  2137.29  2143.02  2158.91  2167.38
                             2193.56  2313.02  2396.35  2514.37  2636.04
                             4364.44  4381.93  4403.98  4425.38  4431.24
                             4461.57  4483.71  4647.16  4662.74  5022.36
                             5131.20  5248.81  5258.92  5389.67

 Zero-point correction=                           0.244654 (Hartree/Particle)
 Thermal correction to Energy=                    0.260822
 Thermal correction to Enthalpy=                  0.261766
 Thermal correction to Gibbs Free Energy=         0.197857
 Sum of electronic and zero-point Energies=           -796.167597
 Sum of electronic and thermal Energies=              -796.151429
 Sum of electronic and thermal Enthalpies=            -796.150485
 Sum of electronic and thermal Free Energies=         -796.214394

                     E (Thermal)             CV                S
                      KCal/Mol        Cal/Mol-Kelvin    Cal/Mol-Kelvin
 Total                  163.668             58.635            134.507
 Electronic               0.000              0.000              0.000
 Translational            0.889              2.981             42.150
 Rotational               0.889              2.981             32.796
 Vibrational            161.891             52.673             59.561
 Vibration     1          0.593              1.986              6.777
 Vibration     2          0.593              1.985              6.128
 Vibration     3          0.594              1.982              5.433
 Vibration     4          0.596              1.977              4.748
 Vibration     5          0.598              1.968              4.153
 Vibration     6          0.602              1.955              3.630
 Vibration     7          0.603              1.951              3.509
 Vibration     8          0.613              1.920              2.893
 Vibration     9          0.617              1.905              2.702
 Vibration    10          0.634              1.851              2.211
 Vibration    11          0.647              1.810              1.955
 Vibration    12          0.683              1.702              1.506
 Vibration    13          0.691              1.679              1.433
 Vibration    14          0.698              1.658              1.372
 Vibration    15          0.720              1.595              1.211
 Vibration    16          0.741              1.536              1.085
 Vibration    17          0.759              1.490              0.997
 Vibration    18          0.794              1.399              0.850
 Vibration    19          0.806              1.367              0.804
 Vibration    20          0.876              1.204              0.608
 Vibration    21          0.905              1.140              0.544
 Vibration    22          0.947              1.054              0.468
 Vibration    23          0.972              1.005              0.429

 Optimization completed.
    -- Stationary point found.
 Normal termination of Gaussian 09 at Sat Jul 24 10:51:58 2021.
