 Gaussian 09, Revision D.01,
 Gaussian 09:  ES64L-G09RevD.01 24-Apr-2013

 ----------------------------------------------------------------------
 # B3LYP/6-311G(2df,2pd) EmpiricalDispersion=GD3BJ opt=calcfc freq=nora
 man nosymm integral(ultrafinegrid)
 ----------------------------------------------------------------------

 ------------------------------------------------------------
 Candidate Structure: Conf:118 OPT and FREQ calc in gas phase
 ------------------------------------------------------------
 Symbolic Z-matrix:
 Charge =  0 Multiplicity = 1

 SCF Done:  E(RB3LYP) =  -796.425926449     A.U. after   14 cycles
 SCF Done:  E(RB3LYP) =  -796.427830656     A.U. after   14 cycles
 SCF Done:  E(RB3LYP) =  -796.428259934     A.U. after   13 cycles
 SCF Done:  E(RB3LYP) =  -796.428579925     A.U. after   13 cycles
 SCF Done:  E(RB3LYP) =  -796.428413503     A.U. after   13 cycles
 SCF Done:  E(RB3LYP) =  -796.428760554     A.U. after   11 cycles
 SCF Done:  E(RB3LYP) =  -796.428583963     A.U. after   14 cycles
 SCF Done:  E(RB3LYP) =  -796.428940493     A.U. after   12 cycles
 SCF Done:  E(RB3LYP) =  -796.428949082     A.U. after    9 cycles
 SCF Done:  E(RB3LYP) =  -796.428951551     A.U. after    9 cycles
 SCF Done:  E(RB3LYP) =  -796.428951994     A.U. after    9 cycles
 Optimization completed.
    -- Stationary point found.
 Normal termination of Gaussian 09 at Sat Jul 24 07:08:33 2021.

 ----------------------------------------------------------------------
 #N Geom=AllCheck Guess=TCheck SCRF=Check GenChk RB3LYP/6-311G(2df,2pd)
  Freq
 ----------------------------------------------------------------------

 Structure from the checkpoint file:  "conf-118.chk"
 ------------------------------------------------------------
 Candidate Structure: Conf:118 OPT and FREQ calc in gas phase
 ------------------------------------------------------------
 Charge =  0 Multiplicity = 1

                          Input orientation:
 ---------------------------------------------------------------------
 Center     Atomic      Atomic             Coordinates (Angstroms)
 Number     Number       Type             X           Y           Z
 ---------------------------------------------------------------------
      1          8           0       -0.968709   -1.994846    1.740527
      2          6           0       -0.993276   -1.359744    0.680588
      3          7           0        0.107932   -0.757964    0.194392
      4          6           0        1.431220   -0.900987    0.790838
      5          6           0        1.557448   -0.092385    2.099659
      6          8           0        0.703044   -0.434670    3.049645
      7          8           0        2.385501    0.771584    2.264007
      8          6           0        2.502243   -0.523621   -0.243287
      9          6           0        2.245105    0.777293   -0.922037
     10          6           0        1.818210    1.079263   -2.192593
     11          7           0        1.666865    2.437728   -2.346326
     12          6           0        1.993585    2.954121   -1.184371
     13          7           0        2.351754    1.994817   -0.289717
     14          6           0       -2.273409   -1.176723   -0.091445
     15          6           0       -3.278549   -0.324284    0.716027
     16          7           0       -4.575846   -0.130460    0.091400
     17          1           0        0.049476   -0.175379   -0.628595
     18          1           0        1.551620   -1.950770    1.071026
     19          1           0        0.083910   -1.140593    2.722962
     20          1           0        2.531579   -1.304275   -1.002873
     21          1           0        3.467605   -0.517965    0.261464
     22          1           0        1.639838    0.394227   -3.005499
     23          1           0        1.990318    4.002364   -0.936945
     24          1           0        2.586911    2.088546    0.688450
     25          1           0       -2.700078   -2.167037   -0.257456
     26          1           0       -2.090428   -0.718915   -1.065131
     27          1           0       -3.420754   -0.795567    1.687876
     28          1           0       -2.838707    0.657092    0.905616
     29          1           0       -4.486049    0.326217   -0.807954
     30          1           0       -5.038261   -1.017062   -0.068759
 ---------------------------------------------------------------------

 SCF Done:  E(RB3LYP) =  -796.428951995     A.U. after    1 cycles

 Alpha  occ. eigenvalues --  -19.15961 -19.11958 -19.11830 -14.37116 -14.36438
 Alpha  occ. eigenvalues --  -14.30238 -14.29215 -10.31282 -10.30109 -10.25105
 Alpha  occ. eigenvalues --  -10.22489 -10.21180 -10.21143 -10.20794 -10.19789
 Alpha  occ. eigenvalues --  -10.18778  -1.11375  -1.07262  -1.03081  -1.02049
 Alpha  occ. eigenvalues --   -0.96352  -0.90098  -0.87615  -0.82430  -0.78050
 Alpha  occ. eigenvalues --   -0.74777  -0.68599  -0.65576  -0.62468  -0.62414
 Alpha  occ. eigenvalues --   -0.61025  -0.59924  -0.56584  -0.55488  -0.52813
 Alpha  occ. eigenvalues --   -0.51596  -0.51008  -0.48026  -0.46846  -0.46506
 Alpha  occ. eigenvalues --   -0.45667  -0.44982  -0.44275  -0.43699  -0.42724
 Alpha  occ. eigenvalues --   -0.41849  -0.41686  -0.41175  -0.40052  -0.39295
 Alpha  occ. eigenvalues --   -0.38065  -0.36640  -0.33086  -0.31928  -0.29766
 Alpha  occ. eigenvalues --   -0.29036  -0.28005  -0.27486  -0.25477  -0.24021
 Alpha virt. eigenvalues --   -0.02217  -0.00988   0.01018   0.01805   0.03106
 Alpha virt. eigenvalues --    0.03461   0.05847   0.06048   0.06424   0.06454
 Alpha virt. eigenvalues --    0.07799   0.08543   0.10124   0.10693   0.10856

 Mulliken charges:
               1
     1  O   -0.477558
     2  C    0.444815
     3  N   -0.283070
     4  C   -0.025176
     5  C    0.569969
     6  O   -0.303594
     7  O   -0.400461
     8  C    0.008740
     9  C    0.071967
    10  C    0.079259
    11  N   -0.352740
    12  C    0.236112
    13  N   -0.238401
    14  C   -0.020143
    15  C    0.167723
    16  N   -0.331090
    17  H    0.130271
    18  H    0.030639
    19  H    0.214238
    20  H    0.020108
    21  H    0.031218
    22  H    0.014167
    23  H    0.020741
    24  H    0.130567
    25  H    0.015881
    26  H   -0.001048
    27  H    0.031359
    28  H    0.017534
    29  H    0.097695
    30  H    0.100281
 Sum of Mulliken charges =   0.00000

 Dipole moment (field-independent basis, Debye):
    X=             -0.7837    Y=             -2.3890    Z=             -2.1696  Tot=              3.3210
 Quadrupole moment (field-independent basis, Debye-Ang):
   XX=            -94.1878   YY=            -94.2313   ZZ=           -113.0075
   XY=             -0.5410   XZ=              5.7122   YZ=              8.9367

  Exact polarizability: 141.301  13.498 133.612   3.288 -11.887 131.059
 Approx polarizability: 189.654  16.380 210.206   9.879 -13.717 209.031

                      1                      2                      3
                      A                      A                      A
 Frequencies --     13.4945                42.9473                55.0487
 Red. masses --      4.2887                 6.5538                 3.0849
 Frc consts  --      0.0005                 0.0071                 0.0055
 IR Inten    --      0.1745                 1.1092                 4.0924

                      4                      5                      6
                      A                      A                      A
 Frequencies --     73.5863                85.3642                93.9962
 Red. masses --      4.5726                 2.7931                 4.7127
 Frc consts  --      0.0146                 0.0120                 0.0245
 IR Inten    --      6.1292                 0.5453                 4.2098

                      7                      8                      9
                      A                      A                      A
 Frequencies --    137.3857               155.7284               201.6122
 Red. masses --      8.9325                 5.4876                 4.3242
 Frc consts  --      0.0993                 0.0784                 0.1036
 IR Inten    --      9.3639                 8.0751                10.2229

                     10                     11                     12
                      A                      A                      A
 Frequencies --    212.2994               236.8773               278.4593
 Red. masses --      4.6696                 7.2133                 6.6392
 Frc consts  --      0.1240                 0.2385                 0.3033
 IR Inten    --      3.7995                15.3749                 0.8339

                     13                     14                     15
                      A                      A                      A
 Frequencies --    297.8817               305.7920               348.4539
 Red. masses --      1.1283                 5.2751                 4.5392
 Frc consts  --      0.0590                 0.2906                 0.3247
 IR Inten    --     35.2635                 1.8110                 4.0852

                     16                     17                     18
                      A                      A                      A
 Frequencies --    365.0934               385.0676               445.5125
 Red. masses --      2.3874                 4.1953                 3.3930
 Frc consts  --      0.1875                 0.3665                 0.3968
 IR Inten    --      6.1641                 4.2302                22.5461

                     19                     20                     21
                      A                      A                      A
 Frequencies --    568.7318               578.3641               607.6560
 Red. masses --      1.4915                 3.4626                 3.4920
 Frc consts  --      0.2843                 0.6824                 0.7597
 IR Inten    --     30.7395                18.5703                10.6256

                     22                     23                     24
                      A                      A                      A
 Frequencies --    640.8004               668.9375               678.6307
 Red. masses --      3.4057                 2.9206                 3.3750
 Frc consts  --      0.8240                 0.7700                 0.9158
 IR Inten    --     12.6452                 7.8003                34.5192

                     25                     26                     27
                      A                      A                      A
 Frequencies --    735.0989               745.3155               767.4285
 Red. masses --      1.4689                 2.3964                 5.5502
 Frc consts  --      0.4677                 0.7843                 1.9259
 IR Inten    --     23.8913                44.6784                 5.1824

                     28                     29                     30
                      A                      A                      A
 Frequencies --    772.9807               791.5019               828.7367
 Red. masses --      1.2802                 4.7368                 1.4946
 Frc consts  --      0.4507                 1.7484                 0.6048
 IR Inten    --      2.6999                 2.9063               258.7521

                     31                     32                     33
                      A                      A                      A
 Frequencies --    839.6003               848.9091               864.9098
 Red. masses --      1.4159                 1.7635                 2.1596
 Frc consts  --      0.5881                 0.7488                 0.9518
 IR Inten    --     17.7655                15.0685                12.0916

                     34                     35                     36
                      A                      A                      A
 Frequencies --    942.9086               948.0503               957.8786
 Red. masses --      1.7379                 5.2624                 1.4967
 Frc consts  --      0.9103                 2.7867                 0.8091
 IR Inten    --     38.5217                10.8202                46.6840

                     37                     38                     39
                      A                      A                      A
 Frequencies --    981.2519               991.5908              1008.2906
 Red. masses --      1.3913                 3.7545                 4.6448
 Frc consts  --      0.7893                 2.1750                 2.7822
 IR Inten    --      0.5618                10.3473                64.3672

                     40                     41                     42
                      A                      A                      A
 Frequencies --   1016.9676              1059.7441              1092.4376
 Red. masses --      4.0377                 2.3736                 2.0899
 Frc consts  --      2.4604                 1.5706                 1.4695
 IR Inten    --     13.4461                 9.4578                 4.6557

                     43                     44                     45
                      A                      A                      A
 Frequencies --   1110.0151              1117.8360              1141.2106
 Red. masses --      3.4806                 1.5761                 1.4979
 Frc consts  --      2.5267                 1.1604                 1.1494
 IR Inten    --     10.9055                43.9341                 5.3463

                     46                     47                     48
                      A                      A                      A
 Frequencies --   1145.2985              1221.9431              1245.7956
 Red. masses --      2.1577                 1.6010                 2.1647
 Frc consts  --      1.6675                 1.4085                 1.9795
 IR Inten    --      3.7440                11.6903                29.3960

                     49                     50                     51
                      A                      A                      A
 Frequencies --   1261.6775              1262.4494              1288.6477
 Red. masses --      1.7461                 2.0194                 1.3266
 Frc consts  --      1.6376                 1.8963                 1.2979
 IR Inten    --     30.1585                 1.0792                 5.3931

                     52                     53                     54
                      A                      A                      A
 Frequencies --   1293.1665              1306.5707              1352.0516
 Red. masses --      1.3503                 1.4771                 1.7267
 Frc consts  --      1.3304                 1.4856                 1.8598
 IR Inten    --      1.9132                22.5125                12.9453

                     55                     56                     57
                      A                      A                      A
 Frequencies --   1370.3807              1383.8896              1385.4341
 Red. masses --      1.6407                 1.5002                 1.2509
 Frc consts  --      1.8154                 1.6928                 1.4146
 IR Inten    --     16.2185                 6.2311                17.2138

                     58                     59                     60
                      A                      A                      A
 Frequencies --   1394.0527              1398.5682              1425.9606
 Red. masses --      1.1836                 3.0330                 2.7136
 Frc consts  --      1.3553                 3.4953                 3.2509
 IR Inten    --      5.5176                23.7961                54.4732

                     61                     62                     63
                      A                      A                      A
 Frequencies --   1474.4916              1476.4371              1483.5670
 Red. masses --      1.1533                 1.3115                 1.1383
 Frc consts  --      1.4773                 1.6844                 1.4761
 IR Inten    --     88.0171               138.8524                 2.0751

                     64                     65                     66
                      A                      A                      A
 Frequencies --   1502.0727              1505.0803              1543.1463
 Red. masses --      3.3230                 1.0919                 2.4286
 Frc consts  --      4.4173                 1.4573                 3.4073
 IR Inten    --     15.1942                 5.7607               460.0403

                     67                     68                     69
                      A                      A                      A
 Frequencies --   1602.3714              1665.5567              1681.6537
 Red. masses --      4.3552                 1.1157                 6.4305
 Frc consts  --      6.5885                 1.8235                10.7143
 IR Inten    --     14.8888                43.8910               185.7378

                     70                     71                     72
                      A                      A                      A
 Frequencies --   1811.0314              3035.6229              3035.8243
 Red. masses --      7.9386                 1.0791                 1.0641
 Frc consts  --     15.3408                 5.8587                 5.7779
 IR Inten    --    341.8440                 3.3700                 5.6580

                     73                     74                     75
                      A                      A                      A
 Frequencies --   3043.7612              3063.6980              3078.9061
 Red. masses --      1.0638                 1.0605                 1.0984
 Frc consts  --      5.8066                 5.8649                 6.1350
 IR Inten    --     29.5895                18.6099                 0.8787

                     76                     77                     78
                      A                      A                      A
 Frequencies --   3100.5814              3104.0314              3202.5160
 Red. masses --      1.1054                 1.1042                 1.0751
 Frc consts  --      6.2611                 6.2685                 6.4968
 IR Inten    --     22.9575                 4.7309               721.5407

                     79                     80                     81
                      A                      A                      A
 Frequencies --   3224.9390              3244.8201              3495.4974
 Red. masses --      1.0960                 1.0979                 1.0484
 Frc consts  --      6.7162                 6.8106                 7.5472
 IR Inten    --      7.4345                 0.8577                 0.9765

                     82                     83                     84
                      A                      A                      A
 Frequencies --   3560.8085              3572.5871              3579.5812
 Red. masses --      1.0787                 1.0936                 1.0825
 Frc consts  --      8.0581                 8.2238                 8.1725
 IR Inten    --    125.5978                 0.6500               198.1840

 - Thermochemistry -
 -------------------
 Temperature   298.150 Kelvin.  Pressure   1.00000 Atm.
 Atom     1 has atomic number  8 and mass  15.99491

 Molecular mass:   226.10659 amu.
 Principal axes and moments of inertia in atomic units:
                           1         2         3
     Eigenvalues --  2708.212535170.580136676.43532
           X            0.86912   0.43142  -0.24189
           Y            0.42399  -0.39802   0.81351
           Z           -0.25469   0.80960   0.52885
 This molecule is an asymmetric top.
 Rotational symmetry number  1.
 Warning -- assumption of classical behavior for rotation
           may cause significant error
 Rotational temperatures (Kelvin)      0.03198     0.01675     0.01297
 Rotational constants (GHZ):           0.66640     0.34904     0.27032
 Zero-point vibrational energy     645175.1 (Joules/Mol)
                                  154.20055 (Kcal/Mol)
 Warning -- explicit consideration of  21 degrees of freedom as
           vibrations may cause significant error
 Vibrational temperatures:     19.42    61.79    79.20   105.87   122.82
          (Kelvin)            135.24   197.67   224.06   290.07   305.45
                              340.81   400.64   428.58   439.97   501.35
                              525.29   554.03   640.99   818.28   832.14
                              874.28   921.97   962.45   976.40  1057.64
                             1072.34  1104.16  1112.15  1138.79  1192.37
                             1208.00  1221.39  1244.41  1356.63  1364.03
                             1378.17  1411.80  1426.68  1450.70  1463.19
                             1524.73  1571.77  1597.06  1608.31  1641.95
                             1647.83  1758.10  1792.42  1815.27  1816.38
                             1854.07  1860.58  1879.86  1945.30  1971.67
                             1991.11  1993.33  2005.73  2012.23  2051.64
                             2121.46  2124.26  2134.52  2161.14  2165.47
                             2220.24  2305.45  2396.36  2419.52  2605.67
                             4367.58  4367.87  4379.29  4407.97  4429.85
                             4461.04  4466.00  4607.70  4639.96  4668.57
                             5029.23  5123.20  5140.15  5150.21

 Zero-point correction=                           0.245734 (Hartree/Particle)
 Thermal correction to Energy=                    0.261156
 Thermal correction to Enthalpy=                  0.262100
 Thermal correction to Gibbs Free Energy=         0.200621
 Sum of electronic and zero-point Energies=           -796.183218
 Sum of electronic and thermal Energies=              -796.167796
 Sum of electronic and thermal Enthalpies=            -796.166852
 Sum of electronic and thermal Free Energies=         -796.228331

                     E (Thermal)             CV                S
                      KCal/Mol        Cal/Mol-Kelvin    Cal/Mol-Kelvin
 Total                  163.878             56.870            129.393
 Electronic               0.000              0.000              0.000
 Translational            0.889              2.981             42.150
 Rotational               0.889              2.981             32.902
 Vibrational            162.100             50.908             54.341
 Vibration     1          0.593              1.987              7.416
 Vibration     2          0.595              1.980              5.118
 Vibration     3          0.596              1.976              4.627
 Vibration     4          0.599              1.966              4.055
 Vibration     5          0.601              1.959              3.764
 Vibration     6          0.603              1.953              3.575
 Vibration     7          0.614              1.916              2.840
 Vibration     8          0.620              1.896              2.601
 Vibration     9          0.639              1.838              2.118
 Vibration    10          0.643              1.822              2.024
 Vibration    11          0.656              1.784              1.826
 Vibration    12          0.679              1.713              1.543
 Vibration    13          0.691              1.678              1.429
 Vibration    14          0.696              1.663              1.385
 Vibration    15          0.726              1.578              1.173
 Vibration    16          0.738              1.544              1.100
 Vibration    17          0.754              1.502              1.019
 Vibration    18          0.805              1.371              0.809
 Vibration    19          0.925              1.099              0.507
 Vibration    20          0.935              1.078              0.488
 Vibration    21          0.966              1.016              0.437

 Optimization completed.
    -- Stationary point found.
 Normal termination of Gaussian 09 at Sat Jul 24 10:52:25 2021.
