 Gaussian 09, Revision D.01,
 Gaussian 09:  ES64L-G09RevD.01 24-Apr-2013

 ----------------------------------------------------------------------
 # B3LYP/6-311G(2df,2pd) EmpiricalDispersion=GD3BJ opt=calcfc freq=nora
 man nosymm integral(ultrafinegrid)
 ----------------------------------------------------------------------

 ------------------------------------------------------------
 Candidate Structure: Conf:900 OPT and FREQ calc in gas phase
 ------------------------------------------------------------
 Symbolic Z-matrix:
 Charge =  0 Multiplicity = 1

 SCF Done:  E(RB3LYP) =  -796.422971623     A.U. after   13 cycles
 SCF Done:  E(RB3LYP) =  -796.424224449     A.U. after   11 cycles
 SCF Done:  E(RB3LYP) =  -796.424332937     A.U. after   11 cycles
 SCF Done:  E(RB3LYP) =  -796.424257057     A.U. after   12 cycles
 SCF Done:  E(RB3LYP) =  -796.424347142     A.U. after   11 cycles
 SCF Done:  E(RB3LYP) =  -796.424347450     A.U. after    8 cycles
 SCF Done:  E(RB3LYP) =  -796.424347487     A.U. after    7 cycles
 Optimization completed.
    -- Stationary point found.
 Normal termination of Gaussian 09 at Sat Jul 24 05:44:50 2021.

 ----------------------------------------------------------------------
 #N Geom=AllCheck Guess=TCheck SCRF=Check GenChk RB3LYP/6-311G(2df,2pd)
  Freq
 ----------------------------------------------------------------------

 Structure from the checkpoint file:  "conf-900.chk"
 ------------------------------------------------------------
 Candidate Structure: Conf:900 OPT and FREQ calc in gas phase
 ------------------------------------------------------------
 Charge =  0 Multiplicity = 1

                          Input orientation:
 ---------------------------------------------------------------------
 Center     Atomic      Atomic             Coordinates (Angstroms)
 Number     Number       Type             X           Y           Z
 ---------------------------------------------------------------------
      1          8           0       -0.785689    0.515172   -1.147294
      2          6           0       -1.199043   -0.569593   -0.741767
      3          7           0       -0.424588   -1.416693   -0.035903
      4          6           0        0.961731   -1.143397    0.265944
      5          6           0        1.593120   -2.446723    0.702340
      6          8           0        2.920506   -2.325821    0.844529
      7          8           0        0.987927   -3.464902    0.920555
      8          6           0        1.156455   -0.033913    1.360283
      9          6           0        1.939307    1.135108    0.886513
     10          6           0        3.114464    1.703411    1.303936
     11          7           0        3.434131    2.788234    0.521802
     12          6           0        2.467309    2.871950   -0.363273
     13          7           0        1.535232    1.897920   -0.186430
     14          6           0       -2.613631   -1.047626   -1.014557
     15          6           0       -3.540602    0.098824   -1.395973
     16          7           0       -3.646583    1.045539   -0.284859
     17          1           0       -0.776805   -2.314120    0.260925
     18          1           0        1.470156   -0.811809   -0.639647
     19          1           0        3.258454   -3.179108    1.151845
     20          1           0        0.156479    0.264945    1.677935
     21          1           0        1.655485   -0.449806    2.233466
     22          1           0        3.741635    1.390014    2.121839
     23          1           0        2.391238    3.608964   -1.145188
     24          1           0        0.706581    1.690918   -0.733125
     25          1           0       -2.998522   -1.552161   -0.126956
     26          1           0       -2.567812   -1.784974   -1.821268
     27          1           0       -4.530674   -0.312708   -1.594753
     28          1           0       -3.179282    0.550508   -2.326501
     29          1           0       -2.807111    1.611890   -0.257070
     30          1           0       -4.419732    1.680250   -0.437221
 ---------------------------------------------------------------------

 SCF Done:  E(RB3LYP) =  -796.424347487     A.U. after    1 cycles

 Alpha  occ. eigenvalues --  -19.19368 -19.13904 -19.10870 -14.35542 -14.34385
 Alpha  occ. eigenvalues --  -14.28776 -14.27305 -10.32961 -10.29044 -10.24677
 Alpha  occ. eigenvalues --  -10.20615 -10.19969 -10.19828 -10.19062 -10.18826
 Alpha  occ. eigenvalues --  -10.16672  -1.14049  -1.06287  -1.05127  -1.00132
 Alpha  occ. eigenvalues --   -0.95282  -0.88736  -0.85789  -0.81511  -0.77035
 Alpha  occ. eigenvalues --   -0.74317  -0.68456  -0.66142  -0.61629  -0.60877
 Alpha  occ. eigenvalues --   -0.59914  -0.57880  -0.54324  -0.53420  -0.51871
 Alpha  occ. eigenvalues --   -0.51190  -0.49740  -0.48942  -0.48413  -0.47718
 Alpha  occ. eigenvalues --   -0.45422  -0.44191  -0.43587  -0.42919  -0.41963
 Alpha  occ. eigenvalues --   -0.40153  -0.39830  -0.39540  -0.39333  -0.38626
 Alpha  occ. eigenvalues --   -0.37433  -0.36777  -0.35429  -0.31442  -0.28781
 Alpha  occ. eigenvalues --   -0.28447  -0.26969  -0.25667  -0.24708  -0.21860
 Alpha virt. eigenvalues --   -0.02325  -0.00151   0.01544   0.02729   0.03217
 Alpha virt. eigenvalues --    0.04862   0.06141   0.06477   0.07108   0.07462
 Alpha virt. eigenvalues --    0.07853   0.08552   0.09261   0.10523   0.11208

 Mulliken charges:
               1
     1  O   -0.488921
     2  C    0.516437
     3  N   -0.316235
     4  C    0.090459
     5  C    0.519679
     6  O   -0.334342
     7  O   -0.377271
     8  C    0.008195
     9  C    0.087094
    10  C    0.106418
    11  N   -0.359377
    12  C    0.228852
    13  N   -0.241182
    14  C   -0.048391
    15  C    0.167426
    16  N   -0.329086
    17  H    0.110148
    18  H    0.028171
    19  H    0.227459
    20  H    0.030674
    21  H    0.004994
    22  H   -0.002873
    23  H    0.011506
    24  H    0.137668
    25  H    0.010229
    26  H    0.019308
    27  H   -0.002222
    28  H   -0.005315
    29  H    0.114024
    30  H    0.086478
 Sum of Mulliken charges =   0.00000

 Dipole moment (field-independent basis, Debye):
    X=             -2.8234    Y=             -3.5060    Z=             -0.9470  Tot=              4.6000
 Quadrupole moment (field-independent basis, Debye-Ang):
   XX=            -98.3093   YY=            -98.2817   ZZ=            -91.3695
   XY=            -17.5946   XZ=              4.9327   YZ=             -4.5157

  Exact polarizability: 152.512  11.840 147.109  19.936 -13.570 109.506
 Approx polarizability: 208.992  22.686 216.457  19.490 -26.661 176.261

                      1                      2                      3
                      A                      A                      A
 Frequencies --      5.7444                31.9350                52.8455
 Red. masses --      3.8029                 5.9690                 4.5600
 Frc consts  --      0.0001                 0.0036                 0.0075
 IR Inten    --      1.0026                 1.2558                 1.1294

                      4                      5                      6
                      A                      A                      A
 Frequencies --     58.8220                77.7377                84.2188
 Red. masses --      9.4284                 4.9262                 6.1215
 Frc consts  --      0.0192                 0.0175                 0.0256
 IR Inten    --      1.1665                 1.0285                 5.5618

                      7                      8                      9
                      A                      A                      A
 Frequencies --    112.5741               136.2079               143.8448
 Red. masses --      4.3857                 4.6365                 4.4901
 Frc consts  --      0.0327                 0.0507                 0.0547
 IR Inten    --      2.4100                 3.6962                 3.7061

                     10                     11                     12
                      A                      A                      A
 Frequencies --    194.5940               249.1828               290.9660
 Red. masses --      4.6497                 2.3291                 1.8307
 Frc consts  --      0.1037                 0.0852                 0.0913
 IR Inten    --      2.3067                32.9847                33.5699

                     13                     14                     15
                      A                      A                      A
 Frequencies --    293.0643               304.0370               324.7058
 Red. masses --      4.2708                 1.7026                 3.9538
 Frc consts  --      0.2161                 0.0927                 0.2456
 IR Inten    --      2.6275                 9.3739                 3.9846

                     16                     17                     18
                      A                      A                      A
 Frequencies --    353.0601               406.9656               437.4091
 Red. masses --      5.2284                 3.6105                 2.6611
 Frc consts  --      0.3840                 0.3523                 0.3000
 IR Inten    --      2.0070                 9.9509                26.9833

                     19                     20                     21
                      A                      A                      A
 Frequencies --    537.4550               566.0485               594.1909
 Red. masses --      1.5014                 3.0372                 1.4593
 Frc consts  --      0.2555                 0.5734                 0.3036
 IR Inten    --     56.2541                34.0217                66.0536

                     22                     23                     24
                      A                      A                      A
 Frequencies --    631.1264               636.3047               652.7943
 Red. masses --      2.8881                 2.5645                 2.9381
 Frc consts  --      0.6778                 0.6118                 0.7377
 IR Inten    --     26.3424                 9.0776                 0.1234

                     25                     26                     27
                      A                      A                      A
 Frequencies --    680.3358               682.4978               723.6866
 Red. masses --      2.9475                 3.3860                 3.3939
 Frc consts  --      0.8038                 0.9293                 1.0473
 IR Inten    --      4.3337                48.6342                17.2097

                     28                     29                     30
                      A                      A                      A
 Frequencies --    772.2196               776.4309               827.6666
 Red. masses --      1.1086                 4.1621                 1.4303
 Frc consts  --      0.3895                 1.4783                 0.5773
 IR Inten    --     30.3656                13.0883                16.8992

                     31                     32                     33
                      A                      A                      A
 Frequencies --    845.3612               861.4707               868.8361
 Red. masses --      1.5824                 1.9804                 1.8136
 Frc consts  --      0.6663                 0.8659                 0.8066
 IR Inten    --     18.4056                20.0509                72.8830

                     34                     35                     36
                      A                      A                      A
 Frequencies --    894.9700               906.4667               948.9547
 Red. masses --      1.8906                 2.0262                 5.6845
 Frc consts  --      0.8922                 0.9809                 3.0160
 IR Inten    --     12.2328                25.7036                21.5805

                     37                     38                     39
                      A                      A                      A
 Frequencies --    958.0727               983.3577              1022.7799
 Red. masses --      2.7090                 4.2732                 2.9171
 Frc consts  --      1.4651                 2.4346                 1.7979
 IR Inten    --      6.3041                 6.5443                23.2683

                     40                     41                     42
                      A                      A                      A
 Frequencies --   1029.2873              1063.0789              1102.5174
 Red. masses --      3.5829                 2.4512                 2.6783
 Frc consts  --      2.2364                 1.6321                 1.9182
 IR Inten    --      0.8401                15.5367                32.6312

                     43                     44                     45
                      A                      A                      A
 Frequencies --   1127.8618              1130.5243              1145.2685
 Red. masses --      1.8567                 1.8038                 2.1387
 Frc consts  --      1.3916                 1.3583                 1.6528
 IR Inten    --     38.1999                31.9508                 1.3027

                     46                     47                     48
                      A                      A                      A
 Frequencies --   1171.4404              1187.3902              1210.3826
 Red. masses --      1.6819                 2.0526                 1.3424
 Frc consts  --      1.3599                 1.7050                 1.1587
 IR Inten    --    126.0794                71.8751                 6.8442

                     49                     50                     51
                      A                      A                      A
 Frequencies --   1237.1476              1257.9593              1261.9837
 Red. masses --      1.2624                 1.5316                 2.2450
 Frc consts  --      1.1384                 1.4280                 2.1066
 IR Inten    --      8.1013                23.8481                 5.5271

                     52                     53                     54
                      A                      A                      A
 Frequencies --   1280.9851              1294.0933              1331.9449
 Red. masses --      1.4254                 1.3054                 1.3905
 Frc consts  --      1.3781                 1.2880                 1.4534
 IR Inten    --      8.9420                12.1208                 0.3511

                     55                     56                     57
                      A                      A                      A
 Frequencies --   1353.5708              1359.9925              1384.5316
 Red. masses --      1.2538                 1.3977                 1.5611
 Frc consts  --      1.3534                 1.5231                 1.7632
 IR Inten    --      4.1025                31.1855                30.3658

                     58                     59                     60
                      A                      A                      A
 Frequencies --   1389.3155              1423.0362              1425.4828
 Red. masses --      4.0176                 2.2571                 1.4342
 Frc consts  --      4.5690                 2.6930                 1.7171
 IR Inten    --      9.7608                75.6165                20.9921

                     61                     62                     63
                      A                      A                      A
 Frequencies --   1442.1992              1451.0134              1480.5993
 Red. masses --      2.4285                 1.1112                 1.1526
 Frc consts  --      2.9761                 1.3784                 1.4887
 IR Inten    --     74.2017                17.0819                14.1533

                     64                     65                     66
                      A                      A                      A
 Frequencies --   1501.6436              1502.3767              1545.7572
 Red. masses --      1.1666                 2.6569                 2.4733
 Frc consts  --      1.5499                 3.5334                 3.4818
 IR Inten    --      2.0576                22.9461               324.2053

                     67                     68                     69
                      A                      A                      A
 Frequencies --   1613.6637              1656.0274              1715.8625
 Red. masses --      4.3024                 1.1569                 5.7398
 Frc consts  --      6.6006                 1.8693                 9.9566
 IR Inten    --     18.4406                78.8214               160.0084

                     70                     71                     72
                      A                      A                      A
 Frequencies --   1815.6810              2991.0192              3029.7300
 Red. masses --      9.7614                 1.0703                 1.0624
 Frc consts  --     18.9602                 5.6416                 5.7455
 IR Inten    --    284.1276                50.8453                13.5655

                     73                     74                     75
                      A                      A                      A
 Frequencies --   3047.1931              3067.8600              3068.2862
 Red. masses --      1.0656                 1.0918                 1.0834
 Frc consts  --      5.8295                 6.0545                 6.0097
 IR Inten    --     16.0902                34.6534                 9.0662

                     76                     77                     78
                      A                      A                      A
 Frequencies --   3079.1726              3101.8958              3231.4738
 Red. masses --      1.0992                 1.0978                 1.0957
 Frc consts  --      6.1404                 6.2232                 6.7412
 IR Inten    --     19.3482                 9.6725                 9.7412

                     79                     80                     81
                      A                      A                      A
 Frequencies --   3241.0364              3502.6773              3509.5304
 Red. masses --      1.0980                 1.0498                 1.0842
 Frc consts  --      6.7952                 7.5882                 7.8680
 IR Inten    --      1.2824                 8.6738               395.6193

                     82                     83                     84
                      A                      A                      A
 Frequencies --   3575.8674              3594.6133              3754.9413
 Red. masses --      1.0924                 1.0776                 1.0641
 Frc consts  --      8.2300                 8.2034                 8.8399
 IR Inten    --      3.4207                85.3695                88.9452

 - Thermochemistry -
 -------------------
 Temperature   298.150 Kelvin.  Pressure   1.00000 Atm.
 Atom     1 has atomic number  8 and mass  15.99491

 Molecular mass:   226.10659 amu.
 Principal axes and moments of inertia in atomic units:
                           1         2         3
     Eigenvalues --  3024.257214792.339907328.79084
           X            0.94318  -0.14851  -0.29724
           Y            0.19615   0.97091   0.13732
           Z            0.26821  -0.18782   0.94488
 This molecule is an asymmetric top.
 Rotational symmetry number  1.
 Warning -- assumption of classical behavior for rotation
           may cause significant error
 Rotational temperatures (Kelvin)      0.02864     0.01807     0.01182
 Rotational constants (GHZ):           0.59676     0.37659     0.24625
 Zero-point vibrational energy     643691.7 (Joules/Mol)
                                  153.84602 (Kcal/Mol)
 Warning -- explicit consideration of  21 degrees of freedom as
           vibrations may cause significant error
 Vibrational temperatures:      8.26    45.95    76.03    84.63   111.85
          (Kelvin)            121.17   161.97   195.97   206.96   279.98
                              358.52   418.63   421.65   437.44   467.18
                              507.97   585.53   629.33   773.28   814.42
                              854.91   908.05   915.50   939.22   978.85
                              981.96  1041.22  1111.05  1117.11  1190.83
                             1216.28  1239.46  1250.06  1287.66  1304.20
                             1365.33  1378.45  1414.83  1471.55  1480.91
                             1529.53  1586.27  1622.74  1626.57  1647.78
                             1685.44  1708.39  1741.47  1779.98  1809.92
                             1815.71  1843.05  1861.91  1916.37  1947.48
                             1956.72  1992.03  1998.91  2047.43  2050.95
                             2075.00  2087.68  2130.25  2160.53  2161.58
                             2224.00  2321.70  2382.65  2468.74  2612.36
                             4303.40  4359.10  4384.23  4413.96  4414.57
                             4430.24  4462.93  4649.36  4663.12  5039.57
                             5049.43  5144.87  5171.84  5402.52

 Zero-point correction=                           0.245169 (Hartree/Particle)
 Thermal correction to Energy=                    0.261055
 Thermal correction to Enthalpy=                  0.261999
 Thermal correction to Gibbs Free Energy=         0.198053
 Sum of electronic and zero-point Energies=           -796.179178
 Sum of electronic and thermal Energies=              -796.163292
 Sum of electronic and thermal Enthalpies=            -796.162348
 Sum of electronic and thermal Free Energies=         -796.226295

                     E (Thermal)             CV                S
                      KCal/Mol        Cal/Mol-Kelvin    Cal/Mol-Kelvin
 Total                  163.815             57.799            134.587
 Electronic               0.000              0.000              0.000
 Translational            0.889              2.981             42.150
 Rotational               0.889              2.981             33.029
 Vibrational            162.037             51.837             59.408
 Vibration     1          0.593              1.987              9.113
 Vibration     2          0.594              1.983              5.705
 Vibration     3          0.596              1.976              4.708
 Vibration     4          0.596              1.974              4.496
 Vibration     5          0.599              1.964              3.947
 Vibration     6          0.601              1.960              3.790
 Vibration     7          0.607              1.939              3.224
 Vibration     8          0.614              1.917              2.856
 Vibration     9          0.616              1.909              2.752
 Vibration    10          0.635              1.847              2.184
 Vibration    11          0.662              1.764              1.736
 Vibration    12          0.687              1.691              1.468
 Vibration    13          0.688              1.687              1.456
 Vibration    14          0.695              1.666              1.395
 Vibration    15          0.709              1.626              1.286
 Vibration    16          0.729              1.569              1.153
 Vibration    17          0.772              1.455              0.937
 Vibration    18          0.798              1.389              0.835
 Vibration    19          0.892              1.167              0.571
 Vibration    20          0.922              1.105              0.512
 Vibration    21          0.952              1.044              0.460

 Normal termination of Gaussian 09 at Sat Jul 24 09:16:58 2021.
