 Gaussian 09, Revision D.01,
 Gaussian 09:  ES64L-G09RevD.01 24-Apr-2013

 ----------------------------------------------------------------------
 # B3LYP/6-311G(2df,2pd) EmpiricalDispersion=GD3BJ opt=calcfc freq=nora
 man nosymm integral(ultrafinegrid)
 ----------------------------------------------------------------------

 ------------------------------------------------------------
 Candidate Structure: Conf:150 OPT and FREQ calc in gas phase
 ------------------------------------------------------------
 Symbolic Z-matrix:
 Charge =  0 Multiplicity = 1

 SCF Done:  E(RB3LYP) =  -796.417783018     A.U. after   13 cycles
 SCF Done:  E(RB3LYP) =  -796.418240692     A.U. after   14 cycles
 SCF Done:  E(RB3LYP) =  -796.371444250     A.U. after   13 cycles
 SCF Done:  E(RB3LYP) =  -796.418246915     A.U. after    8 cycles
 SCF Done:  E(RB3LYP) =  -796.419011299     A.U. after   12 cycles
 SCF Done:  E(RB3LYP) =  -796.418867251     A.U. after   12 cycles
 SCF Done:  E(RB3LYP) =  -796.417571839     A.U. after   11 cycles
 SCF Done:  E(RB3LYP) =  -796.419036599     A.U. after    9 cycles
 SCF Done:  E(RB3LYP) =  -796.419109763     A.U. after   10 cycles
 SCF Done:  E(RB3LYP) =  -796.419143756     A.U. after   10 cycles
 SCF Done:  E(RB3LYP) =  -796.419157420     A.U. after   10 cycles
 SCF Done:  E(RB3LYP) =  -796.419170104     A.U. after    9 cycles
 SCF Done:  E(RB3LYP) =  -796.419174569     A.U. after    9 cycles
 SCF Done:  E(RB3LYP) =  -796.419175054     A.U. after    9 cycles
 SCF Done:  E(RB3LYP) =  -796.419175131     A.U. after    7 cycles
 SCF Done:  E(RB3LYP) =  -796.419175146     A.U. after    6 cycles
 Optimization completed.
    -- Stationary point found.
 Normal termination of Gaussian 09 at Sat Jul 24 08:14:13 2021.

 ----------------------------------------------------------------------
 #N Geom=AllCheck Guess=TCheck SCRF=Check GenChk RB3LYP/6-311G(2df,2pd)
  Freq
 ----------------------------------------------------------------------

 Structure from the checkpoint file:  "conf-150.chk"
 ------------------------------------------------------------
 Candidate Structure: Conf:150 OPT and FREQ calc in gas phase
 ------------------------------------------------------------
 Charge =  0 Multiplicity = 1

                          Input orientation:
 ---------------------------------------------------------------------
 Center     Atomic      Atomic             Coordinates (Angstroms)
 Number     Number       Type             X           Y           Z
 ---------------------------------------------------------------------
      1          8           0       -1.130089   -1.885852   -0.740304
      2          6           0       -1.278928   -0.753161   -0.313971
      3          7           0       -0.374829   -0.177712    0.526600
      4          6           0        0.732738   -0.935493    1.066724
      5          6           0        1.179414   -0.246438    2.340087
      6          8           0        2.192054   -0.899642    2.930011
      7          8           0        0.697920    0.766487    2.775769
      8          6           0        1.906595   -1.073035    0.067123
      9          6           0        2.569053    0.221299   -0.241324
     10          6           0        3.779625    0.745032    0.130759
     11          7           0        3.940932    2.017144   -0.367300
     12          6           0        2.841763    2.272127   -1.032802
     13          7           0        1.977272    1.218570   -0.990031
     14          6           0       -2.442340    0.132982   -0.720417
     15          6           0       -3.686268   -0.673677   -1.069263
     16          7           0       -4.706565    0.207084   -1.637769
     17          1           0       -0.591546    0.682358    1.006517
     18          1           0        0.391322   -1.943487    1.314518
     19          1           0        2.449113   -0.385582    3.708702
     20          1           0        1.499431   -1.547029   -0.826120
     21          1           0        2.643131   -1.752105    0.491269
     22          1           0        4.541071    0.268479    0.724894
     23          1           0        2.616056    3.183792   -1.560129
     24          1           0        1.060132    1.171194   -1.397242
     25          1           0       -2.147314    0.706448   -1.603418
     26          1           0       -2.658109    0.861426    0.065450
     27          1           0       -3.411061   -1.417766   -1.814397
     28          1           0       -4.014667   -1.229413   -0.180947
     29          1           0       -5.099264    0.805498   -0.920054
     30          1           0       -5.476329   -0.339920   -2.002398
 ---------------------------------------------------------------------

 SCF Done:  E(RB3LYP) =  -796.419175146     A.U. after    1 cycles

 Alpha  occ. eigenvalues --  -19.18982 -19.13393 -19.09491 -14.36510 -14.34775
 Alpha  occ. eigenvalues --  -14.29369 -14.28512 -10.32437 -10.27983 -10.24149
 Alpha  occ. eigenvalues --  -10.21909 -10.20228 -10.19760 -10.19495 -10.18574
 Alpha  occ. eigenvalues --  -10.17680  -1.13577  -1.05337  -1.04592  -1.01561
 Alpha  occ. eigenvalues --   -0.94426  -0.89035  -0.87105  -0.81668  -0.77049
 Alpha  occ. eigenvalues --   -0.74421  -0.68853  -0.65474  -0.61721  -0.61182
 Alpha  occ. eigenvalues --   -0.60179  -0.59149  -0.54034  -0.53783  -0.51597
 Alpha  occ. eigenvalues --   -0.50619  -0.50116  -0.48953  -0.47554  -0.46231
 Alpha  occ. eigenvalues --   -0.45705  -0.44540  -0.43953  -0.42817  -0.42386
 Alpha  occ. eigenvalues --   -0.40912  -0.40773  -0.40259  -0.39349  -0.38895
 Alpha  occ. eigenvalues --   -0.36619  -0.35575  -0.34975  -0.30872  -0.28544
 Alpha  occ. eigenvalues --   -0.28028  -0.26997  -0.26781  -0.24974  -0.22898
 Alpha virt. eigenvalues --   -0.01682   0.00453   0.01268   0.02037   0.02459
 Alpha virt. eigenvalues --    0.03063   0.05248   0.05401   0.07666   0.07821
 Alpha virt. eigenvalues --    0.08235   0.08768   0.09390   0.10288   0.10789

 Mulliken charges:
               1
     1  O   -0.424419
     2  C    0.438618
     3  N   -0.309128
     4  C    0.036097
     5  C    0.586582
     6  O   -0.345269
     7  O   -0.380211
     8  C    0.014019
     9  C    0.060578
    10  C    0.113626
    11  N   -0.354441
    12  C    0.236108
    13  N   -0.227356
    14  C   -0.056181
    15  C    0.206208
    16  N   -0.328714
    17  H    0.105613
    18  H    0.022855
    19  H    0.225606
    20  H    0.037967
    21  H    0.020451
    22  H    0.004524
    23  H    0.016725
    24  H    0.102980
    25  H    0.013783
    26  H    0.001168
    27  H    0.018060
    28  H   -0.015072
    29  H    0.093024
    30  H    0.086199
 Sum of Mulliken charges =   0.00000

 Dipole moment (field-independent basis, Debye):
    X=             -3.0468    Y=             -0.4371    Z=              1.4175  Tot=              3.3888
 Quadrupole moment (field-independent basis, Debye-Ang):
   XX=            -96.8951   YY=           -101.4305   ZZ=            -89.8869
   XY=            -10.8377   XZ=              3.5758   YZ=             -6.2255

  Exact polarizability: 157.655   7.153 129.567  20.550  -6.820 117.753
 Approx polarizability: 207.759   2.441 217.452  25.422  -1.351 175.847

 ******    1 imaginary frequencies (negative Signs) ******

                      1                      2                      3
                      A                      A                      A
 Frequencies --    -10.7941                21.6702                46.2191
 Red. masses --      2.8055                 4.2784                 2.9166
 Frc consts  --      0.0002                 0.0012                 0.0037
 IR Inten    --      1.1176                 1.3236                 5.6419

                      4                      5                      6
                      A                      A                      A
 Frequencies --     51.6033                64.7256                71.2218
 Red. masses --      6.4451                 7.5983                 4.7456
 Frc consts  --      0.0101                 0.0188                 0.0142
 IR Inten    --      6.5921                 0.1286                 1.9537

                      7                      8                      9
                      A                      A                      A
 Frequencies --     76.7006               123.5002               125.7753
 Red. masses --      6.5272                 3.6507                 5.3447
 Frc consts  --      0.0226                 0.0328                 0.0498
 IR Inten    --      1.1454                 5.7211                 2.2834

                     10                     11                     12
                      A                      A                      A
 Frequencies --    191.0889               217.0400               247.4532
 Red. masses --      5.0781                 2.8367                 1.6608
 Frc consts  --      0.1093                 0.0787                 0.0599
 IR Inten    --      1.7722                12.7192                33.6651

                     13                     14                     15
                      A                      A                      A
 Frequencies --    265.4283               308.4905               331.3871
 Red. masses --      3.3818                 5.0997                 6.1623
 Frc consts  --      0.1404                 0.2859                 0.3987
 IR Inten    --     17.5667                 1.2188                 2.8534

                     16                     17                     18
                      A                      A                      A
 Frequencies --    371.2631               398.5387               474.2510
 Red. masses --      2.3112                 3.6438                 3.0437
 Frc consts  --      0.1877                 0.3410                 0.4033
 IR Inten    --      2.5130                 4.5196                14.2208

                     19                     20                     21
                      A                      A                      A
 Frequencies --    496.0802               545.8963               572.4416
 Red. masses --      1.3138                 3.1608                 1.5347
 Frc consts  --      0.1905                 0.5550                 0.2963
 IR Inten    --    116.7140                21.2595                13.2299

                     22                     23                     24
                      A                      A                      A
 Frequencies --    594.5046               617.1455               643.2945
 Red. masses --      2.6128                 2.2282                 1.8938
 Frc consts  --      0.5441                 0.5000                 0.4617
 IR Inten    --     47.1112                68.1888                 1.4374

                     25                     26                     27
                      A                      A                      A
 Frequencies --    660.9124               686.6422               707.8721
 Red. masses --      2.5006                 2.7928                 3.3691
 Frc consts  --      0.6436                 0.7758                 0.9947
 IR Inten    --      9.4941                 4.6219                48.1451

                     28                     29                     30
                      A                      A                      A
 Frequencies --    736.2634               782.7034               809.8583
 Red. masses --      3.9574                 2.5179                 1.5525
 Frc consts  --      1.2639                 0.9088                 0.5999
 IR Inten    --     10.5787                29.0588                 7.1681

                     31                     32                     33
                      A                      A                      A
 Frequencies --    820.4865               853.1096               858.2303
 Red. masses --      1.4333                 1.5323                 1.3780
 Frc consts  --      0.5685                 0.6571                 0.5980
 IR Inten    --     18.3301                42.2203                77.8129

                     34                     35                     36
                      A                      A                      A
 Frequencies --    878.3425               926.2550               944.8805
 Red. masses --      2.5465                 3.5373                 5.2199
 Frc consts  --      1.1575                 1.7881                 2.7458
 IR Inten    --      6.6645                 9.9240                19.0693

                     37                     38                     39
                      A                      A                      A
 Frequencies --    969.6227               988.4955              1022.8222
 Red. masses --      3.0249                 2.1019                 2.7446
 Frc consts  --      1.6756                 1.2101                 1.6917
 IR Inten    --      6.8987                 5.6151                27.2272

                     40                     41                     42
                      A                      A                      A
 Frequencies --   1032.4341              1063.3938              1097.6727
 Red. masses --      3.1409                 2.8292                 2.0234
 Frc consts  --      1.9725                 1.8849                 1.4364
 IR Inten    --      1.5653                18.4395                24.1614

                     43                     44                     45
                      A                      A                      A
 Frequencies --   1108.3496              1115.2039              1143.1154
 Red. masses --      1.5766                 2.3611                 2.2915
 Frc consts  --      1.1411                 1.7301                 1.7642
 IR Inten    --     11.8554                48.2257                10.1076

                     46                     47                     48
                      A                      A                      A
 Frequencies --   1162.0595              1180.0514              1208.5398
 Red. masses --      1.5077                 2.2163                 1.4041
 Frc consts  --      1.1995                 1.8184                 1.2083
 IR Inten    --     41.5052               173.4660                 0.7503

                     49                     50                     51
                      A                      A                      A
 Frequencies --   1234.6386              1249.2324              1262.7762
 Red. masses --      1.7839                 1.9299                 1.6470
 Frc consts  --      1.6022                 1.7745                 1.5474
 IR Inten    --     33.8716                10.3972                 0.6483

                     52                     53                     54
                      A                      A                      A
 Frequencies --   1269.2905              1290.1581              1316.8877
 Red. masses --      1.5028                 1.3260                 1.4237
 Frc consts  --      1.4265                 1.3004                 1.4547
 IR Inten    --     24.9522                 3.9877                 3.6044

                     55                     56                     57
                      A                      A                      A
 Frequencies --   1338.8023              1364.5999              1377.1138
 Red. masses --      1.1167                 1.4881                 1.7871
 Frc consts  --      1.1793                 1.6326                 1.9968
 IR Inten    --      6.4570                 3.4297                10.5868

                     58                     59                     60
                      A                      A                      A
 Frequencies --   1394.6025              1415.4404              1425.0465
 Red. masses --      2.2897                 2.4275                 2.6983
 Frc consts  --      2.6238                 2.8655                 3.2285
 IR Inten    --     20.4442               124.1603                14.9837

                     61                     62                     63
                      A                      A                      A
 Frequencies --   1429.9067              1470.0015              1488.7285
 Red. masses --      1.6098                 1.0912                 1.1934
 Frc consts  --      1.9393                 1.3893                 1.5584
 IR Inten    --     55.8100                 8.6133                10.9865

                     64                     65                     66
                      A                      A                      A
 Frequencies --   1499.8442              1519.6150              1523.9541
 Red. masses --      3.0886                 1.0848                 2.1715
 Frc consts  --      4.0936                 1.4760                 2.9714
 IR Inten    --     63.3913                 2.1407               282.3404

                     67                     68                     69
                      A                      A                      A
 Frequencies --   1611.3140              1665.8246              1745.3507
 Red. masses --      4.5475                 1.0891                 9.4851
 Frc consts  --      6.9563                 1.7806                17.0238
 IR Inten    --      7.8461                20.9724               215.7575

                     70                     71                     72
                      A                      A                      A
 Frequencies --   1820.4037              2961.4594              3024.8313
 Red. masses --      9.9126                 1.0743                 1.0590
 Frc consts  --     19.3541                 5.5512                 5.7090
 IR Inten    --    200.9322                60.6617                18.2585

                     73                     74                     75
                      A                      A                      A
 Frequencies --   3044.5075              3057.3103              3065.2655
 Red. masses --      1.0815                 1.0998                 1.0644
 Frc consts  --      5.9062                 6.0570                 5.8923
 IR Inten    --     11.9753                13.9780                 8.7789

                     76                     77                     78
                      A                      A                      A
 Frequencies --   3097.3972              3116.6589              3235.5701
 Red. masses --      1.0899                 1.1004                 1.0954
 Frc consts  --      6.1606                 6.2979                 6.7568
 IR Inten    --     16.1014                 6.3934                 6.9830

                     79                     80                     81
                      A                      A                      A
 Frequencies --   3243.0044              3492.0294              3566.7188
 Red. masses --      1.0985                 1.0503                 1.0917
 Frc consts  --      6.8070                 7.5461                 8.1822
 IR Inten    --      0.4780                 0.6007                 0.3132

                     82                     83                     84
                      A                      A                      A
 Frequencies --   3596.1734              3661.5327              3755.6355
 Red. masses --      1.0773                 1.0809                 1.0641
 Frc consts  --      8.2084                 8.5381                 8.8432
 IR Inten    --     69.0633                49.9599                84.9924

 - Thermochemistry -
 -------------------
 Temperature   298.150 Kelvin.  Pressure   1.00000 Atm.
 Atom     1 has atomic number  8 and mass  15.99491

 Molecular mass:   226.10659 amu.
 Principal axes and moments of inertia in atomic units:
                           1         2         3
     Eigenvalues --  2248.662256248.715927304.26802
           X            0.95249  -0.11968  -0.28007
           Y            0.18266  -0.51138   0.83972
           Z            0.24372   0.85098   0.46522
 This molecule is an asymmetric top.
 Rotational symmetry number  1.
 Warning -- assumption of classical behavior for rotation
           may cause significant error
 Rotational temperatures (Kelvin)      0.03852     0.01386     0.01186
 Rotational constants (GHZ):           0.80258     0.28882     0.24708
    1 imaginary frequencies ignored.
 Zero-point vibrational energy     641465.5 (Joules/Mol)
                                  153.31394 (Kcal/Mol)
 Warning -- explicit consideration of  22 degrees of freedom as
           vibrations may cause significant error
 Vibrational temperatures:     31.18    66.50    74.25    93.13   102.47
          (Kelvin)            110.35   177.69   180.96   274.93   312.27
                              356.03   381.89   443.85   476.79   534.16
                              573.41   682.34   713.75   785.42   823.61
                              855.36   887.93   925.56   950.90   987.92
                             1018.47  1059.32  1126.13  1165.20  1180.50
                             1227.43  1234.80  1263.74  1332.67  1359.47
                             1395.07  1422.22  1471.61  1485.44  1529.98
                             1579.30  1594.67  1604.53  1644.69  1671.94
                             1697.83  1738.82  1776.37  1797.36  1816.85
                             1826.22  1856.25  1894.71  1926.24  1963.35
                             1981.36  2006.52  2036.50  2050.32  2057.31
                             2115.00  2141.95  2157.94  2186.38  2192.63
                             2318.32  2396.75  2511.17  2619.15  4260.87
                             4352.05  4380.36  4398.78  4410.23  4456.46
                             4484.17  4655.26  4665.95  5024.25  5131.71
                             5174.08  5268.12  5403.52

 Zero-point correction=                           0.244321 (Hartree/Particle)
 Thermal correction to Energy=                    0.259727
 Thermal correction to Enthalpy=                  0.260672
 Thermal correction to Gibbs Free Energy=         0.199123
 Sum of electronic and zero-point Energies=           -796.174854
 Sum of electronic and thermal Energies=              -796.159448
 Sum of electronic and thermal Enthalpies=            -796.158504
 Sum of electronic and thermal Free Energies=         -796.220053

                     E (Thermal)             CV                S
                      KCal/Mol        Cal/Mol-Kelvin    Cal/Mol-Kelvin
 Total                  162.981             56.523            129.541
 Electronic               0.000              0.000              0.000
 Translational            0.889              2.981             42.150
 Rotational               0.889              2.981             32.995
 Vibrational            161.204             50.561             54.395
 Vibration     1          0.593              1.985              6.475
 Vibration     2          0.595              1.979              4.973
 Vibration     3          0.596              1.977              4.755
 Vibration     4          0.597              1.971              4.308
 Vibration     5          0.598              1.968              4.119
 Vibration     6          0.599              1.965              3.974
 Vibration     7          0.610              1.929              3.045
 Vibration     8          0.611              1.927              3.010
 Vibration     9          0.634              1.852              2.217
 Vibration    10          0.646              1.815              1.984
 Vibration    11          0.661              1.767              1.749
 Vibration    12          0.671              1.736              1.626
 Vibration    13          0.698              1.658              1.370
 Vibration    14          0.714              1.613              1.253
 Vibration    15          0.743              1.531              1.075
 Vibration    16          0.765              1.473              0.968
 Vibration    17          0.831              1.307              0.726
 Vibration    18          0.852              1.259              0.668
 Vibration    19          0.901              1.149              0.553
 Vibration    20          0.929              1.091              0.500
 Vibration    21          0.952              1.043              0.459
 Vibration    22          0.977              0.996              0.421

 Normal termination of Gaussian 09 at Sat Jul 24 11:43:45 2021.
