 Gaussian 09, Revision D.01,
 Gaussian 09:  ES64L-G09RevD.01 24-Apr-2013

 ----------------------------------------------------------------------
 # B3LYP/6-311G(2df,2pd) EmpiricalDispersion=GD3BJ opt=calcfc freq=nora
 man nosymm integral(ultrafinegrid)
 ----------------------------------------------------------------------

 ------------------------------------------------------------
 Candidate Structure: Conf:455 OPT and FREQ calc in gas phase
 ------------------------------------------------------------
 Symbolic Z-matrix:
 Charge =  0 Multiplicity = 1

 SCF Done:  E(RB3LYP) =  -796.405706038     A.U. after   14 cycles
 SCF Done:  E(RB3LYP) =  -796.407373122     A.U. after   14 cycles
 SCF Done:  E(RB3LYP) =  -796.407449532     A.U. after   13 cycles
 SCF Done:  E(RB3LYP) =  -796.407954070     A.U. after   11 cycles
 SCF Done:  E(RB3LYP) =  -796.408138810     A.U. after   12 cycles
 SCF Done:  E(RB3LYP) =  -796.408191460     A.U. after   11 cycles
 SCF Done:  E(RB3LYP) =  -796.408197150     A.U. after   11 cycles
 SCF Done:  E(RB3LYP) =  -796.408229409     A.U. after   11 cycles
 SCF Done:  E(RB3LYP) =  -796.408230469     A.U. after    8 cycles
 SCF Done:  E(RB3LYP) =  -796.408230775     A.U. after    8 cycles
 SCF Done:  E(RB3LYP) =  -796.408230812     A.U. after    6 cycles
 Optimization completed.
    -- Stationary point found.
 Normal termination of Gaussian 09 at Sat Jul 24 07:13:52 2021.

 ----------------------------------------------------------------------
 #N Geom=AllCheck Guess=TCheck SCRF=Check GenChk RB3LYP/6-311G(2df,2pd)
  Freq
 ----------------------------------------------------------------------

 Structure from the checkpoint file:  "conf-455.chk"
 ------------------------------------------------------------
 Candidate Structure: Conf:455 OPT and FREQ calc in gas phase
 ------------------------------------------------------------
 Charge =  0 Multiplicity = 1

                          Input orientation:
 ---------------------------------------------------------------------
 Center     Atomic      Atomic             Coordinates (Angstroms)
 Number     Number       Type             X           Y           Z
 ---------------------------------------------------------------------
      1          8           0        0.421249   -0.900223   -1.168651
      2          6           0        1.036257   -0.529123   -0.176116
      3          7           0        0.548234   -0.689637    1.080597
      4          6           0       -0.580883   -1.542723    1.384035
      5          6           0       -0.164806   -3.020948    1.233856
      6          8           0       -1.170345   -3.922745    1.206540
      7          8           0        0.974531   -3.375883    1.199605
      8          6           0       -1.882506   -1.184542    0.617102
      9          6           0       -2.140953    0.276200    0.507672
     10          6           0       -2.829793    1.164329    1.292603
     11          7           0       -2.757830    2.434080    0.770414
     12          6           0       -2.036262    2.320261   -0.320201
     13          7           0       -1.642100    1.034473   -0.527168
     14          6           0        2.341535    0.224476   -0.291142
     15          6           0        2.152684    1.520452   -1.104913
     16          7           0        3.357419    2.301946   -1.336594
     17          1           0        1.175719   -0.496201    1.840686
     18          1           0       -0.786201   -1.397587    2.446871
     19          1           0       -2.028562   -3.487185    1.174431
     20          1           0       -2.724006   -1.628554    1.155567
     21          1           0       -1.843972   -1.627696   -0.375410
     22          1           0       -3.378864    0.957047    2.196368
     23          1           0       -1.776233    3.119686   -0.993435
     24          1           0       -1.047086    0.668123   -1.255341
     25          1           0        2.761603    0.458309    0.688956
     26          1           0        3.046422   -0.427485   -0.809966
     27          1           0        1.718481    1.254513   -2.068414
     28          1           0        1.425216    2.156415   -0.595630
     29          1           0        3.782366    2.583003   -0.461261
     30          1           0        4.048595    1.757119   -1.838107
 ---------------------------------------------------------------------

 SCF Done:  E(RB3LYP) =  -796.408230812     A.U. after    1 cycles

 Alpha  occ. eigenvalues --  -19.18237 -19.11870 -19.10447 -14.36190 -14.36032
 Alpha  occ. eigenvalues --  -14.29931 -14.28687 -10.31501 -10.28925 -10.25453
 Alpha  occ. eigenvalues --  -10.21976 -10.21152 -10.20759 -10.20638 -10.19021
 Alpha  occ. eigenvalues --  -10.18069  -1.12168  -1.06189  -1.04079  -1.01627
 Alpha  occ. eigenvalues --   -0.95427  -0.89737  -0.87182  -0.82197  -0.77482
 Alpha  occ. eigenvalues --   -0.74424  -0.68906  -0.65099  -0.63363  -0.61557
 Alpha  occ. eigenvalues --   -0.60668  -0.59428  -0.56611  -0.53926  -0.53843
 Alpha  occ. eigenvalues --   -0.51951  -0.49341  -0.47875  -0.46822  -0.46065
 Alpha  occ. eigenvalues --   -0.45672  -0.44133  -0.43919  -0.43067  -0.42318
 Alpha  occ. eigenvalues --   -0.42037  -0.41173  -0.41052  -0.40226  -0.39424
 Alpha  occ. eigenvalues --   -0.38051  -0.36015  -0.33900  -0.30102  -0.29044
 Alpha  occ. eigenvalues --   -0.28463  -0.28190  -0.26942  -0.25070  -0.23238
 Alpha virt. eigenvalues --   -0.01512  -0.00880   0.00157   0.01975   0.02140
 Alpha virt. eigenvalues --    0.03191   0.04542   0.05448   0.05881   0.06731
 Alpha virt. eigenvalues --    0.07732   0.09113   0.09959   0.10470   0.11045

 Mulliken charges:
               1
     1  O   -0.466675
     2  C    0.421248
     3  N   -0.241079
     4  C    0.057065
     5  C    0.481422
     6  O   -0.303615
     7  O   -0.343558
     8  C   -0.021237
     9  C    0.061798
    10  C    0.096692
    11  N   -0.355385
    12  C    0.228909
    13  N   -0.221708
    14  C    0.004296
    15  C    0.144258
    16  N   -0.334542
    17  H    0.093211
    18  H    0.030842
    19  H    0.207121
    20  H    0.002986
    21  H    0.052714
    22  H    0.003086
    23  H    0.020889
    24  H    0.127096
    25  H   -0.014231
    26  H    0.020712
    27  H    0.024099
    28  H    0.027289
    29  H    0.095702
    30  H    0.100598
 Sum of Mulliken charges =   0.00000

 Dipole moment (field-independent basis, Debye):
    X=              1.0656    Y=             -0.2114    Z=              1.5604  Tot=              1.9014
 Quadrupole moment (field-independent basis, Debye-Ang):
   XX=            -89.5540   YY=           -117.9101   ZZ=            -90.0074
   XY=             17.6032   XZ=              1.1120   YZ=             -3.0851

  Exact polarizability: 139.619   1.088 146.818 -16.526 -13.871 116.071
 Approx polarizability: 198.850  -2.350 208.716 -19.851  -4.992 200.194

                      1                      2                      3
                      A                      A                      A
 Frequencies --     17.6000                27.8050                44.8671
 Red. masses --      4.2074                 5.2165                 4.3466
 Frc consts  --      0.0008                 0.0024                 0.0052
 IR Inten    --      0.6398                 2.8366                 9.5609

                      4                      5                      6
                      A                      A                      A
 Frequencies --     61.1881                75.2799                90.2762
 Red. masses --      4.5126                 5.4521                 4.3772
 Frc consts  --      0.0100                 0.0182                 0.0210
 IR Inten    --      2.6298                 7.3116                 0.9991

                      7                      8                      9
                      A                      A                      A
 Frequencies --     93.8585               128.9846               161.9630
 Red. masses --      2.5011                 5.1527                 5.2954
 Frc consts  --      0.0130                 0.0505                 0.0818
 IR Inten    --      1.0997                 9.1874                11.6125

                     10                     11                     12
                      A                      A                      A
 Frequencies --    202.0951               211.6206               287.3064
 Red. masses --      5.6662                 5.4248                 3.4436
 Frc consts  --      0.1364                 0.1431                 0.1675
 IR Inten    --      6.1840                10.9891                15.4473

                     13                     14                     15
                      A                      A                      A
 Frequencies --    294.0247               330.6798               346.7616
 Red. masses --      1.2604                 4.1279                 2.3918
 Frc consts  --      0.0642                 0.2659                 0.1695
 IR Inten    --     24.5434                 1.0903                 5.7136

                     16                     17                     18
                      A                      A                      A
 Frequencies --    350.8204               404.2972               411.9804
 Red. masses --      5.0239                 3.3312                 2.6552
 Frc consts  --      0.3643                 0.3208                 0.2655
 IR Inten    --     17.5433                11.4959                28.1612

                     19                     20                     21
                      A                      A                      A
 Frequencies --    479.0173               497.6196               522.8150
 Red. masses --      1.3225                 1.4335                 4.0767
 Frc consts  --      0.1788                 0.2091                 0.6565
 IR Inten    --     43.5410                50.1021                 6.6693

                     22                     23                     24
                      A                      A                      A
 Frequencies --    603.2713               642.9182               671.0018
 Red. masses --      3.9251                 2.7465                 4.2002
 Frc consts  --      0.8416                 0.6689                 1.1142
 IR Inten    --      9.7599                49.8925                13.8857

                     25                     26                     27
                      A                      A                      A
 Frequencies --    684.2916               717.4788               732.3787
 Red. masses --      3.6309                 4.0393                 1.2451
 Frc consts  --      1.0017                 1.2251                 0.3935
 IR Inten    --     26.0189                 0.4865                62.1521

                     28                     29                     30
                      A                      A                      A
 Frequencies --    761.2662               773.0962               791.5306
 Red. masses --      5.0662                 1.2308                 3.2559
 Frc consts  --      1.7299                 0.4334                 1.2019
 IR Inten    --      8.2960                 2.1137                 0.7323

                     31                     32                     33
                      A                      A                      A
 Frequencies --    827.5551               835.8003               843.3400
 Red. masses --      1.4392                 1.5858                 1.7924
 Frc consts  --      0.5807                 0.6527                 0.7511
 IR Inten    --     23.4869               185.2492                46.5315

                     34                     35                     36
                      A                      A                      A
 Frequencies --    869.4004               926.2623               939.9354
 Red. masses --      2.3937                 2.6988                 4.2448
 Frc consts  --      1.0660                 1.3642                 2.2095
 IR Inten    --      6.3865                 5.4672                 8.7802

                     37                     38                     39
                      A                      A                      A
 Frequencies --    952.5089               984.8555              1018.4803
 Red. masses --      4.7747                 1.4076                 4.6608
 Frc consts  --      2.5523                 0.8044                 2.8485
 IR Inten    --     13.9106                 0.9012                58.8176

                     40                     41                     42
                      A                      A                      A
 Frequencies --   1032.0401              1043.2131              1099.5727
 Red. masses --      3.4869                 3.0847                 2.0860
 Frc consts  --      2.1882                 1.9780                 1.4860
 IR Inten    --     20.0698                 6.3481                15.7863

                     43                     44                     45
                      A                      A                      A
 Frequencies --   1113.1124              1120.2398              1144.6848
 Red. masses --      2.3698                 1.6115                 2.2861
 Frc consts  --      1.7300                 1.1916                 1.7649
 IR Inten    --      5.7960                26.5548                 7.8220

                     46                     47                     48
                      A                      A                      A
 Frequencies --   1158.5604              1178.6953              1206.7049
 Red. masses --      2.1232                 2.1811                 1.4712
 Frc consts  --      1.6791                 1.7854                 1.2622
 IR Inten    --     19.1017                 2.2595                 5.8633

                     49                     50                     51
                      A                      A                      A
 Frequencies --   1256.1506              1263.6264              1278.5879
 Red. masses --      1.7387                 2.0801                 1.4338
 Frc consts  --      1.6165                 1.9570                 1.3810
 IR Inten    --    112.3465                22.3206                20.9505

                     52                     53                     54
                      A                      A                      A
 Frequencies --   1294.9916              1298.7875              1309.2604
 Red. masses --      1.3140                 1.4392                 1.7113
 Frc consts  --      1.2983                 1.4304                 1.7283
 IR Inten    --     13.1282               150.4477               223.4220

                     55                     56                     57
                      A                      A                      A
 Frequencies --   1347.0574              1360.6794              1384.1564
 Red. masses --      1.4764                 1.4440                 1.2960
 Frc consts  --      1.5784                 1.5752                 1.4629
 IR Inten    --     14.8854                22.7813                29.3229

                     58                     59                     60
                      A                      A                      A
 Frequencies --   1385.9374              1395.2054              1404.5819
 Red. masses --      1.4642                 1.1937                 2.7360
 Frc consts  --      1.6571                 1.3691                 3.1803
 IR Inten    --     16.1506                 6.5797                15.2382

                     61                     62                     63
                      A                      A                      A
 Frequencies --   1434.5325              1479.1679              1484.8322
 Red. masses --      2.9396                 1.1221                 1.1295
 Frc consts  --      3.5642                 1.4465                 1.4672
 IR Inten    --     22.0281                 5.2840                13.1651

                     64                     65                     66
                      A                      A                      A
 Frequencies --   1498.1056              1509.2852              1551.4769
 Red. masses --      3.2874                 1.0924                 1.8909
 Frc consts  --      4.3470                 1.4662                 2.6817
 IR Inten    --     23.6989                 3.4931               188.7424

                     67                     68                     69
                      A                      A                      A
 Frequencies --   1608.4246              1665.9701              1727.3826
 Red. masses --      4.3790                 1.0900                 7.8838
 Frc consts  --      6.6746                 1.7825                13.8599
 IR Inten    --      8.4511                25.0816               156.9890

                     70                     71                     72
                      A                      A                      A
 Frequencies --   1861.7578              3023.4693              3032.6597
 Red. masses --     10.8778                 1.0697                 1.0602
 Frc consts  --     22.2146                 5.7615                 5.7452
 IR Inten    --    237.9807                34.9266                 6.6553

                     73                     74                     75
                      A                      A                      A
 Frequencies --   3040.0874              3048.0715              3073.5406
 Red. masses --      1.0639                 1.0821                 1.0978
 Frc consts  --      5.7934                 5.9231                 6.1102
 IR Inten    --     34.8196                12.2680                 1.2622

                     76                     77                     78
                      A                      A                      A
 Frequencies --   3095.2703              3108.8735              3227.3912
 Red. masses --      1.1056                 1.0939                 1.0961
 Frc consts  --      6.2407                 6.2290                 6.7270
 IR Inten    --     26.3254                 3.3785                 7.8893

                     79                     80                     81
                      A                      A                      A
 Frequencies --   3244.2766              3492.7092              3568.6544
 Red. masses --      1.0978                 1.0485                 1.0933
 Frc consts  --      6.8078                 7.5359                 8.2037
 IR Inten    --      0.7620                 0.6902                 0.5253

                     82                     83                     84
                      A                      A                      A
 Frequencies --   3592.3362              3648.5723              3811.1309
 Red. masses --      1.0825                 1.0776                 1.0654
 Frc consts  --      8.2307                 8.4518                 9.1174
 IR Inten    --    134.3079                33.0670                58.0726

 - Thermochemistry -
 -------------------
 Temperature   298.150 Kelvin.  Pressure   1.00000 Atm.
 Atom     1 has atomic number  8 and mass  15.99491

 Molecular mass:   226.10659 amu.
 Principal axes and moments of inertia in atomic units:
                           1         2         3
     Eigenvalues --  3307.827853936.681906633.79633
           X            0.32343   0.90674   0.27060
           Y            0.87538  -0.39530   0.27831
           Z           -0.35932  -0.14686   0.92159
 This molecule is an asymmetric top.
 Rotational symmetry number  1.
 Warning -- assumption of classical behavior for rotation
           may cause significant error
 Rotational temperatures (Kelvin)      0.02618     0.02200     0.01306
 Rotational constants (GHZ):           0.54560     0.45844     0.27205
 Zero-point vibrational energy     643112.7 (Joules/Mol)
                                  153.70764 (Kcal/Mol)
 Warning -- explicit consideration of  22 degrees of freedom as
           vibrations may cause significant error
 Vibrational temperatures:     25.32    40.01    64.55    88.04   108.31
          (Kelvin)            129.89   135.04   185.58   233.03   290.77
                              304.47   413.37   423.04   475.77   498.91
                              504.75   581.69   592.75   689.20   715.96
                              752.21   867.97   925.01   965.42   984.54
                             1032.29  1053.73  1095.29  1112.31  1138.83
                             1190.67  1202.53  1213.38  1250.87  1332.68
                             1352.36  1370.45  1416.99  1465.36  1484.87
                             1500.95  1582.04  1601.52  1611.77  1646.94
                             1666.91  1695.88  1736.18  1807.32  1818.07
                             1839.60  1863.20  1868.66  1883.73  1938.11
                             1957.71  1991.49  1994.05  2007.39  2020.88
                             2063.97  2128.19  2136.34  2155.44  2171.52
                             2232.23  2314.16  2396.96  2485.32  2678.65
                             4350.09  4363.32  4374.00  4385.49  4422.13
                             4453.40  4472.97  4643.49  4667.78  5025.22
                             5134.49  5168.56  5249.48  5483.36

 Zero-point correction=                           0.244949 (Hartree/Particle)
 Thermal correction to Energy=                    0.261015
 Thermal correction to Enthalpy=                  0.261959
 Thermal correction to Gibbs Free Energy=         0.198555
 Sum of electronic and zero-point Energies=           -796.163282
 Sum of electronic and thermal Energies=              -796.147216
 Sum of electronic and thermal Enthalpies=            -796.146271
 Sum of electronic and thermal Free Energies=         -796.209675

                     E (Thermal)             CV                S
                      KCal/Mol        Cal/Mol-Kelvin    Cal/Mol-Kelvin
 Total                  163.790             58.435            133.445
 Electronic               0.000              0.000              0.000
 Translational            0.889              2.981             42.150
 Rotational               0.889              2.981             32.824
 Vibrational            162.012             52.473             58.471
 Vibration     1          0.593              1.986              6.888
 Vibration     2          0.593              1.984              5.980
 Vibration     3          0.595              1.979              5.032
 Vibration     4          0.597              1.973              4.419
 Vibration     5          0.599              1.965              4.010
 Vibration     6          0.602              1.956              3.654
 Vibration     7          0.603              1.954              3.578
 Vibration     8          0.611              1.924              2.961
 Vibration     9          0.622              1.889              2.527
 Vibration    10          0.639              1.837              2.114
 Vibration    11          0.643              1.823              2.030
 Vibration    12          0.684              1.697              1.490
 Vibration    13          0.689              1.685              1.451
 Vibration    14          0.713              1.614              1.257
 Vibration    15          0.725              1.582              1.181
 Vibration    16          0.728              1.574              1.163
 Vibration    17          0.769              1.461              0.947
 Vibration    18          0.776              1.444              0.920
 Vibration    19          0.835              1.297              0.713
 Vibration    20          0.853              1.255              0.664
 Vibration    21          0.878              1.199              0.603
 Vibration    22          0.962              1.025              0.444

 Optimization completed.
    -- Stationary point found.
 Normal termination of Gaussian 09 at Sat Jul 24 11:01:15 2021.
