 Gaussian 09, Revision D.01,
 Gaussian 09:  ES64L-G09RevD.01 24-Apr-2013

 ----------------------------------------------------------------------
 # B3LYP/6-311G(2df,2pd) EmpiricalDispersion=GD3BJ opt=calcfc freq=nora
 man nosymm integral(ultrafinegrid)
 ----------------------------------------------------------------------

 ------------------------------------------------------------
 Candidate Structure: Conf:422 OPT and FREQ calc in gas phase
 ------------------------------------------------------------
 Symbolic Z-matrix:
 Charge =  0 Multiplicity = 1

 SCF Done:  E(RB3LYP) =  -796.411663047     A.U. after   13 cycles
 SCF Done:  E(RB3LYP) =  -796.412859571     A.U. after   13 cycles
 SCF Done:  E(RB3LYP) =  -796.412723944     A.U. after   13 cycles
 SCF Done:  E(RB3LYP) =  -796.412930998     A.U. after   11 cycles
 SCF Done:  E(RB3LYP) =  -796.412935955     A.U. after    9 cycles
 SCF Done:  E(RB3LYP) =  -796.412938720     A.U. after    9 cycles
 SCF Done:  E(RB3LYP) =  -796.412941897     A.U. after   10 cycles
 SCF Done:  E(RB3LYP) =  -796.412942289     A.U. after    9 cycles
 SCF Done:  E(RB3LYP) =  -796.412942320     A.U. after    8 cycles
 Optimization completed.
    -- Stationary point found.
 Normal termination of Gaussian 09 at Sat Jul 24 06:03:07 2021.

 ----------------------------------------------------------------------
 #N Geom=AllCheck Guess=TCheck SCRF=Check GenChk RB3LYP/6-311G(2df,2pd)
  Freq
 ----------------------------------------------------------------------

 Structure from the checkpoint file:  "conf-422.chk"
 ------------------------------------------------------------
 Candidate Structure: Conf:422 OPT and FREQ calc in gas phase
 ------------------------------------------------------------
 Charge =  0 Multiplicity = 1

                          Input orientation:
 ---------------------------------------------------------------------
 Center     Atomic      Atomic             Coordinates (Angstroms)
 Number     Number       Type             X           Y           Z
 ---------------------------------------------------------------------
      1          8           0        0.809286    0.512209    1.582718
      2          6           0        1.137491   -0.036705    0.545748
      3          7           0        0.294383   -0.860151   -0.146492
      4          6           0       -0.975943   -1.275247    0.391030
      5          6           0       -0.973992   -2.783527    0.577854
      6          8           0       -1.987900   -3.191010    1.363680
      7          8           0       -0.190711   -3.538069    0.065439
      8          6           0       -2.167675   -0.883576   -0.504120
      9          6           0       -2.341636    0.590917   -0.640992
     10          6           0       -1.851547    1.670680    0.045655
     11          7           0       -2.358831    2.845039   -0.469112
     12          6           0       -3.145244    2.490393   -1.451862
     13          7           0       -3.171217    1.133848   -1.602880
     14          6           0        2.491316    0.168182   -0.105005
     15          6           0        3.438502    0.989926    0.756081
     16          7           0        4.683100    1.234620    0.023810
     17          1           0        0.684349   -1.439428   -0.872244
     18          1           0       -1.083313   -0.801230    1.365696
     19          1           0       -1.942317   -4.156853    1.411415
     20          1           0       -3.068015   -1.339257   -0.084377
     21          1           0       -2.018118   -1.336921   -1.489994
     22          1           0       -1.151459    1.667408    0.862835
     23          1           0       -3.713346    3.152101   -2.084277
     24          1           0       -3.702200    0.619638   -2.283625
     25          1           0        2.929137   -0.809401   -0.331037
     26          1           0        2.349462    0.669053   -1.065397
     27          1           0        3.572403    0.489119    1.722007
     28          1           0        2.969311    1.948588    0.972219
     29          1           0        5.222568    0.379244   -0.048104
     30          1           0        5.262178    1.890321    0.533326
 ---------------------------------------------------------------------

 SCF Done:  E(RB3LYP) =  -796.412942321     A.U. after    1 cycles

 Alpha  occ. eigenvalues --  -19.18784 -19.13051 -19.08872 -14.36316 -14.33988
 Alpha  occ. eigenvalues --  -14.28493 -14.28022 -10.32013 -10.27281 -10.23750
 Alpha  occ. eigenvalues --  -10.21535 -10.20285 -10.20084 -10.18742 -10.17589
 Alpha  occ. eigenvalues --  -10.16820  -1.13244  -1.04696  -1.04172  -1.01187
 Alpha  occ. eigenvalues --   -0.93917  -0.88124  -0.86748  -0.81549  -0.76330
 Alpha  occ. eigenvalues --   -0.74039  -0.68479  -0.64990  -0.61326  -0.60921
 Alpha  occ. eigenvalues --   -0.59412  -0.58182  -0.54767  -0.52435  -0.51339
 Alpha  occ. eigenvalues --   -0.50223  -0.48813  -0.48573  -0.47742  -0.45804
 Alpha  occ. eigenvalues --   -0.45159  -0.44325  -0.43621  -0.42450  -0.41616
 Alpha  occ. eigenvalues --   -0.40997  -0.40219  -0.39753  -0.38765  -0.37899
 Alpha  occ. eigenvalues --   -0.36332  -0.34769  -0.34670  -0.30508  -0.27980
 Alpha  occ. eigenvalues --   -0.27291  -0.26383  -0.26201  -0.23991  -0.22472
 Alpha virt. eigenvalues --   -0.01404   0.01002   0.02130   0.02287   0.02927
 Alpha virt. eigenvalues --    0.03519   0.04410   0.06207   0.06835   0.08003
 Alpha virt. eigenvalues --    0.08642   0.08965   0.09919   0.10506   0.11323

 Mulliken charges:
               1
     1  O   -0.426605
     2  C    0.508527
     3  N   -0.298824
     4  C    0.040054
     5  C    0.525855
     6  O   -0.343418
     7  O   -0.377502
     8  C   -0.002375
     9  C    0.114884
    10  C    0.081114
    11  N   -0.356822
    12  C    0.222958
    13  N   -0.238669
    14  C   -0.072366
    15  C    0.200936
    16  N   -0.331596
    17  H    0.096092
    18  H    0.046071
    19  H    0.222025
    20  H    0.022489
    21  H    0.009552
    22  H    0.041211
    23  H    0.015042
    24  H    0.097895
    25  H    0.003034
    26  H    0.018939
    27  H   -0.012823
    28  H    0.017828
    29  H    0.092241
    30  H    0.084253
 Sum of Mulliken charges =   0.00000

 Dipole moment (field-independent basis, Debye):
    X=             -1.3846    Y=             -4.4992    Z=             -2.4879  Tot=              5.3244
 Quadrupole moment (field-independent basis, Debye-Ang):
   XX=            -74.6194   YY=           -100.7018   ZZ=            -90.8172
   XY=              8.4040   XZ=             12.2851   YZ=             -4.6507

  Exact polarizability: 145.538   2.093 148.096  11.620  -3.218 111.973
 Approx polarizability: 190.063   0.054 217.232  11.878  14.779 191.359

 ******    1 imaginary frequencies (negative Signs) ******

                      1                      2                      3
                      A                      A                      A
 Frequencies --    -19.6418                23.7013                46.4915
 Red. masses --      1.9067                 4.3319                 8.8840
 Frc consts  --      0.0004                 0.0014                 0.0113
 IR Inten    --      2.0286                 1.1878                 2.4171

                      4                      5                      6
                      A                      A                      A
 Frequencies --     49.9504                59.6144                77.4577
 Red. masses --      4.5158                 4.9302                 7.4300
 Frc consts  --      0.0066                 0.0103                 0.0263
 IR Inten    --      2.6678                 3.2174                 8.0547

                      7                      8                      9
                      A                      A                      A
 Frequencies --     92.7477               107.8689               125.4626
 Red. masses --      5.1541                 3.2451                 4.5033
 Frc consts  --      0.0261                 0.0222                 0.0418
 IR Inten    --      2.0070                 6.9277                 1.6860

                     10                     11                     12
                      A                      A                      A
 Frequencies --    181.3185               219.1081               241.7662
 Red. masses --      6.2807                 2.9428                 2.0577
 Frc consts  --      0.1217                 0.0832                 0.0709
 IR Inten    --      1.8390                 8.9357                21.9732

                     13                     14                     15
                      A                      A                      A
 Frequencies --    250.9456               282.6577               313.9316
 Red. masses --      1.9907                 3.4260                 3.9158
 Frc consts  --      0.0739                 0.1613                 0.2274
 IR Inten    --     25.3313                 0.7942                 5.9673

                     16                     17                     18
                      A                      A                      A
 Frequencies --    349.0634               398.7097               449.3283
 Red. masses --      4.7307                 4.0762                 3.2576
 Frc consts  --      0.3396                 0.3818                 0.3875
 IR Inten    --      4.0448                13.1117                13.3455

                     19                     20                     21
                      A                      A                      A
 Frequencies --    492.9217               495.1571               535.7445
 Red. masses --      1.4241                 1.4819                 3.5869
 Frc consts  --      0.2039                 0.2141                 0.6066
 IR Inten    --     48.0889                81.6646                15.6817

                     22                     23                     24
                      A                      A                      A
 Frequencies --    597.1227               603.2816               651.9880
 Red. masses --      1.5189                 1.8197                 4.0734
 Frc consts  --      0.3191                 0.3902                 1.0202
 IR Inten    --     57.5240                31.2701                53.5973

                     25                     26                     27
                      A                      A                      A
 Frequencies --    655.4986               686.3444               697.4989
 Red. masses --      2.7090                 3.4626                 3.3463
 Frc consts  --      0.6858                 0.9610                 0.9592
 IR Inten    --     10.3350                11.3005                21.4814

                     28                     29                     30
                      A                      A                      A
 Frequencies --    726.2869               788.3647               805.1332
 Red. masses --      4.4578                 4.2360                 1.3190
 Frc consts  --      1.3854                 1.5512                 0.5038
 IR Inten    --      9.2661                18.2435                18.6575

                     31                     32                     33
                      A                      A                      A
 Frequencies --    814.3875               862.5351               884.8349
 Red. masses --      1.4094                 1.3644                 1.5859
 Frc consts  --      0.5507                 0.5981                 0.7316
 IR Inten    --     15.5281               105.4461                 9.2777

                     34                     35                     36
                      A                      A                      A
 Frequencies --    913.7489               921.1206               945.9782
 Red. masses --      1.6855                 3.7471                 5.7017
 Frc consts  --      0.8291                 1.8732                 3.0062
 IR Inten    --     15.7981                12.0916                11.7291

                     37                     38                     39
                      A                      A                      A
 Frequencies --    980.2250              1001.9108              1030.0275
 Red. masses --      2.7878                 2.4099                 3.6452
 Frc consts  --      1.5782                 1.4253                 2.2786
 IR Inten    --      9.1609                 8.4151                12.5175

                     40                     41                     42
                      A                      A                      A
 Frequencies --   1060.0613              1065.9079              1103.0857
 Red. masses --      2.8543                 3.1586                 2.2022
 Frc consts  --      1.8898                 2.1144                 1.5788
 IR Inten    --     11.0114                13.3065                29.3947

                     43                     44                     45
                      A                      A                      A
 Frequencies --   1107.4957              1124.7462              1144.9680
 Red. masses --      1.5986                 2.5979                 2.7892
 Frc consts  --      1.1552                 1.9363                 2.1543
 IR Inten    --     16.8174                79.0594                17.0813

                     46                     47                     48
                      A                      A                      A
 Frequencies --   1163.5290              1178.0783              1203.5327
 Red. masses --      1.5622                 2.0411                 1.8453
 Frc consts  --      1.2460                 1.6690                 1.5748
 IR Inten    --     94.5265                78.5579                45.7254

                     49                     50                     51
                      A                      A                      A
 Frequencies --   1220.9767              1255.2954              1278.9540
 Red. masses --      1.7151                 1.4203                 1.4004
 Frc consts  --      1.5065                 1.3186                 1.3496
 IR Inten    --     34.1036                33.1328                 7.6417

                     52                     53                     54
                      A                      A                      A
 Frequencies --   1287.9951              1299.9477              1336.5685
 Red. masses --      1.3613                 1.4520                 1.1342
 Frc consts  --      1.3305                 1.4456                 1.1937
 IR Inten    --     20.6907                 2.9679                 0.8893

                     55                     56                     57
                      A                      A                      A
 Frequencies --   1340.4098              1353.8472              1369.7388
 Red. masses --      1.5575                 1.6005                 1.6722
 Frc consts  --      1.6487                 1.7284                 1.8484
 IR Inten    --      2.2350                 1.9262                11.2546

                     58                     59                     60
                      A                      A                      A
 Frequencies --   1399.0974              1412.1925              1426.0056
 Red. masses --      2.3588                 2.3084                 2.6671
 Frc consts  --      2.7204                 2.7123                 3.1955
 IR Inten    --    114.2996                21.0674                20.5201

                     61                     62                     63
                      A                      A                      A
 Frequencies --   1432.9007              1469.8683              1486.0721
 Red. masses --      1.5069                 1.0998                 1.3465
 Frc consts  --      1.8230                 1.4000                 1.7520
 IR Inten    --     38.0522                 8.9571                25.4691

                     64                     65                     66
                      A                      A                      A
 Frequencies --   1503.4644              1517.2141              1542.7792
 Red. masses --      2.4943                 1.0864                 1.8416
 Frc consts  --      3.3220                 1.4735                 2.5826
 IR Inten    --      5.9860                 1.5240               244.2897

                     67                     68                     69
                      A                      A                      A
 Frequencies --   1609.8776              1664.6171              1751.5246
 Red. masses --      4.1887                 1.0886                 8.8375
 Frc consts  --      6.3960                 1.7772                15.9739
 IR Inten    --     14.3577                21.2023               180.8358

                     70                     71                     72
                      A                      A                      A
 Frequencies --   1824.3934              2982.3762              3003.2696
 Red. masses --      9.9883                 1.0739                 1.0647
 Frc consts  --     19.5875                 5.6280                 5.6581
 IR Inten    --    247.7111                51.6258                33.0122

                     73                     74                     75
                      A                      A                      A
 Frequencies --   3017.9881              3043.0407              3061.1541
 Red. masses --      1.0652                 1.0947                 1.0917
 Frc consts  --      5.7161                 5.9724                 6.0276
 IR Inten    --     16.2400                12.4724                 8.7320

                     76                     77                     78
                      A                      A                      A
 Frequencies --   3090.0156              3097.2109              3239.6049
 Red. masses --      1.0918                 1.0835                 1.0961
 Frc consts  --      6.1422                 6.1236                 6.7776
 IR Inten    --     20.2387                10.9493                 2.1037

                     79                     80                     81
                      A                      A                      A
 Frequencies --   3251.6937              3488.9273              3564.2925
 Red. masses --      1.0993                 1.0505                 1.0914
 Frc consts  --      6.8481                 7.5338                 8.1689
 IR Inten    --      4.7886                 1.0479                 0.1613

                     82                     83                     84
                      A                      A                      A
 Frequencies --   3616.3763              3653.8875              3748.3465
 Red. masses --      1.0764                 1.0808                 1.0640
 Frc consts  --      8.2944                 8.5015                 8.8082
 IR Inten    --     34.6145                40.0145                73.2106

 - Thermochemistry -
 -------------------
 Temperature   298.150 Kelvin.  Pressure   1.00000 Atm.
 Atom     1 has atomic number  8 and mass  15.99491

 Molecular mass:   226.10659 amu.
 Principal axes and moments of inertia in atomic units:
                           1         2         3
     Eigenvalues --  3444.117794975.333707667.34762
           X            0.98409   0.04321  -0.17236
           Y           -0.00243   0.97316   0.23010
           Z            0.17767  -0.22602   0.95778
 This molecule is an asymmetric top.
 Rotational symmetry number  1.
 Warning -- assumption of classical behavior for rotation
           may cause significant error
 Rotational temperatures (Kelvin)      0.02515     0.01741     0.01130
 Rotational constants (GHZ):           0.52401     0.36274     0.23538
    1 imaginary frequencies ignored.
 Zero-point vibrational energy     640920.6 (Joules/Mol)
                                  153.18371 (Kcal/Mol)
 Warning -- explicit consideration of  22 degrees of freedom as
           vibrations may cause significant error
 Vibrational temperatures:     34.10    66.89    71.87    85.77   111.44
          (Kelvin)            133.44   155.20   180.51   260.88   315.25
                              347.85   361.05   406.68   451.68   502.22
                              573.65   646.48   709.20   712.42   770.82
                              859.13   867.99   938.06   943.12   987.50
                             1003.54  1044.96  1134.28  1158.41  1171.72
                             1240.99  1273.08  1314.68  1325.29  1361.05
                             1410.32  1441.52  1481.98  1525.19  1533.60
                             1587.09  1593.44  1618.26  1647.35  1674.06
                             1694.99  1731.61  1756.71  1806.09  1840.13
                             1853.14  1870.33  1923.02  1928.55  1947.88
                             1970.75  2012.99  2031.83  2051.70  2061.62
                             2114.81  2138.12  2163.15  2182.93  2219.71
                             2316.25  2395.01  2520.05  2624.89  4290.97
                             4321.03  4342.21  4378.25  4404.31  4445.84
                             4456.19  4661.06  4678.46  5019.78  5128.22
                             5203.15  5257.12  5393.03

 Zero-point correction=                           0.244114 (Hartree/Particle)
 Thermal correction to Energy=                    0.259700
 Thermal correction to Enthalpy=                  0.260645
 Thermal correction to Gibbs Free Energy=         0.198714
 Sum of electronic and zero-point Energies=           -796.168829
 Sum of electronic and thermal Energies=              -796.153242
 Sum of electronic and thermal Enthalpies=            -796.152298
 Sum of electronic and thermal Free Energies=         -796.214229

                     E (Thermal)             CV                S
                      KCal/Mol        Cal/Mol-Kelvin    Cal/Mol-Kelvin
 Total                  162.965             56.819            130.344
 Electronic               0.000              0.000              0.000
 Translational            0.889              2.981             42.150
 Rotational               0.889              2.981             33.241
 Vibrational            161.187             50.857             54.954
 Vibration     1          0.593              1.985              6.297
 Vibration     2          0.595              1.979              4.961
 Vibration     3          0.595              1.978              4.819
 Vibration     4          0.597              1.974              4.470
 Vibration     5          0.599              1.964              3.954
 Vibration     6          0.602              1.954              3.601
 Vibration     7          0.606              1.943              3.307
 Vibration     8          0.610              1.928              3.014
 Vibration     9          0.630              1.865              2.315
 Vibration    10          0.647              1.812              1.966
 Vibration    11          0.658              1.776              1.790
 Vibration    12          0.663              1.761              1.724
 Vibration    13          0.682              1.706              1.518
 Vibration    14          0.702              1.647              1.342
 Vibration    15          0.726              1.577              1.170
 Vibration    16          0.765              1.473              0.967
 Vibration    17          0.808              1.362              0.798
 Vibration    18          0.849              1.266              0.676
 Vibration    19          0.851              1.261              0.670
 Vibration    20          0.891              1.171              0.575
 Vibration    21          0.955              1.038              0.455
 Vibration    22          0.962              1.025              0.444

 Optimization completed.
    -- Stationary point found.
 Normal termination of Gaussian 09 at Sat Jul 24 09:27:45 2021.
