 Gaussian 09, Revision D.01,
 Gaussian 09:  ES64L-G09RevD.01 24-Apr-2013

 ----------------------------------------------------------------------
 # B3LYP/6-311G(2df,2pd) EmpiricalDispersion=GD3BJ opt=calcfc freq=nora
 man nosymm integral(ultrafinegrid)
 ----------------------------------------------------------------------

 ------------------------------------------------------------
 Candidate Structure: Conf:340 OPT and FREQ calc in gas phase
 ------------------------------------------------------------
 Symbolic Z-matrix:
 Charge =  0 Multiplicity = 1

 SCF Done:  E(RB3LYP) =  -796.416851931     A.U. after   14 cycles
 SCF Done:  E(RB3LYP) =  -796.418740141     A.U. after   12 cycles
 SCF Done:  E(RB3LYP) =  -796.418727060     A.U. after   14 cycles
 SCF Done:  E(RB3LYP) =  -796.418876582     A.U. after   11 cycles
 SCF Done:  E(RB3LYP) =  -796.418889092     A.U. after    9 cycles
 SCF Done:  E(RB3LYP) =  -796.418903649     A.U. after   10 cycles
 SCF Done:  E(RB3LYP) =  -796.418919446     A.U. after   10 cycles
 SCF Done:  E(RB3LYP) =  -796.418935412     A.U. after    9 cycles
 SCF Done:  E(RB3LYP) =  -796.418940622     A.U. after   10 cycles
 SCF Done:  E(RB3LYP) =  -796.418943191     A.U. after    9 cycles
 SCF Done:  E(RB3LYP) =  -796.418943452     A.U. after    8 cycles
 SCF Done:  E(RB3LYP) =  -796.418943465     A.U. after    6 cycles
 Optimization completed.
    -- Stationary point found.
 Normal termination of Gaussian 09 at Sat Jul 24 07:05:03 2021.

 ----------------------------------------------------------------------
 #N Geom=AllCheck Guess=TCheck SCRF=Check GenChk RB3LYP/6-311G(2df,2pd)
  Freq
 ----------------------------------------------------------------------

 Structure from the checkpoint file:  "conf-340.chk"
 ------------------------------------------------------------
 Candidate Structure: Conf:340 OPT and FREQ calc in gas phase
 ------------------------------------------------------------
 Charge =  0 Multiplicity = 1

                          Input orientation:
 ---------------------------------------------------------------------
 Center     Atomic      Atomic             Coordinates (Angstroms)
 Number     Number       Type             X           Y           Z
 ---------------------------------------------------------------------
      1          8           0        0.593799   -0.988395   -0.722546
      2          6           0        1.368477   -0.188333   -0.202722
      3          7           0        0.927009    0.977151    0.324034
      4          6           0       -0.455636    1.342921    0.169057
      5          6           0       -0.622749    2.829434    0.418104
      6          8           0       -1.871919    3.291562    0.240723
      7          8           0        0.271144    3.551546    0.761656
      8          6           0       -1.416879    0.508089    1.077799
      9          6           0       -2.600758    0.054247    0.307682
     10          6           0       -3.933599    0.382311    0.310238
     11          7           0       -4.596796   -0.285640   -0.695606
     12          6           0       -3.679672   -1.001308   -1.301367
     13          7           0       -2.452412   -0.831075   -0.736662
     14          6           0        2.856659   -0.443770   -0.122870
     15          6           0        3.171194   -1.902896    0.191574
     16          7           0        4.610626   -2.133868    0.089814
     17          1           0        1.555398    1.690285    0.661375
     18          1           0       -0.742017    1.147915   -0.866841
     19          1           0       -2.475973    2.581401   -0.028720
     20          1           0       -0.851844   -0.346186    1.445986
     21          1           0       -1.730694    1.087328    1.944967
     22          1           0       -4.451535    1.034889    0.993986
     23          1           0       -3.843943   -1.654871   -2.141576
     24          1           0       -1.558899   -1.221747   -1.010014
     25          1           0        3.294642   -0.199147   -1.093424
     26          1           0        3.318559    0.219123    0.612078
     27          1           0        2.664713   -2.525028   -0.544184
     28          1           0        2.742074   -2.159392    1.170263
     29          1           0        4.812854   -3.123580    0.153830
     30          1           0        5.098055   -1.692853    0.861225
 ---------------------------------------------------------------------

 SCF Done:  E(RB3LYP) =  -796.418943465     A.U. after    1 cycles

 Alpha  occ. eigenvalues --  -19.18177 -19.12666 -19.10813 -14.36548 -14.35763
 Alpha  occ. eigenvalues --  -14.29805 -14.29254 -10.32097 -10.29116 -10.24740
 Alpha  occ. eigenvalues --  -10.22637 -10.21258 -10.20750 -10.20434 -10.19044
 Alpha  occ. eigenvalues --  -10.18926  -1.12469  -1.06309  -1.04528  -1.02186
 Alpha  occ. eigenvalues --   -0.95311  -0.89542  -0.87785  -0.82128  -0.77847
 Alpha  occ. eigenvalues --   -0.74589  -0.69135  -0.64975  -0.62907  -0.62025
 Alpha  occ. eigenvalues --   -0.60988  -0.59903  -0.56813  -0.55473  -0.51728
 Alpha  occ. eigenvalues --   -0.50740  -0.50006  -0.48793  -0.47737  -0.46535
 Alpha  occ. eigenvalues --   -0.46403  -0.44668  -0.44119  -0.43186  -0.42615
 Alpha  occ. eigenvalues --   -0.41832  -0.41293  -0.40746  -0.40275  -0.39763
 Alpha  occ. eigenvalues --   -0.36917  -0.36248  -0.34329  -0.30513  -0.29130
 Alpha  occ. eigenvalues --   -0.28821  -0.28350  -0.27491  -0.25413  -0.24045
 Alpha virt. eigenvalues --   -0.01743  -0.00180   0.00831   0.02236   0.03176
 Alpha virt. eigenvalues --    0.03844   0.04738   0.05502   0.06366   0.06672
 Alpha virt. eigenvalues --    0.07274   0.08673   0.09037   0.09858   0.10647

 Mulliken charges:
               1
     1  O   -0.478366
     2  C    0.451569
     3  N   -0.320124
     4  C    0.063409
     5  C    0.523496
     6  O   -0.306262
     7  O   -0.354592
     8  C   -0.009861
     9  C    0.056811
    10  C    0.072895
    11  N   -0.352711
    12  C    0.242368
    13  N   -0.231029
    14  C   -0.032085
    15  C    0.200028
    16  N   -0.325659
    17  H    0.111457
    18  H    0.030960
    19  H    0.215696
    20  H    0.032638
    21  H    0.028501
    22  H    0.022183
    23  H    0.021271
    24  H    0.134272
    25  H    0.023299
    26  H   -0.001030
    27  H    0.017856
    28  H   -0.016675
    29  H    0.085992
    30  H    0.093692
 Sum of Mulliken charges =   0.00000

 Dipole moment (field-independent basis, Debye):
    X=              3.3494    Y=             -2.4240    Z=              1.2506  Tot=              4.3195
 Quadrupole moment (field-independent basis, Debye-Ang):
   XX=           -107.1292   YY=           -104.7614   ZZ=            -90.8412
   XY=             -3.7197   XZ=              4.2837   YZ=             -2.8680

  Exact polarizability: 171.552  -5.809 133.399   9.893  18.199 105.086
 Approx polarizability: 231.418   2.354 199.811  14.931  33.604 174.187

                      1                      2                      3
                      A                      A                      A
 Frequencies --      8.7705                37.0479                57.3412
 Red. masses --      3.1050                 5.8438                 2.7194
 Frc consts  --      0.0001                 0.0047                 0.0053
 IR Inten    --      0.8292                 2.3145                 3.8342

                      4                      5                      6
                      A                      A                      A
 Frequencies --     74.8199                82.4517                87.5197
 Red. masses --      4.3905                 6.7225                 4.9353
 Frc consts  --      0.0145                 0.0269                 0.0223
 IR Inten    --      2.7392                 1.6471                 2.2943

                      7                      8                      9
                      A                      A                      A
 Frequencies --     98.6608               115.2546               165.0853
 Red. masses --      6.3791                 5.5174                 4.3643
 Frc consts  --      0.0366                 0.0432                 0.0701
 IR Inten    --      7.1119                 6.5183                 6.7803

                     10                     11                     12
                      A                      A                      A
 Frequencies --    194.1573               206.4952               246.3310
 Red. masses --      5.1675                 3.2630                 1.3348
 Frc consts  --      0.1148                 0.0820                 0.0477
 IR Inten    --      9.9070                 6.9787                41.3100

                     13                     14                     15
                      A                      A                      A
 Frequencies --    278.0858               321.1901               341.5245
 Red. masses --      4.8986                 5.1114                 2.4650
 Frc consts  --      0.2232                 0.3107                 0.1694
 IR Inten    --      3.9409                 2.5229                 5.2090

                     16                     17                     18
                      A                      A                      A
 Frequencies --    359.9914               397.0881               413.8068
 Red. masses --      5.9936                 3.9791                 3.9342
 Frc consts  --      0.4576                 0.3697                 0.3969
 IR Inten    --      8.1230                 5.7304                 7.9146

                     19                     20                     21
                      A                      A                      A
 Frequencies --    527.7870               553.3061               603.7806
 Red. masses --      1.3969                 2.6299                 1.4141
 Frc consts  --      0.2293                 0.4744                 0.3037
 IR Inten    --     47.7042                13.7457                65.3603

                     22                     23                     24
                      A                      A                      A
 Frequencies --    635.0207               649.6808               663.6062
 Red. masses --      2.8426                 3.2247                 2.9172
 Frc consts  --      0.6754                 0.8019                 0.7569
 IR Inten    --     47.9435                 7.3530                 6.7136

                     25                     26                     27
                      A                      A                      A
 Frequencies --    687.5906               720.9976               744.6215
 Red. masses --      3.7283                 3.5829                 1.2245
 Frc consts  --      1.0385                 1.0974                 0.4000
 IR Inten    --     15.2191                 4.9391                47.4900

                     28                     29                     30
                      A                      A                      A
 Frequencies --    755.9834               776.4266               805.9446
 Red. masses --      2.9717                 4.0379                 1.4353
 Frc consts  --      1.0006                 1.4342                 0.5493
 IR Inten    --     16.9109                 2.2917                14.5792

                     31                     32                     33
                      A                      A                      A
 Frequencies --    841.3466               850.9271               853.7597
 Red. masses --      1.4172                 1.5323                 1.3306
 Frc consts  --      0.5911                 0.6537                 0.5714
 IR Inten    --     19.8718                37.4846                77.7296

                     34                     35                     36
                      A                      A                      A
 Frequencies --    869.2441               947.3095               951.9541
 Red. masses --      2.3525                 5.0359                 3.0055
 Frc consts  --      1.0473                 2.6626                 1.6047
 IR Inten    --     20.4572                10.5508                16.6257

                     37                     38                     39
                      A                      A                      A
 Frequencies --    985.0111               990.6767              1023.9889
 Red. masses --      2.1547                 5.7972                 3.4938
 Frc consts  --      1.2317                 3.3522                 2.1584
 IR Inten    --      3.7387                 2.5288                14.9398

                     40                     41                     42
                      A                      A                      A
 Frequencies --   1036.2339              1065.6958              1098.9193
 Red. masses --      3.1116                 2.7864                 2.1347
 Frc consts  --      1.9685                 1.8645                 1.5189
 IR Inten    --      3.4135                20.3559                20.2888

                     43                     44                     45
                      A                      A                      A
 Frequencies --   1117.8580              1137.8290              1140.6930
 Red. masses --      1.6755                 1.7782                 2.2975
 Frc consts  --      1.2336                 1.3564                 1.7614
 IR Inten    --     32.9169                 9.1851                 3.2561

                     46                     47                     48
                      A                      A                      A
 Frequencies --   1169.7880              1196.2368              1207.6594
 Red. masses --      1.5394                 1.6222                 2.1170
 Frc consts  --      1.2411                 1.3677                 1.8191
 IR Inten    --      5.7218                27.5222                13.9857

                     49                     50                     51
                      A                      A                      A
 Frequencies --   1229.5835              1256.5635              1265.4286
 Red. masses --      1.5556                 2.2598                 1.4179
 Frc consts  --      1.3857                 2.1023                 1.3377
 IR Inten    --     23.2855                23.6537                 5.9994

                     52                     53                     54
                      A                      A                      A
 Frequencies --   1281.5208              1307.9465              1333.3747
 Red. masses --      1.3594                 1.3334                 1.3476
 Frc consts  --      1.3154                 1.3440                 1.4117
 IR Inten    --      5.6310                54.7943                 4.6429

                     55                     56                     57
                      A                      A                      A
 Frequencies --   1339.6905              1353.7060              1372.2916
 Red. masses --      1.1433                 1.7540                 1.4778
 Frc consts  --      1.2090                 1.8938                 1.6397
 IR Inten    --     35.7298               194.2760                12.5575

                     58                     59                     60
                      A                      A                      A
 Frequencies --   1387.5677              1416.3415              1428.1023
 Red. masses --      3.0821                 1.6889                 1.5124
 Frc consts  --      3.4962                 1.9962                 1.8174
 IR Inten    --      8.3311                46.1722                43.7579

                     61                     62                     63
                      A                      A                      A
 Frequencies --   1434.4803              1472.6745              1486.4310
 Red. masses --      2.4605                 1.0995                 1.1318
 Frc consts  --      2.9831                 1.4050                 1.4734
 IR Inten    --     75.3858                 9.1052                13.4240

                     64                     65                     66
                      A                      A                      A
 Frequencies --   1504.0139              1520.4318              1524.7411
 Red. masses --      3.3840                 1.0849                 2.6361
 Frc consts  --      4.5100                 1.4777                 3.6108
 IR Inten    --     42.3737                 1.2204               284.3466

                     67                     68                     69
                      A                      A                      A
 Frequencies --   1611.0485              1665.8742              1707.3962
 Red. masses --      4.4190                 1.0913                 8.5915
 Frc consts  --      6.7575                 1.7843                14.7566
 IR Inten    --     14.5451                19.2311               186.8930

                     70                     71                     72
                      A                      A                      A
 Frequencies --   1847.6170              2950.7167              3034.0450
 Red. masses --      9.8521                 1.0742                 1.0593
 Frc consts  --     19.8154                 5.5104                 5.7456
 IR Inten    --    301.7523                68.8284                14.5762

                     73                     74                     75
                      A                      A                      A
 Frequencies --   3036.7560              3068.1563              3069.8172
 Red. masses --      1.0814                 1.0601                 1.0988
 Frc consts  --      5.8755                 5.8798                 6.1010
 IR Inten    --     10.1865                15.6431                 7.2238

                     76                     77                     78
                      A                      A                      A
 Frequencies --   3096.7082              3108.5570              3227.8240
 Red. masses --      1.0911                 1.1053                 1.0961
 Frc consts  --      6.1647                 6.2926                 6.7286
 IR Inten    --     18.4217                 7.6989                 4.7026

                     79                     80                     81
                      A                      A                      A
 Frequencies --   3244.9930              3494.0648              3548.4417
 Red. masses --      1.0980                 1.0502                 1.0834
 Frc consts  --      6.8119                 7.5543                 8.0376
 IR Inten    --      0.9899                 0.3844               214.3946

                     82                     83                     84
                      A                      A                      A
 Frequencies --   3569.0613              3600.2995              3675.5492
 Red. masses --      1.0918                 1.0780                 1.0670
 Frc consts  --      8.1944                 8.2325                 8.4933
 IR Inten    --      0.5358                77.5230               220.5201

 - Thermochemistry -
 -------------------
 Temperature   298.150 Kelvin.  Pressure   1.00000 Atm.
 Atom     1 has atomic number  8 and mass  15.99491

 Molecular mass:   226.10659 amu.
 Principal axes and moments of inertia in atomic units:
                           1         2         3
     Eigenvalues --  2441.007596036.770658096.48676
           X            0.96016   0.26033  -0.10157
           Y           -0.27745   0.93148  -0.23531
           Z            0.03335   0.25411   0.96660
 This molecule is an asymmetric top.
 Rotational symmetry number  1.
 Warning -- assumption of classical behavior for rotation
           may cause significant error
 Rotational temperatures (Kelvin)      0.03548     0.01435     0.01070
 Rotational constants (GHZ):           0.73934     0.29896     0.22290
 Zero-point vibrational energy     643395.4 (Joules/Mol)
                                  153.77519 (Kcal/Mol)
 Warning -- explicit consideration of  21 degrees of freedom as
           vibrations may cause significant error
 Vibrational temperatures:     12.62    53.30    82.50   107.65   118.63
          (Kelvin)            125.92   141.95   165.83   237.52   279.35
                              297.10   354.41   400.10   462.12   491.38
                              517.95   571.32   595.37   759.37   796.08
                              868.70   913.65   934.74   954.78   989.29
                             1037.35  1071.34  1087.69  1117.10  1159.57
                             1210.51  1224.29  1228.37  1250.65  1362.97
                             1369.65  1417.21  1425.36  1473.29  1490.91
                             1533.30  1581.10  1608.35  1637.08  1641.20
                             1683.06  1721.12  1737.55  1769.09  1807.91
                             1820.67  1843.82  1881.84  1918.43  1927.51
                             1947.68  1974.42  1996.40  2037.80  2054.72
                             2063.89  2118.85  2138.64  2163.94  2187.56
                             2193.76  2317.94  2396.82  2456.56  2658.31
                             4245.42  4365.31  4369.21  4414.39  4416.78
                             4455.47  4472.51  4644.11  4668.82  5027.17
                             5105.41  5135.08  5180.02  5288.29

 Zero-point correction=                           0.245056 (Hartree/Particle)
 Thermal correction to Energy=                    0.261001
 Thermal correction to Enthalpy=                  0.261945
 Thermal correction to Gibbs Free Energy=         0.198451
 Sum of electronic and zero-point Energies=           -796.173887
 Sum of electronic and thermal Energies=              -796.157943
 Sum of electronic and thermal Enthalpies=            -796.156998
 Sum of electronic and thermal Free Energies=         -796.220492

                     E (Thermal)             CV                S
                      KCal/Mol        Cal/Mol-Kelvin    Cal/Mol-Kelvin
 Total                  163.781             57.844            133.634
 Electronic               0.000              0.000              0.000
 Translational            0.889              2.981             42.150
 Rotational               0.889              2.981             33.145
 Vibrational            162.003             51.883             58.339
 Vibration     1          0.593              1.987              8.272
 Vibration     2          0.594              1.982              5.411
 Vibration     3          0.596              1.975              4.547
 Vibration     4          0.599              1.966              4.022
 Vibration     5          0.600              1.961              3.832
 Vibration     6          0.601              1.958              3.715
 Vibration     7          0.604              1.950              3.481
 Vibration     8          0.608              1.937              3.178
 Vibration     9          0.623              1.885              2.491
 Vibration    10          0.635              1.848              2.188
 Vibration    11          0.641              1.831              2.074
 Vibration    12          0.661              1.769              1.757
 Vibration    13          0.679              1.714              1.545
 Vibration    14          0.707              1.633              1.304
 Vibration    15          0.721              1.592              1.205
 Vibration    16          0.734              1.555              1.122
 Vibration    17          0.764              1.476              0.973
 Vibration    18          0.777              1.440              0.913
 Vibration    19          0.883              1.189              0.592
 Vibration    20          0.909              1.132              0.537
 Vibration    21          0.962              1.024              0.443

 Optimization completed.
    -- Stationary point found.
 Normal termination of Gaussian 09 at Sat Jul 24 10:34:37 2021.
