 Gaussian 09, Revision D.01,
 Gaussian 09:  ES64L-G09RevD.01 24-Apr-2013

 ----------------------------------------------------------------------
 # B3LYP/6-311G(2df,2pd) EmpiricalDispersion=GD3BJ opt=calcfc freq=nora
 man nosymm integral(ultrafinegrid)
 ----------------------------------------------------------------------

 ------------------------------------------------------------
 Candidate Structure: Conf:591 OPT and FREQ calc in gas phase
 ------------------------------------------------------------
 Symbolic Z-matrix:
 Charge =  0 Multiplicity = 1

 SCF Done:  E(RB3LYP) =  -796.413462343     A.U. after   13 cycles
 SCF Done:  E(RB3LYP) =  -796.415605045     A.U. after   13 cycles
 SCF Done:  E(RB3LYP) =  -796.415677917     A.U. after   12 cycles
 SCF Done:  E(RB3LYP) =  -796.415905691     A.U. after   12 cycles
 SCF Done:  E(RB3LYP) =  -796.416004387     A.U. after   14 cycles
 SCF Done:  E(RB3LYP) =  -796.416105812     A.U. after   14 cycles
 SCF Done:  E(RB3LYP) =  -796.417950747     A.U. after   13 cycles
 SCF Done:  E(RB3LYP) =  -796.375787156     A.U. after   14 cycles
 SCF Done:  E(RB3LYP) =  -796.418545099     A.U. after   11 cycles
 SCF Done:  E(RB3LYP) =  -796.419527645     A.U. after   12 cycles
 SCF Done:  E(RB3LYP) =  -796.421361779     A.U. after   11 cycles
 SCF Done:  E(RB3LYP) =  -796.421417700     A.U. after   11 cycles
 SCF Done:  E(RB3LYP) =  -796.421443487     A.U. after   10 cycles
 SCF Done:  E(RB3LYP) =  -796.421455123     A.U. after   10 cycles
 SCF Done:  E(RB3LYP) =  -796.421456935     A.U. after    8 cycles
 SCF Done:  E(RB3LYP) =  -796.421457415     A.U. after    7 cycles
 SCF Done:  E(RB3LYP) =  -796.421457490     A.U. after    7 cycles
 SCF Done:  E(RB3LYP) =  -796.421457503     A.U. after    6 cycles
 SCF Done:  E(RB3LYP) =  -796.421457508     A.U. after    6 cycles
 Optimization completed.
    -- Stationary point found.
 Normal termination of Gaussian 09 at Sat Jul 24 09:35:13 2021.

 ----------------------------------------------------------------------
 #N Geom=AllCheck Guess=TCheck SCRF=Check GenChk RB3LYP/6-311G(2df,2pd)
  Freq
 ----------------------------------------------------------------------

 Structure from the checkpoint file:  "conf-591.chk"
 ------------------------------------------------------------
 Candidate Structure: Conf:591 OPT and FREQ calc in gas phase
 ------------------------------------------------------------
 Charge =  0 Multiplicity = 1

                          Input orientation:
 ---------------------------------------------------------------------
 Center     Atomic      Atomic             Coordinates (Angstroms)
 Number     Number       Type             X           Y           Z
 ---------------------------------------------------------------------
      1          8           0       -0.788773   -0.522237   -1.003930
      2          6           0       -1.236973   -0.549476    0.138644
      3          7           0       -0.441254   -0.493335    1.227666
      4          6           0        1.001370   -0.483876    1.138658
      5          6           0        1.538250   -0.874343    2.497901
      6          8           0        2.866309   -1.052797    2.469223
      7          8           0        0.870289   -0.991115    3.493488
      8          6           0        1.592266    0.896723    0.680033
      9          6           0        2.373546    0.821980   -0.580227
     10          6           0        3.674178    1.124355   -0.889510
     11          7           0        3.927346    0.877199   -2.218003
     12          6           0        2.794812    0.424262   -2.705927
     13          7           0        1.820998    0.373426   -1.758823
     14          6           0       -2.722447   -0.665262    0.407687
     15          6           0       -3.546655    0.161163   -0.574148
     16          7           0       -4.969697   -0.110673   -0.380285
     17          1           0       -0.827599   -0.575199    2.155534
     18          1           0        1.322943   -1.239018    0.420891
     19          1           0        3.149323   -1.272213    3.368395
     20          1           0        2.235164    1.307230    1.456356
     21          1           0        0.744396    1.575774    0.577504
     22          1           0        4.435135    1.505190   -0.228780
     23          1           0        2.624518    0.122000   -3.725705
     24          1           0        0.867684    0.033756   -1.831572
     25          1           0       -3.005683   -1.714518    0.296588
     26          1           0       -2.949529   -0.381022    1.437615
     27          1           0       -3.268712   -0.135723   -1.583770
     28          1           0       -3.272557    1.220261   -0.470589
     29          1           0       -5.512227    0.316372   -1.120450
     30          1           0       -5.296401    0.301254    0.486177
 ---------------------------------------------------------------------

 SCF Done:  E(RB3LYP) =  -796.421457508     A.U. after    1 cycles

 Alpha  occ. eigenvalues --  -19.19395 -19.13939 -19.10560 -14.35583 -14.34246
 Alpha  occ. eigenvalues --  -14.29636 -14.27208 -10.32991 -10.28950 -10.24650
 Alpha  occ. eigenvalues --  -10.20502 -10.20211 -10.19859 -10.18985 -10.18849
 Alpha  occ. eigenvalues --  -10.16601  -1.14081  -1.06120  -1.05138  -1.00026
 Alpha  occ. eigenvalues --   -0.95210  -0.89355  -0.85684  -0.81499  -0.77194
 Alpha  occ. eigenvalues --   -0.74305  -0.68406  -0.65990  -0.61885  -0.60847
 Alpha  occ. eigenvalues --   -0.59790  -0.57794  -0.54398  -0.54022  -0.51929
 Alpha  occ. eigenvalues --   -0.50903  -0.49652  -0.49101  -0.48637  -0.47187
 Alpha  occ. eigenvalues --   -0.45358  -0.43969  -0.43686  -0.43211  -0.41967
 Alpha  occ. eigenvalues --   -0.40987  -0.39944  -0.39752  -0.39323  -0.39276
 Alpha  occ. eigenvalues --   -0.36777  -0.36059  -0.35451  -0.31485  -0.28767
 Alpha  occ. eigenvalues --   -0.28239  -0.26859  -0.25580  -0.25242  -0.21781
 Alpha virt. eigenvalues --   -0.02328   0.00056   0.01531   0.02407   0.03117
 Alpha virt. eigenvalues --    0.04005   0.06168   0.06449   0.07136   0.07412
 Alpha virt. eigenvalues --    0.08035   0.08485   0.09036   0.10317   0.11123

 Mulliken charges:
               1
     1  O   -0.478360
     2  C    0.462646
     3  N   -0.301157
     4  C    0.089260
     5  C    0.520987
     6  O   -0.334270
     7  O   -0.377932
     8  C    0.012537
     9  C    0.086042
    10  C    0.105161
    11  N   -0.359626
    12  C    0.229056
    13  N   -0.240215
    14  C   -0.028608
    15  C    0.198304
    16  N   -0.326235
    17  H    0.107465
    18  H    0.028997
    19  H    0.227336
    20  H    0.004473
    21  H    0.023708
    22  H   -0.003345
    23  H    0.011737
    24  H    0.139426
    25  H    0.023101
    26  H   -0.002778
    27  H    0.019252
    28  H   -0.016341
    29  H    0.086214
    30  H    0.093164
 Sum of Mulliken charges =   0.00000

 Dipole moment (field-independent basis, Debye):
    X=             -3.5142    Y=              0.0057    Z=              3.6180  Tot=              5.0437
 Quadrupole moment (field-independent basis, Debye-Ang):
   XX=           -101.3599   YY=            -94.6555   ZZ=            -94.0699
   XY=            -11.9294   XZ=             15.9968   YZ=              2.0616

  Exact polarizability: 167.503   8.401  94.718  -4.367  -5.511 149.467
 Approx polarizability: 222.252  12.339 148.481 -10.762   3.028 231.078

                      1                      2                      3
                      A                      A                      A
 Frequencies --      7.0817                28.3526                55.0894
 Red. masses --      2.8959                 5.8138                 3.9904
 Frc consts  --      0.0001                 0.0028                 0.0071
 IR Inten    --      0.6830                 0.6885                 3.8825

                      4                      5                      6
                      A                      A                      A
 Frequencies --     59.6349                72.8800                76.7672
 Red. masses --      6.8646                 3.8313                 3.5736
 Frc consts  --      0.0144                 0.0120                 0.0124
 IR Inten    --      0.5349                 0.8597                 3.0414

                      7                      8                      9
                      A                      A                      A
 Frequencies --     85.6372               123.4703               157.7354
 Red. masses --      6.7073                 5.3639                 4.3464
 Frc consts  --      0.0290                 0.0482                 0.0637
 IR Inten    --      5.7458                 3.5795                 5.8363

                     10                     11                     12
                      A                      A                      A
 Frequencies --    190.4827               207.5313               247.2650
 Red. masses --      5.1957                 2.8415                 1.3794
 Frc consts  --      0.1111                 0.0721                 0.0497
 IR Inten    --      2.0746                 8.1734                42.7171

                     13                     14                     15
                      A                      A                      A
 Frequencies --    277.5074               299.3922               321.2858
 Red. masses --      4.3359                 2.9901                 4.6047
 Frc consts  --      0.1967                 0.1579                 0.2800
 IR Inten    --      2.4059                 5.2341                 2.1178

                     16                     17                     18
                      A                      A                      A
 Frequencies --    353.3069               399.4361               424.2682
 Red. masses --      6.1572                 4.0788                 3.4867
 Frc consts  --      0.4528                 0.3834                 0.3698
 IR Inten    --      0.8459                 3.3943                 2.3122

                     19                     20                     21
                      A                      A                      A
 Frequencies --    532.0383               554.8712               592.9803
 Red. masses --      2.3220                 1.5626                 1.3946
 Frc consts  --      0.3872                 0.2835                 0.2889
 IR Inten    --     45.3976                77.3893                53.5702

                     22                     23                     24
                      A                      A                      A
 Frequencies --    636.5755               647.1328               658.8262
 Red. masses --      3.7059                 3.0902                 2.5952
 Frc consts  --      0.8848                 0.7625                 0.6637
 IR Inten    --     30.9068                 6.6253                 2.2078

                     25                     26                     27
                      A                      A                      A
 Frequencies --    682.7361               721.6561               747.4124
 Red. masses --      3.3264                 3.4719                 3.5362
 Frc consts  --      0.9135                 1.0653                 1.1639
 IR Inten    --     47.1139                17.2162                15.6505

                     28                     29                     30
                      A                      A                      A
 Frequencies --    773.0694               778.2952               804.3868
 Red. masses --      1.1131                 3.7877                 1.3869
 Frc consts  --      0.3919                 1.3518                 0.5287
 IR Inten    --     33.4515                11.5116                20.4893

                     31                     32                     33
                      A                      A                      A
 Frequencies --    828.9223               847.0467               854.0139
 Red. masses --      1.4270                 1.4498                 1.3495
 Frc consts  --      0.5777                 0.6129                 0.5799
 IR Inten    --     18.2280                27.0893                95.5589

                     34                     35                     36
                      A                      A                      A
 Frequencies --    873.8514               942.8928               949.1599
 Red. masses --      2.3260                 3.3316                 5.7106
 Frc consts  --      1.0465                 1.7451                 3.0312
 IR Inten    --     25.6443                 4.0675                21.5597

                     37                     38                     39
                      A                      A                      A
 Frequencies --    982.0837               987.7800              1025.2082
 Red. masses --      3.1820                 2.8307                 3.0482
 Frc consts  --      1.8082                 1.6273                 1.8876
 IR Inten    --      0.9030                 7.8358                29.0459

                     40                     41                     42
                      A                      A                      A
 Frequencies --   1029.2268              1064.9680              1098.9216
 Red. masses --      3.6035                 2.8007                 2.1277
 Frc consts  --      2.2490                 1.8715                 1.5139
 IR Inten    --      1.8543                19.5513                14.2132

                     43                     44                     45
                      A                      A                      A
 Frequencies --   1118.7052              1131.6712              1146.1480
 Red. masses --      2.5020                 1.7896                 2.0797
 Frc consts  --      1.8449                 1.3504                 1.6097
 IR Inten    --     57.6188                46.0707                 1.7303

                     46                     47                     48
                      A                      A                      A
 Frequencies --   1164.2266              1183.6173              1209.2610
 Red. masses --      1.5093                 2.3403                 1.2955
 Frc consts  --      1.2053                 1.9317                 1.1161
 IR Inten    --     51.7521               134.3277                 6.1832

                     49                     50                     51
                      A                      A                      A
 Frequencies --   1245.0816              1262.3546              1266.6867
 Red. masses --      1.5220                 2.1451                 1.4746
 Frc consts  --      1.3902                 2.0140                 1.3940
 IR Inten    --     19.5485                10.4962                 4.0536

                     52                     53                     54
                      A                      A                      A
 Frequencies --   1280.6741              1292.3090              1329.8601
 Red. masses --      1.4285                 1.3140                 1.3267
 Frc consts  --      1.3804                 1.2930                 1.3824
 IR Inten    --     10.1910                14.9825                 0.3805

                     55                     56                     57
                      A                      A                      A
 Frequencies --   1340.5576              1359.3724              1371.9069
 Red. masses --      1.1375                 1.3979                 1.5534
 Frc consts  --      1.2044                 1.5220                 1.7226
 IR Inten    --      8.7157                31.2845                11.7879

                     58                     59                     60
                      A                      A                      A
 Frequencies --   1389.4951              1419.0148              1428.4224
 Red. masses --      4.2608                 2.1529                 1.5718
 Frc consts  --      4.8468                 2.5542                 1.8896
 IR Inten    --     15.9726                63.6871                56.0840

                     61                     62                     63
                      A                      A                      A
 Frequencies --   1443.2887              1473.0969              1479.4360
 Red. masses --      2.4099                 1.0973                 1.1565
 Frc consts  --      2.9577                 1.4029                 1.4914
 IR Inten    --     76.5887                 9.5037                13.3764

                     64                     65                     66
                      A                      A                      A
 Frequencies --   1502.4360              1520.3800              1541.4367
 Red. masses --      3.2057                 1.0842                 2.4581
 Frc consts  --      4.2635                 1.4767                 3.4411
 IR Inten    --     21.7604                 1.3421               320.3699

                     67                     68                     69
                      A                      A                      A
 Frequencies --   1613.4293              1665.8717              1719.4001
 Red. masses --      4.2553                 1.0901                 8.5090
 Frc consts  --      6.5265                 1.7824                14.8211
 IR Inten    --     17.8703                19.7769               217.1074

                     70                     71                     72
                      A                      A                      A
 Frequencies --   1814.7947              2951.9639              3033.3555
 Red. masses --      9.7443                 1.0742                 1.0595
 Frc consts  --     18.9084                 5.5151                 5.7435
 IR Inten    --    278.8390                67.7405                15.7340

                     73                     74                     75
                      A                      A                      A
 Frequencies --   3044.8632              3067.2325              3069.5129
 Red. masses --      1.0659                 1.0834                 1.0988
 Frc consts  --      5.8224                 6.0052                 6.0994
 IR Inten    --     18.8209                10.7509                 7.8708

                     76                     77                     78
                      A                      A                      A
 Frequencies --   3097.6342              3101.1279              3230.6847
 Red. masses --      1.0909                 1.0972                 1.0958
 Frc consts  --      6.1674                 6.2167                 6.7386
 IR Inten    --     17.5935                10.2754                 9.7889

                     79                     80                     81
                      A                      A                      A
 Frequencies --   3241.4680              3493.7486              3500.4829
 Red. masses --      1.0978                 1.0502                 1.0847
 Frc consts  --      6.7963                 7.5531                 7.8307
 IR Inten    --      1.4093                 0.5501               426.8138

                     82                     83                     84
                      A                      A                      A
 Frequencies --   3568.7123              3598.4167              3754.7896
 Red. masses --      1.0918                 1.0776                 1.0641
 Frc consts  --      8.1924                 8.2210                 8.8392
 IR Inten    --      0.4753                82.2812                89.0523

 - Thermochemistry -
 -------------------
 Temperature   298.150 Kelvin.  Pressure   1.00000 Atm.
 Atom     1 has atomic number  8 and mass  15.99491

 Molecular mass:   226.10659 amu.
 Principal axes and moments of inertia in atomic units:
                           1         2         3
     Eigenvalues --  2816.528905639.767988084.22666
           X            0.99077   0.11129  -0.07745
           Y            0.10626  -0.28255   0.95335
           Z           -0.08421   0.95278   0.29176
 This molecule is an asymmetric top.
 Rotational symmetry number  1.
 Warning -- assumption of classical behavior for rotation
           may cause significant error
 Rotational temperatures (Kelvin)      0.03075     0.01536     0.01071
 Rotational constants (GHZ):           0.64077     0.32000     0.22324
 Zero-point vibrational energy     642802.0 (Joules/Mol)
                                  153.63337 (Kcal/Mol)
 Warning -- explicit consideration of  21 degrees of freedom as
           vibrations may cause significant error
 Vibrational temperatures:     10.19    40.79    79.26    85.80   104.86
          (Kelvin)            110.45   123.21   177.65   226.95   274.06
                              298.59   355.76   399.27   430.76   462.26
                              508.33   574.70   610.43   765.48   798.33
                              853.17   915.89   931.08   947.90   982.30
                             1038.30  1075.36  1112.27  1119.79  1157.33
                             1192.63  1218.71  1228.73  1257.28  1356.61
                             1365.63  1413.00  1421.19  1475.04  1480.83
                             1532.25  1581.10  1609.57  1628.22  1649.05
                             1675.06  1702.96  1739.85  1791.39  1816.24
                             1822.48  1842.60  1859.34  1913.37  1928.76
                             1955.83  1973.87  1999.17  2041.64  2055.18
                             2076.57  2119.46  2128.58  2161.67  2187.49
                             2217.78  2321.36  2396.81  2473.83  2611.08
                             4247.21  4364.32  4380.87  4413.06  4416.34
                             4456.80  4461.83  4648.23  4663.74  5026.72
                             5036.41  5134.57  5177.31  5402.30

 Zero-point correction=                           0.244830 (Hartree/Particle)
 Thermal correction to Energy=                    0.260951
 Thermal correction to Enthalpy=                  0.261895
 Thermal correction to Gibbs Free Energy=         0.197203
 Sum of electronic and zero-point Energies=           -796.176627
 Sum of electronic and thermal Energies=              -796.160507
 Sum of electronic and thermal Enthalpies=            -796.159562
 Sum of electronic and thermal Free Energies=         -796.224255

                     E (Thermal)             CV                S
                      KCal/Mol        Cal/Mol-Kelvin    Cal/Mol-Kelvin
 Total                  163.749             57.984            136.157
 Electronic               0.000              0.000              0.000
 Translational            0.889              2.981             42.150
 Rotational               0.889              2.981             33.218
 Vibrational            161.972             52.022             60.789
 Vibration     1          0.593              1.987              8.697
 Vibration     2          0.593              1.984              5.941
 Vibration     3          0.596              1.976              4.626
 Vibration     4          0.597              1.974              4.469
 Vibration     5          0.599              1.967              4.074
 Vibration     6          0.599              1.965              3.972
 Vibration     7          0.601              1.959              3.757
 Vibration     8          0.610              1.929              3.045
 Vibration     9          0.621              1.894              2.577
 Vibration    10          0.634              1.853              2.223
 Vibration    11          0.641              1.829              2.065
 Vibration    12          0.661              1.767              1.750
 Vibration    13          0.678              1.715              1.549
 Vibration    14          0.692              1.675              1.420
 Vibration    15          0.707              1.633              1.304
 Vibration    16          0.730              1.568              1.151
 Vibration    17          0.765              1.471              0.965
 Vibration    18          0.786              1.417              0.878
 Vibration    19          0.887              1.179              0.583
 Vibration    20          0.910              1.129              0.534
 Vibration    21          0.951              1.047              0.462

 Optimization completed on the basis of negligible forces.
    -- Stationary point found.
 Normal termination of Gaussian 09 at Sat Jul 24 13:05:15 2021.
