 Gaussian 09, Revision D.01,
 Gaussian 09:  ES64L-G09RevD.01 24-Apr-2013

 ----------------------------------------------------------------------
 # B3LYP/6-311G(2df,2pd) EmpiricalDispersion=GD3BJ opt=calcfc freq=nora
 man nosymm integral(ultrafinegrid)
 ----------------------------------------------------------------------

 ------------------------------------------------------------
 Candidate Structure: Conf:801 OPT and FREQ calc in gas phase
 ------------------------------------------------------------
 Symbolic Z-matrix:
 Charge =  0 Multiplicity = 1

 SCF Done:  E(RB3LYP) =  -796.409640623     A.U. after   13 cycles
 SCF Done:  E(RB3LYP) =  -796.411909573     A.U. after   14 cycles
 SCF Done:  E(RB3LYP) =  -796.398527636     A.U. after   13 cycles
 SCF Done:  E(RB3LYP) =  -796.411932063     A.U. after    8 cycles
 SCF Done:  E(RB3LYP) =  -796.412682865     A.U. after   14 cycles
 SCF Done:  E(RB3LYP) =  -796.411485113     A.U. after   13 cycles
 SCF Done:  E(RB3LYP) =  -796.411933215     A.U. after   11 cycles
 SCF Done:  E(RB3LYP) =  -796.412683176     A.U. after    8 cycles
 SCF Done:  E(RB3LYP) =  -796.413061920     A.U. after   11 cycles
 SCF Done:  E(RB3LYP) =  -796.413099073     A.U. after   11 cycles
 SCF Done:  E(RB3LYP) =  -796.413196630     A.U. after   10 cycles
 SCF Done:  E(RB3LYP) =  -796.413220882     A.U. after   10 cycles
 SCF Done:  E(RB3LYP) =  -796.413225771     A.U. after    9 cycles
 SCF Done:  E(RB3LYP) =  -796.413226602     A.U. after    9 cycles
 SCF Done:  E(RB3LYP) =  -796.413226920     A.U. after    7 cycles
 SCF Done:  E(RB3LYP) =  -796.413227009     A.U. after    7 cycles
 SCF Done:  E(RB3LYP) =  -796.413227033     A.U. after    7 cycles
 Optimization completed.
    -- Stationary point found.
 Normal termination of Gaussian 09 at Sat Jul 24 08:15:03 2021.

 ----------------------------------------------------------------------
 #N Geom=AllCheck Guess=TCheck SCRF=Check GenChk RB3LYP/6-311G(2df,2pd)
  Freq
 ----------------------------------------------------------------------

 Structure from the checkpoint file:  "conf-801.chk"
 ------------------------------------------------------------
 Candidate Structure: Conf:801 OPT and FREQ calc in gas phase
 ------------------------------------------------------------
 Charge =  0 Multiplicity = 1

                          Input orientation:
 ---------------------------------------------------------------------
 Center     Atomic      Atomic             Coordinates (Angstroms)
 Number     Number       Type             X           Y           Z
 ---------------------------------------------------------------------
      1          8           0        1.496316    0.858963   -1.058138
      2          6           0        1.752063    0.211351   -0.055052
      3          7           0        0.785199   -0.131725    0.837333
      4          6           0       -0.556808    0.375980    0.713582
      5          6           0       -1.223910    0.279154    2.083204
      6          8           0       -2.408552    0.893209    2.207948
      7          8           0       -0.736384   -0.319580    3.003553
      8          6           0       -1.349971   -0.392216   -0.379577
      9          6           0       -2.726606    0.135493   -0.594502
     10          6           0       -3.191678    1.358854   -1.015824
     11          7           0       -4.567865    1.401180   -0.972964
     12          6           0       -4.941083    0.225915   -0.532986
     13          7           0       -3.866260   -0.576534   -0.285651
     14          6           0        3.153937   -0.249751    0.292744
     15          6           0        4.014040   -0.465044   -0.945483
     16          7           0        5.397395   -0.731378   -0.551337
     17          1           0        1.007608   -0.574925    1.715641
     18          1           0       -0.516692    1.424214    0.406490
     19          1           0       -2.684013    1.284476    1.362692
     20          1           0       -1.380019   -1.448033   -0.106025
     21          1           0       -0.759512   -0.305758   -1.290000
     22          1           0       -2.611227    2.195581   -1.366823
     23          1           0       -5.955045   -0.100167   -0.374307
     24          1           0       -3.889361   -1.511058    0.084610
     25          1           0        3.111346   -1.158005    0.899229
     26          1           0        3.622732    0.518597    0.912989
     27          1           0        3.988887    0.445970   -1.540552
     28          1           0        3.562406   -1.252713   -1.563690
     29          1           0        5.475708   -1.649310   -0.128620
     30          1           0        5.997119   -0.742842   -1.366772
 ---------------------------------------------------------------------

 SCF Done:  E(RB3LYP) =  -796.413227033     A.U. after    1 cycles

 Alpha  occ. eigenvalues --  -19.17794 -19.12307 -19.09075 -14.38521 -14.34391
 Alpha  occ. eigenvalues --  -14.30439 -14.29017 -10.31747 -10.27595 -10.24454
 Alpha  occ. eigenvalues --  -10.23710 -10.22461 -10.20784 -10.19683 -10.19383
 Alpha  occ. eigenvalues --  -10.18023  -1.12217  -1.04910  -1.04135  -1.03502
 Alpha  occ. eigenvalues --   -0.94155  -0.89046  -0.88669  -0.82225  -0.77336
 Alpha  occ. eigenvalues --   -0.74432  -0.69147  -0.64264  -0.63440  -0.62319
 Alpha  occ. eigenvalues --   -0.61280  -0.59500  -0.56925  -0.54852  -0.50872
 Alpha  occ. eigenvalues --   -0.50504  -0.49118  -0.48867  -0.47232  -0.46506
 Alpha  occ. eigenvalues --   -0.45925  -0.44811  -0.43710  -0.43090  -0.42701
 Alpha  occ. eigenvalues --   -0.42497  -0.41782  -0.39962  -0.39405  -0.39173
 Alpha  occ. eigenvalues --   -0.36061  -0.35174  -0.34069  -0.30485  -0.29952
 Alpha  occ. eigenvalues --   -0.28602  -0.27747  -0.26583  -0.24762  -0.24566
 Alpha virt. eigenvalues --   -0.01700   0.00354   0.01226   0.01723   0.02765
 Alpha virt. eigenvalues --    0.03063   0.04476   0.04914   0.06365   0.07600
 Alpha virt. eigenvalues --    0.08217   0.08360   0.08792   0.09795   0.10483

 Mulliken charges:
               1
     1  O   -0.431822
     2  C    0.439374
     3  N   -0.335934
     4  C    0.061146
     5  C    0.521345
     6  O   -0.302666
     7  O   -0.364352
     8  C    0.038993
     9  C    0.011783
    10  C    0.078432
    11  N   -0.348822
    12  C    0.237749
    13  N   -0.212103
    14  C   -0.052789
    15  C    0.204504
    16  N   -0.327609
    17  H    0.105979
    18  H    0.028917
    19  H    0.228048
    20  H    0.009913
    21  H    0.049406
    22  H    0.030875
    23  H    0.026373
    24  H    0.109724
    25  H   -0.002681
    26  H    0.021273
    27  H    0.017668
    28  H   -0.019188
    29  H    0.091786
    30  H    0.084680
 Sum of Mulliken charges =   0.00000

 Dipole moment (field-independent basis, Debye):
    X=              0.0785    Y=             -4.2518    Z=             -0.7028  Tot=              4.3102
 Quadrupole moment (field-independent basis, Debye-Ang):
   XX=            -90.4188   YY=            -90.6947   ZZ=           -109.2435
   XY=              6.2004   XZ=             -2.8608   YZ=              4.3767

  Exact polarizability: 182.727 -10.934 111.225   0.132 -11.385 116.216
 Approx polarizability: 224.023 -11.337 194.258   2.506 -30.465 185.056

 ******    1 imaginary frequencies (negative Signs) ******

                      1                      2                      3
                      A                      A                      A
 Frequencies --     -6.3448                28.8194                44.7553
 Red. masses --      2.9124                 5.1516                 4.4705
 Frc consts  --      0.0001                 0.0025                 0.0053
 IR Inten    --      0.5849                 1.2789                 4.5175

                      4                      5                      6
                      A                      A                      A
 Frequencies --     47.4688                73.3456                81.6411
 Red. masses --      2.5894                 6.4467                 5.3163
 Frc consts  --      0.0034                 0.0204                 0.0209
 IR Inten    --      1.5938                12.1164                 5.4622

                      7                      8                      9
                      A                      A                      A
 Frequencies --     91.5847               103.4533               151.1812
 Red. masses --      4.7742                 6.9434                 3.9734
 Frc consts  --      0.0236                 0.0438                 0.0535
 IR Inten    --      0.5596                 2.0518                 5.6432

                     10                     11                     12
                      A                      A                      A
 Frequencies --    183.7981               214.6708               247.3701
 Red. masses --      4.6394                 4.4012                 1.2384
 Frc consts  --      0.0923                 0.1195                 0.0446
 IR Inten    --      7.6722                12.7360                44.2786

                     13                     14                     15
                      A                      A                      A
 Frequencies --    282.2161               328.3596               334.7411
 Red. masses --      5.7109                 6.5508                 2.3717
 Frc consts  --      0.2680                 0.4161                 0.1566
 IR Inten    --      1.7725                 2.7187                 3.2838

                     16                     17                     18
                      A                      A                      A
 Frequencies --    348.3767               390.9267               402.1057
 Red. masses --      5.8424                 4.2609                 4.1039
 Frc consts  --      0.4178                 0.3837                 0.3910
 IR Inten    --      5.8642                13.7968                 2.4084

                     19                     20                     21
                      A                      A                      A
 Frequencies --    530.2332               546.7469               558.5124
 Red. masses --      1.5790                 1.3791                 2.4669
 Frc consts  --      0.2616                 0.2429                 0.4534
 IR Inten    --     56.9106                63.4921                26.2764

                     22                     23                     24
                      A                      A                      A
 Frequencies --    618.4167               640.5364               644.7526
 Red. masses --      1.9900                 2.1208                 1.9294
 Frc consts  --      0.4484                 0.5127                 0.4726
 IR Inten    --     66.1958                 8.6869                23.4693

                     25                     26                     27
                      A                      A                      A
 Frequencies --    678.2104               688.1221               737.1005
 Red. masses --      2.6742                 3.4529                 3.4458
 Frc consts  --      0.7247                 0.9633                 1.1031
 IR Inten    --      6.1379                25.3554                20.8600

                     28                     29                     30
                      A                      A                      A
 Frequencies --    748.2235               769.7719               804.0666
 Red. masses --      3.3678                 3.8555                 1.4768
 Frc consts  --      1.1109                 1.3460                 0.5626
 IR Inten    --      7.5665                 6.1122                15.2950

                     31                     32                     33
                      A                      A                      A
 Frequencies --    826.2798               831.9207               856.6568
 Red. masses --      2.0646                 1.6079                 1.3349
 Frc consts  --      0.8305                 0.6557                 0.5772
 IR Inten    --      7.3915                14.6939                98.5839

                     34                     35                     36
                      A                      A                      A
 Frequencies --    866.5604               945.3120               952.4811
 Red. masses --      1.4443                 5.7158                 3.1024
 Frc consts  --      0.6390                 3.0094                 1.6583
 IR Inten    --     34.5833                17.2258                20.4621

                     37                     38                     39
                      A                      A                      A
 Frequencies --    986.7979              1011.6141              1032.0677
 Red. masses --      2.1838                 3.3892                 3.5816
 Frc consts  --      1.2529                 2.0435                 2.2477
 IR Inten    --      4.3089                 5.0368                 8.9207

                     40                     41                     42
                      A                      A                      A
 Frequencies --   1037.0001              1063.9447              1099.8706
 Red. masses --      3.4156                 2.7963                 2.0948
 Frc consts  --      2.1641                 1.8649                 1.4930
 IR Inten    --      6.6598                22.1724                20.5288

                     43                     44                     45
                      A                      A                      A
 Frequencies --   1108.8341              1128.8465              1141.8640
 Red. masses --      1.6055                 2.1966                 2.4267
 Frc consts  --      1.1630                 1.6492                 1.8642
 IR Inten    --     13.0603                14.4922                 8.5722

                     46                     47                     48
                      A                      A                      A
 Frequencies --   1163.9637              1173.4196              1210.1146
 Red. masses --      1.3781                 1.7793                 1.8652
 Frc consts  --      1.1001                 1.4435                 1.6093
 IR Inten    --      3.7291                12.9941                44.1413

                     49                     50                     51
                      A                      A                      A
 Frequencies --   1225.2387              1253.7794              1267.8136
 Red. masses --      1.7930                 1.9642                 1.4453
 Frc consts  --      1.5859                 1.8192                 1.3688
 IR Inten    --     16.4383                17.4594                 9.1513

                     52                     53                     54
                      A                      A                      A
 Frequencies --   1282.9389              1309.2403              1324.5978
 Red. masses --      1.4468                 1.4209                 1.4191
 Frc consts  --      1.4031                 1.4350                 1.4670
 IR Inten    --      1.5343                10.0086                92.2880

                     55                     56                     57
                      A                      A                      A
 Frequencies --   1337.4707              1361.9406              1362.5405
 Red. masses --      1.1113                 1.5049                 1.3572
 Frc consts  --      1.1713                 1.6447                 1.4846
 IR Inten    --     13.8026               144.6324                 6.6209

                     58                     59                     60
                      A                      A                      A
 Frequencies --   1399.6474              1407.8398              1427.7722
 Red. masses --      2.5780                 1.9923                 3.0820
 Frc consts  --      2.9756                 2.3265                 3.7017
 IR Inten    --     37.0025               109.8110                12.3377

                     61                     62                     63
                      A                      A                      A
 Frequencies --   1429.7584              1470.2567              1489.9240
 Red. masses --      1.5457                 1.0900                 2.2019
 Frc consts  --      1.8617                 1.3882                 2.8799
 IR Inten    --     51.7285                 7.6029                15.0009

                     64                     65                     66
                      A                      A                      A
 Frequencies --   1493.7227              1519.5966              1522.5471
 Red. masses --      1.4442                 1.0846                 2.2914
 Frc consts  --      1.8986                 1.4757                 3.1296
 IR Inten    --     16.8784                 1.3178               342.1943

                     67                     68                     69
                      A                      A                      A
 Frequencies --   1598.5085              1665.1015              1737.9820
 Red. masses --      4.1275                 1.0893                 9.5402
 Frc consts  --      6.2139                 1.7795                16.9784
 IR Inten    --     11.0872                20.4418               198.9485

                     70                     71                     72
                      A                      A                      A
 Frequencies --   1836.7593              2956.7798              3027.7466
 Red. masses --      9.5360                 1.0744                 1.0596
 Frc consts  --     18.9549                 5.5343                 5.7233
 IR Inten    --    272.7640                66.2906                16.5592

                     73                     74                     75
                      A                      A                      A
 Frequencies --   3035.8510              3054.5497              3061.8359
 Red. masses --      1.0801                 1.0647                 1.0989
 Frc consts  --      5.8653                 5.8531                 6.0696
 IR Inten    --      8.5338                18.5540                10.3770

                     76                     77                     78
                      A                      A                      A
 Frequencies --   3096.8731              3105.4583              3236.2738
 Red. masses --      1.0899                 1.1017                 1.0960
 Frc consts  --      6.1588                 6.2596                 6.7633
 IR Inten    --     16.9737                 2.0620                 3.1822

                     79                     80                     81
                      A                      A                      A
 Frequencies --   3247.7966              3491.4247              3566.3239
 Red. masses --      1.0985                 1.0502                 1.0917
 Frc consts  --      6.8269                 7.5430                 8.1807
 IR Inten    --      0.6400                 0.7791                 0.2353

                     82                     83                     84
                      A                      A                      A
 Frequencies --   3595.7676              3650.0509              3652.0069
 Red. masses --      1.0774                 1.0758                 1.0719
 Frc consts  --      8.2077                 8.4446                 8.4228
 IR Inten    --     73.4941                96.0322               210.4248

 - Thermochemistry -
 -------------------
 Temperature   298.150 Kelvin.  Pressure   1.00000 Atm.
 Atom     1 has atomic number  8 and mass  15.99491

 Molecular mass:   226.10659 amu.
 Principal axes and moments of inertia in atomic units:
                           1         2         3
     Eigenvalues --  1616.136447848.224268867.63114
           X            0.99321   0.02378   0.11389
           Y           -0.11100  -0.09978   0.98880
           Z           -0.03488   0.99473   0.09647
 This molecule is an asymmetric top.
 Rotational symmetry number  1.
 Warning -- assumption of classical behavior for rotation
           may cause significant error
 Rotational temperatures (Kelvin)      0.05359     0.01104     0.00977
 Rotational constants (GHZ):           1.11670     0.22996     0.20352
    1 imaginary frequencies ignored.
 Zero-point vibrational energy     641561.9 (Joules/Mol)
                                  153.33697 (Kcal/Mol)
 Warning -- explicit consideration of  21 degrees of freedom as
           vibrations may cause significant error
 Vibrational temperatures:     41.46    64.39    68.30   105.53   117.46
          (Kelvin)            131.77   148.85   217.52   264.44   308.86
                              355.91   406.05   472.44   481.62   501.24
                              562.46   578.54   762.89   786.65   803.57
                              889.76   921.59   927.65   975.79   990.05
                             1060.52  1076.53  1107.53  1156.87  1188.83
                             1196.95  1232.54  1246.79  1360.09  1370.41
                             1419.78  1455.49  1484.91  1492.01  1530.78
                             1582.47  1595.36  1624.16  1642.89  1674.68
                             1688.29  1741.08  1762.84  1803.91  1824.10
                             1845.86  1883.70  1905.80  1924.32  1959.53
                             1960.39  2013.78  2025.56  2054.24  2057.10
                             2115.37  2143.67  2149.13  2186.36  2190.60
                             2299.89  2395.71  2500.57  2642.68  4254.14
                             4356.25  4367.91  4394.81  4405.29  4455.70
                             4468.06  4656.27  4672.85  5023.38  5131.14
                             5173.50  5251.60  5254.42

 Zero-point correction=                           0.244358 (Hartree/Particle)
 Thermal correction to Energy=                    0.259679
 Thermal correction to Enthalpy=                  0.260623
 Thermal correction to Gibbs Free Energy=         0.199596
 Sum of electronic and zero-point Energies=           -796.168869
 Sum of electronic and thermal Energies=              -796.153548
 Sum of electronic and thermal Enthalpies=            -796.152604
 Sum of electronic and thermal Free Energies=         -796.213631

                     E (Thermal)             CV                S
                      KCal/Mol        Cal/Mol-Kelvin    Cal/Mol-Kelvin
 Total                  162.951             56.354            128.442
 Electronic               0.000              0.000              0.000
 Translational            0.889              2.981             42.150
 Rotational               0.889              2.981             33.086
 Vibrational            161.173             50.393             53.206
 Vibration     1          0.593              1.984              5.909
 Vibration     2          0.595              1.980              5.037
 Vibration     3          0.595              1.979              4.920
 Vibration     4          0.599              1.967              4.062
 Vibration     5          0.600              1.962              3.851
 Vibration     6          0.602              1.955              3.626
 Vibration     7          0.605              1.946              3.388
 Vibration     8          0.619              1.901              2.657
 Vibration     9          0.631              1.862              2.289
 Vibration    10          0.645              1.819              2.004
 Vibration    11          0.661              1.767              1.749
 Vibration    12          0.681              1.707              1.520
 Vibration    13          0.712              1.619              1.268
 Vibration    14          0.716              1.606              1.237
 Vibration    15          0.726              1.579              1.174
 Vibration    16          0.759              1.490              0.997
 Vibration    17          0.768              1.466              0.955
 Vibration    18          0.885              1.183              0.587
 Vibration    19          0.902              1.147              0.551
 Vibration    20          0.914              1.121              0.527
 Vibration    21          0.978              0.993              0.419

 Optimization completed.
    -- Stationary point found.
 Normal termination of Gaussian 09 at Sat Jul 24 11:35:10 2021.
