 Gaussian 09, Revision D.01,
 Gaussian 09:  ES64L-G09RevD.01 24-Apr-2013

 ----------------------------------------------------------------------
 # B3LYP/6-311G(2df,2pd) EmpiricalDispersion=GD3BJ opt=calcfc freq=nora
 man nosymm integral(ultrafinegrid)
 ----------------------------------------------------------------------

 ------------------------------------------------------------
 Candidate Structure: Conf:640 OPT and FREQ calc in gas phase
 ------------------------------------------------------------
 Symbolic Z-matrix:
 Charge =  0 Multiplicity = 1

 SCF Done:  E(RB3LYP) =  -796.419764627     A.U. after   13 cycles
 SCF Done:  E(RB3LYP) =  -796.421440387     A.U. after   13 cycles
 SCF Done:  E(RB3LYP) =  -796.421111869     A.U. after   13 cycles
 SCF Done:  E(RB3LYP) =  -796.421550953     A.U. after   10 cycles
 SCF Done:  E(RB3LYP) =  -796.421771772     A.U. after   12 cycles
 SCF Done:  E(RB3LYP) =  -796.421816558     A.U. after   10 cycles
 SCF Done:  E(RB3LYP) =  -796.421829474     A.U. after   10 cycles
 SCF Done:  E(RB3LYP) =  -796.421832052     A.U. after    8 cycles
 SCF Done:  E(RB3LYP) =  -796.421832236     A.U. after    8 cycles
 SCF Done:  E(RB3LYP) =  -796.421832246     A.U. after    6 cycles
 Optimization completed.
    -- Stationary point found.
 Normal termination of Gaussian 09 at Sat Jul 24 06:41:04 2021.

 ----------------------------------------------------------------------
 #N Geom=AllCheck Guess=TCheck SCRF=Check GenChk RB3LYP/6-311G(2df,2pd)
  Freq
 ----------------------------------------------------------------------

 Structure from the checkpoint file:  "conf-640.chk"
 ------------------------------------------------------------
 Candidate Structure: Conf:640 OPT and FREQ calc in gas phase
 ------------------------------------------------------------
 Charge =  0 Multiplicity = 1

                          Input orientation:
 ---------------------------------------------------------------------
 Center     Atomic      Atomic             Coordinates (Angstroms)
 Number     Number       Type             X           Y           Z
 ---------------------------------------------------------------------
      1          8           0        0.937804   -1.243759   -1.272781
      2          6           0        1.179758   -0.142837   -0.785729
      3          7           0        0.278529    0.869652   -0.799677
      4          6           0       -0.989808    0.757313   -1.477362
      5          6           0       -1.206716    2.001438   -2.314435
      6          8           0       -2.200226    1.834095   -3.203413
      7          8           0       -0.600411    3.031274   -2.179084
      8          6           0       -2.200000    0.578720   -0.522114
      9          6           0       -2.000014   -0.438299    0.548327
     10          6           0       -2.434726   -0.462054    1.848374
     11          7           0       -2.059157   -1.629728    2.469664
     12          6           0       -1.396686   -2.304042    1.560360
     13          7           0       -1.347456   -1.640169    0.371542
     14          6           0        2.466966    0.124728   -0.047127
     15          6           0        2.486155   -0.672838    1.277238
     16          7           0        3.697130   -0.539107    2.070562
     17          1           0        0.558292    1.791341   -0.506635
     18          1           0       -0.926759   -0.107403   -2.136471
     19          1           0       -2.317890    2.676313   -3.666382
     20          1           0       -3.064761    0.340055   -1.145568
     21          1           0       -2.416911    1.532330   -0.037280
     22          1           0       -3.004878    0.293770    2.362819
     23          1           0       -0.929055   -3.264150    1.700057
     24          1           0       -0.735693   -1.861760   -0.405629
     25          1           0        2.601210    1.188633    0.158030
     26          1           0        3.291013   -0.209284   -0.678403
     27          1           0        1.635680   -0.368051    1.889963
     28          1           0        2.335832   -1.725578    1.039749
     29          1           0        3.853383    0.425060    2.338017
     30          1           0        4.509474   -0.835791    1.543338
 ---------------------------------------------------------------------

 SCF Done:  E(RB3LYP) =  -796.421832246     A.U. after    1 cycles

 Alpha  occ. eigenvalues --  -19.19493 -19.13775 -19.10274 -14.35744 -14.35031
 Alpha  occ. eigenvalues --  -14.29555 -14.27795 -10.32853 -10.28764 -10.24676
 Alpha  occ. eigenvalues --  -10.20975 -10.20305 -10.20291 -10.19772 -10.18768
 Alpha  occ. eigenvalues --  -10.17081  -1.14000  -1.05992  -1.05045  -1.00593
 Alpha  occ. eigenvalues --   -0.95279  -0.89343  -0.86233  -0.81896  -0.77164
 Alpha  occ. eigenvalues --   -0.74607  -0.68451  -0.65767  -0.62490  -0.61497
 Alpha  occ. eigenvalues --   -0.59964  -0.58392  -0.55099  -0.52424  -0.52282
 Alpha  occ. eigenvalues --   -0.51509  -0.50263  -0.49328  -0.48381  -0.46854
 Alpha  occ. eigenvalues --   -0.45238  -0.44552  -0.43265  -0.42739  -0.42329
 Alpha  occ. eigenvalues --   -0.41588  -0.40892  -0.40294  -0.39656  -0.38902
 Alpha  occ. eigenvalues --   -0.37494  -0.35686  -0.35438  -0.31409  -0.28843
 Alpha  occ. eigenvalues --   -0.28326  -0.27505  -0.26094  -0.24729  -0.22250
 Alpha virt. eigenvalues --   -0.02125  -0.00411   0.01432   0.02478   0.02826
 Alpha virt. eigenvalues --    0.04230   0.05255   0.06066   0.06545   0.07233
 Alpha virt. eigenvalues --    0.07451   0.09484   0.10107   0.10623   0.11588

 Mulliken charges:
               1
     1  O   -0.470649
     2  C    0.427552
     3  N   -0.253616
     4  C    0.029299
     5  C    0.515736
     6  O   -0.339582
     7  O   -0.373260
     8  C    0.048643
     9  C    0.066093
    10  C    0.083899
    11  N   -0.359105
    12  C    0.230163
    13  N   -0.239361
    14  C   -0.008204
    15  C    0.161323
    16  N   -0.333592
    17  H    0.103533
    18  H    0.041900
    19  H    0.224746
    20  H    0.029995
    21  H    0.013212
    22  H    0.000349
    23  H    0.016295
    24  H    0.131947
    25  H   -0.008378
    26  H    0.011041
    27  H    0.033894
    28  H    0.023316
    29  H    0.094865
    30  H    0.097941
 Sum of Mulliken charges =   0.00000

 Dipole moment (field-independent basis, Debye):
    X=              1.0984    Y=              3.2915    Z=             -3.6079  Tot=              5.0057
 Quadrupole moment (field-independent basis, Debye-Ang):
   XX=            -87.5090   YY=            -95.1074   ZZ=           -103.0149
   XY=             -5.2437   XZ=             10.5451   YZ=              3.2572

  Exact polarizability: 137.078 -10.312 134.035   7.716 -20.389 134.831
 Approx polarizability: 185.996 -14.308 219.739   1.910  -6.310 203.325

                      1                      2                      3
                      A                      A                      A
 Frequencies --     18.7026                22.7046                52.8966
 Red. masses --      5.7900                 3.2807                 6.3534
 Frc consts  --      0.0012                 0.0010                 0.0105
 IR Inten    --      1.9774                 1.1636                 2.7044

                      4                      5                      6
                      A                      A                      A
 Frequencies --     58.8731                71.4570                86.9795
 Red. masses --      5.9217                 5.0044                 1.8785
 Frc consts  --      0.0121                 0.0151                 0.0084
 IR Inten    --      0.4742                 4.3037                 1.8348

                      7                      8                      9
                      A                      A                      A
 Frequencies --    101.4673               142.1937               167.3107
 Red. masses --      6.0865                 5.3155                 6.4967
 Frc consts  --      0.0369                 0.0633                 0.1071
 IR Inten    --      0.6407                10.1788                 7.5136

                     10                     11                     12
                      A                      A                      A
 Frequencies --    180.5978               202.3202               271.5311
 Red. masses --      4.6554                 4.9429                 4.8685
 Frc consts  --      0.0895                 0.1192                 0.2115
 IR Inten    --     13.4049                11.5081                 1.3553

                     13                     14                     15
                      A                      A                      A
 Frequencies --    293.6819               303.9628               321.2958
 Red. masses --      1.3176                 2.2898                 5.5012
 Frc consts  --      0.0670                 0.1247                 0.3346
 IR Inten    --     27.6618                 7.9523                 2.8469

                     16                     17                     18
                      A                      A                      A
 Frequencies --    344.0823               394.3731               456.2299
 Red. masses --      3.5930                 3.7141                 3.5989
 Frc consts  --      0.2506                 0.3403                 0.4413
 IR Inten    --      5.0509                 1.9122                 8.6201

                     19                     20                     21
                      A                      A                      A
 Frequencies --    516.4589               527.5348               602.5909
 Red. masses --      1.2663                 3.1864                 1.3267
 Frc consts  --      0.1990                 0.5225                 0.2838
 IR Inten    --     50.9869                42.0432                83.2685

                     22                     23                     24
                      A                      A                      A
 Frequencies --    632.8454               635.4140               661.2554
 Red. masses --      3.6758                 3.4020                 3.5967
 Frc consts  --      0.8674                 0.8093                 0.9266
 IR Inten    --     13.2632                43.6147                39.8923

                     25                     26                     27
                      A                      A                      A
 Frequencies --    681.0991               707.1407               720.1929
 Red. masses --      3.3091                 2.9993                 1.3175
 Frc consts  --      0.9044                 0.8836                 0.4026
 IR Inten    --     40.0892                25.4399                96.9519

                     28                     29                     30
                      A                      A                      A
 Frequencies --    761.7526               774.9869               789.1553
 Red. masses --      6.0356                 1.1645                 4.2791
 Frc consts  --      2.0635                 0.4121                 1.5701
 IR Inten    --      1.1203                 1.8262                12.9165

                     31                     32                     33
                      A                      A                      A
 Frequencies --    826.0858               831.9766               845.7254
 Red. masses --      1.4235                 1.4810                 1.3776
 Frc consts  --      0.5723                 0.6040                 0.5805
 IR Inten    --     15.7663               209.4175                24.0630

                     34                     35                     36
                      A                      A                      A
 Frequencies --    898.0207               935.1339               948.2961
 Red. masses --      2.0766                 4.6490                 5.5162
 Frc consts  --      0.9867                 2.3953                 2.9226
 IR Inten    --      2.9290                 1.6240                20.2511

                     37                     38                     39
                      A                      A                      A
 Frequencies --    980.9858               993.4429              1006.1224
 Red. masses --      1.4280                 3.1335                 4.9424
 Frc consts  --      0.8097                 1.8221                 2.9477
 IR Inten    --      7.9864                24.5925                58.4538

                     40                     41                     42
                      A                      A                      A
 Frequencies --   1024.0569              1046.4010              1101.7074
 Red. masses --      3.6579                 3.1437                 1.9741
 Frc consts  --      2.2601                 2.0281                 1.4117
 IR Inten    --     15.4143                 6.4970                 8.3533

                     43                     44                     45
                      A                      A                      A
 Frequencies --   1110.8490              1139.0098              1149.0950
 Red. masses --      2.6091                 2.0165                 1.9885
 Frc consts  --      1.8969                 1.5413                 1.5470
 IR Inten    --     30.1143                22.1625                75.2642

                     46                     47                     48
                      A                      A                      A
 Frequencies --   1150.1774              1180.6737              1228.4574
 Red. masses --      1.9525                 2.0824                 1.5501
 Frc consts  --      1.5218                 1.7103                 1.3783
 IR Inten    --     82.1235                82.9120                10.7473

                     49                     50                     51
                      A                      A                      A
 Frequencies --   1254.1774              1262.0129              1280.2051
 Red. masses --      1.5417                 2.0574                 1.4497
 Frc consts  --      1.4288                 1.9306                 1.3998
 IR Inten    --     10.8662                 6.6965                 9.9204

                     52                     53                     54
                      A                      A                      A
 Frequencies --   1285.6624              1295.6140              1327.5725
 Red. masses --      1.3733                 1.3219                 1.4118
 Frc consts  --      1.3375                 1.3074                 1.4661
 IR Inten    --     12.6471                 8.4566                12.5362

                     55                     56                     57
                      A                      A                      A
 Frequencies --   1352.8567              1368.7038              1383.5477
 Red. masses --      1.8612                 1.3969                 1.2290
 Frc consts  --      2.0070                 1.5418                 1.3860
 IR Inten    --      0.1372                 9.5067                17.5016

                     58                     59                     60
                      A                      A                      A
 Frequencies --   1393.3797              1395.1624              1406.8918
 Red. masses --      2.7185                 1.1927                 2.6274
 Frc consts  --      3.1097                 1.3679                 3.0641
 IR Inten    --      2.7854                15.4279               180.0104

                     61                     62                     63
                      A                      A                      A
 Frequencies --   1453.4092              1483.8995              1484.8576
 Red. masses --      2.1754                 1.1754                 1.1816
 Frc consts  --      2.7075                 1.5250                 1.5349
 IR Inten    --     29.2094                 8.1946                16.8352

                     64                     65                     66
                      A                      A                      A
 Frequencies --   1501.1980              1506.1058              1545.0268
 Red. masses --      2.7643                 1.0922                 2.1393
 Frc consts  --      3.6703                 1.4597                 3.0088
 IR Inten    --     12.5327                 6.1317               237.9941

                     67                     68                     69
                      A                      A                      A
 Frequencies --   1610.8392              1665.4018              1712.6091
 Red. masses --      3.7265                 1.0914                 8.0141
 Frc consts  --      5.6971                 1.7835                13.8491
 IR Inten    --      9.4379                25.6205               187.0367

                     70                     71                     72
                      A                      A                      A
 Frequencies --   1822.8723              3031.0873              3036.2553
 Red. masses --      9.9324                 1.0609                 1.0589
 Frc consts  --     19.4455                 5.7426                 5.7514
 IR Inten    --    252.9042                21.8858                 6.5541

                     73                     74                     75
                      A                      A                      A
 Frequencies --   3045.7127              3065.4001              3078.5920
 Red. masses --      1.0650                 1.0991                 1.0985
 Frc consts  --      5.8206                 6.0848                 6.1343
 IR Inten    --     30.7281                 8.4288                 2.3570

                     76                     77                     78
                      A                      A                      A
 Frequencies --   3093.0882              3100.4807              3228.8660
 Red. masses --      1.0854                 1.1062                 1.0960
 Frc consts  --      6.1181                 6.2655                 6.7321
 IR Inten    --      7.9572                25.7324                 8.3339

                     79                     80                     81
                      A                      A                      A
 Frequencies --   3243.4678              3493.4186              3508.3245
 Red. masses --      1.0977                 1.0484                 1.0839
 Frc consts  --      6.8037                 7.5384                 7.8605
 IR Inten    --      0.8880                 0.5164               245.5221

                     82                     83                     84
                      A                      A                      A
 Frequencies --   3569.9742              3624.2602              3747.6608
 Red. masses --      1.0934                 1.0772                 1.0641
 Frc consts  --      8.2103                 8.3366                 8.8051
 IR Inten    --      0.3782                52.8822                82.4045

 - Thermochemistry -
 -------------------
 Temperature   298.150 Kelvin.  Pressure   1.00000 Atm.
 Atom     1 has atomic number  8 and mass  15.99491

 Molecular mass:   226.10659 amu.
 Principal axes and moments of inertia in atomic units:
                           1         2         3
     Eigenvalues --  3126.860934407.457966559.05366
           X            0.54325   0.83786  -0.05345
           Y           -0.51579   0.38331   0.76618
           Z            0.66245  -0.38866   0.64040
 This molecule is an asymmetric top.
 Rotational symmetry number  1.
 Warning -- assumption of classical behavior for rotation
           may cause significant error
 Rotational temperatures (Kelvin)      0.02770     0.01965     0.01321
 Rotational constants (GHZ):           0.57717     0.40947     0.27515
 Zero-point vibrational energy     643327.1 (Joules/Mol)
                                  153.75887 (Kcal/Mol)
 Warning -- explicit consideration of  21 degrees of freedom as
           vibrations may cause significant error
 Vibrational temperatures:     26.91    32.67    76.11    84.71   102.81
          (Kelvin)            125.14   145.99   204.58   240.72   259.84
                              291.09   390.67   422.54   437.33   462.27
                              495.06   567.41   656.41   743.07   759.00
                              866.99   910.52   914.22   951.40   979.95
                             1017.42  1036.20  1095.99  1115.03  1135.42
                             1188.55  1197.03  1216.81  1292.05  1345.45
                             1364.38  1411.42  1429.34  1447.58  1473.39
                             1505.54  1585.11  1598.26  1638.78  1653.29
                             1654.85  1698.72  1767.47  1804.48  1815.75
                             1841.93  1849.78  1864.10  1910.08  1946.46
                             1969.26  1990.61  2004.76  2007.33  2024.20
                             2091.13  2135.00  2136.38  2159.89  2166.95
                             2222.95  2317.64  2396.14  2464.06  2622.70
                             4361.05  4368.49  4382.10  4410.42  4429.40
                             4450.26  4460.89  4645.61  4666.62  5026.24
                             5047.69  5136.39  5214.50  5392.04

 Zero-point correction=                           0.245030 (Hartree/Particle)
 Thermal correction to Energy=                    0.261058
 Thermal correction to Enthalpy=                  0.262002
 Thermal correction to Gibbs Free Energy=         0.198566
 Sum of electronic and zero-point Energies=           -796.176802
 Sum of electronic and thermal Energies=              -796.160775
 Sum of electronic and thermal Enthalpies=            -796.159831
 Sum of electronic and thermal Free Energies=         -796.223266

                     E (Thermal)             CV                S
                      KCal/Mol        Cal/Mol-Kelvin    Cal/Mol-Kelvin
 Total                  163.816             58.103            133.511
 Electronic               0.000              0.000              0.000
 Translational            0.889              2.981             42.150
 Rotational               0.889              2.981             32.869
 Vibrational            162.039             52.142             58.492
 Vibration     1          0.593              1.986              6.767
 Vibration     2          0.593              1.985              6.382
 Vibration     3          0.596              1.976              4.706
 Vibration     4          0.596              1.974              4.495
 Vibration     5          0.598              1.968              4.113
 Vibration     6          0.601              1.958              3.727
 Vibration     7          0.604              1.948              3.426
 Vibration     8          0.616              1.911              2.774
 Vibration     9          0.624              1.883              2.465
 Vibration    10          0.630              1.866              2.322
 Vibration    11          0.639              1.837              2.112
 Vibration    12          0.675              1.726              1.586
 Vibration    13          0.688              1.686              1.453
 Vibration    14          0.695              1.666              1.395
 Vibration    15          0.707              1.633              1.304
 Vibration    16          0.723              1.587              1.193
 Vibration    17          0.761              1.482              0.984
 Vibration    18          0.814              1.347              0.777
 Vibration    19          0.871              1.214              0.618
 Vibration    20          0.882              1.189              0.593
 Vibration    21          0.961              1.026              0.445

 Optimization completed.
    -- Stationary point found.
 Normal termination of Gaussian 09 at Sat Jul 24 10:24:31 2021.
