 Gaussian 09, Revision D.01,
 Gaussian 09:  ES64L-G09RevD.01 24-Apr-2013

 ----------------------------------------------------------------------
 # B3LYP/6-311G(2df,2pd) EmpiricalDispersion=GD3BJ opt=calcfc freq=nora
 man nosymm integral(ultrafinegrid)
 ----------------------------------------------------------------------

 ------------------------------------------------------------
 Candidate Structure: Conf:295 OPT and FREQ calc in gas phase
 ------------------------------------------------------------
 Symbolic Z-matrix:
 Charge =  0 Multiplicity = 1

 SCF Done:  E(RB3LYP) =  -796.413406010     A.U. after   13 cycles
 SCF Done:  E(RB3LYP) =  -796.416086016     A.U. after   12 cycles
 SCF Done:  E(RB3LYP) =  -796.415742286     A.U. after   14 cycles
 SCF Done:  E(RB3LYP) =  -796.416295105     A.U. after   10 cycles
 SCF Done:  E(RB3LYP) =  -796.416788851     A.U. after   11 cycles
 SCF Done:  E(RB3LYP) =  -796.417099463     A.U. after   11 cycles
 SCF Done:  E(RB3LYP) =  -796.417233095     A.U. after   12 cycles
 SCF Done:  E(RB3LYP) =  -796.417288441     A.U. after   11 cycles
 SCF Done:  E(RB3LYP) =  -796.417306548     A.U. after   10 cycles
 SCF Done:  E(RB3LYP) =  -796.417309535     A.U. after    9 cycles
 SCF Done:  E(RB3LYP) =  -796.417310719     A.U. after    9 cycles
 SCF Done:  E(RB3LYP) =  -796.417311273     A.U. after    9 cycles
 SCF Done:  E(RB3LYP) =  -796.417311361     A.U. after    7 cycles
 Optimization completed.
    -- Stationary point found.
 Normal termination of Gaussian 09 at Sat Jul 24 07:17:49 2021.

 ----------------------------------------------------------------------
 #N Geom=AllCheck Guess=TCheck SCRF=Check GenChk RB3LYP/6-311G(2df,2pd)
  Freq
 ----------------------------------------------------------------------

 Structure from the checkpoint file:  "conf-295.chk"
 ------------------------------------------------------------
 Candidate Structure: Conf:295 OPT and FREQ calc in gas phase
 ------------------------------------------------------------
 Charge =  0 Multiplicity = 1

                          Input orientation:
 ---------------------------------------------------------------------
 Center     Atomic      Atomic             Coordinates (Angstroms)
 Number     Number       Type             X           Y           Z
 ---------------------------------------------------------------------
      1          8           0        1.305796    0.949076   -0.674162
      2          6           0        1.735834    0.075829    0.064321
      3          7           0        0.923482   -0.586897    0.927997
      4          6           0       -0.466956   -0.225744    1.074190
      5          6           0       -0.936629   -0.810785    2.388413
      6          8           0       -2.220772   -0.502468    2.676486
      7          8           0       -0.268979   -1.496675    3.116251
      8          6           0       -1.327258   -0.708080   -0.135693
      9          6           0       -2.476095    0.165064   -0.493688
     10          6           0       -2.661435    0.997454   -1.566673
     11          7           0       -3.889003    1.613326   -1.505706
     12          6           0       -4.446041    1.167661   -0.406112
     13          7           0       -3.638282    0.281774    0.240822
     14          6           0        3.192490   -0.357085    0.086947
     15          6           0        4.016769    0.332538   -0.991263
     16          7           0        3.564836   -0.091177   -2.316682
     17          1           0        1.298708   -1.237610    1.599405
     18          1           0       -0.558372    0.861957    1.120970
     19          1           0       -2.418953   -0.923282    3.525894
     20          1           0       -0.655048   -0.712908   -0.988837
     21          1           0       -1.640240   -1.741957    0.031985
     22          1           0       -1.971513    1.181579   -2.372627
     23          1           0       -5.417748    1.443068   -0.031309
     24          1           0       -3.789906   -0.134468    1.142242
     25          1           0        3.599773   -0.141630    1.078907
     26          1           0        3.236809   -1.438769   -0.056968
     27          1           0        5.059157    0.034210   -0.870522
     28          1           0        3.965149    1.416590   -0.833515
     29          1           0        2.674109    0.353886   -2.505244
     30          1           0        4.210336    0.235523   -3.024587
 ---------------------------------------------------------------------

 SCF Done:  E(RB3LYP) =  -796.417311361     A.U. after    1 cycles

 Alpha  occ. eigenvalues --  -19.20557 -19.14600 -19.09253 -14.35833 -14.34409
 Alpha  occ. eigenvalues --  -14.27987 -14.27640 -10.33626 -10.27573 -10.24563
 Alpha  occ. eigenvalues --  -10.21421 -10.19757 -10.19722 -10.19058 -10.17930
 Alpha  occ. eigenvalues --  -10.17070  -1.14923  -1.05979  -1.04849  -1.01026
 Alpha  occ. eigenvalues --   -0.94257  -0.87682  -0.86611  -0.81448  -0.76527
 Alpha  occ. eigenvalues --   -0.74242  -0.68916  -0.65687  -0.61391  -0.60898
 Alpha  occ. eigenvalues --   -0.59997  -0.58579  -0.54725  -0.52916  -0.52466
 Alpha  occ. eigenvalues --   -0.50277  -0.50136  -0.48589  -0.48291  -0.46415
 Alpha  occ. eigenvalues --   -0.45973  -0.44517  -0.43346  -0.42472  -0.41807
 Alpha  occ. eigenvalues --   -0.40503  -0.40262  -0.39596  -0.39403  -0.37615
 Alpha  occ. eigenvalues --   -0.36466  -0.36284  -0.35895  -0.31909  -0.28018
 Alpha  occ. eigenvalues --   -0.27535  -0.26638  -0.26308  -0.23652  -0.22423
 Alpha virt. eigenvalues --   -0.02901   0.00384   0.01096   0.02168   0.03547
 Alpha virt. eigenvalues --    0.05413   0.05842   0.06073   0.07116   0.07618
 Alpha virt. eigenvalues --    0.08158   0.08501   0.09869   0.10428   0.11495

 Mulliken charges:
               1
     1  O   -0.437554
     2  C    0.492207
     3  N   -0.340269
     4  C    0.131679
     5  C    0.543519
     6  O   -0.369513
     7  O   -0.368074
     8  C   -0.013226
     9  C    0.087066
    10  C    0.123839
    11  N   -0.353640
    12  C    0.229175
    13  N   -0.228171
    14  C   -0.066570
    15  C    0.170435
    16  N   -0.328475
    17  H    0.103460
    18  H    0.025214
    19  H    0.232959
    20  H    0.029055
    21  H    0.011566
    22  H    0.009744
    23  H    0.012892
    24  H    0.096435
    25  H    0.010552
    26  H    0.012003
    27  H   -0.006289
    28  H   -0.008890
    29  H    0.116796
    30  H    0.082076
 Sum of Mulliken charges =   0.00000

 Dipole moment (field-independent basis, Debye):
    X=              0.3061    Y=             -2.4356    Z=              4.6340  Tot=              5.2440
 Quadrupole moment (field-independent basis, Debye-Ang):
   XX=            -85.7678   YY=           -101.3181   ZZ=            -91.9711
   XY=             10.7708   XZ=            -17.5460   YZ=              2.5073

  Exact polarizability: 167.412 -14.553 107.179  -8.586 -21.749 134.675
 Approx polarizability: 215.054 -23.271 180.906  -6.324 -38.291 205.643

                      1                      2                      3
                      A                      A                      A
 Frequencies --     12.0375                19.1815                32.0883
 Red. masses --      3.6064                 4.5297                 7.3362
 Frc consts  --      0.0003                 0.0010                 0.0045
 IR Inten    --      2.4010                 1.1449                 1.4927

                      4                      5                      6
                      A                      A                      A
 Frequencies --     46.2152                64.0903                75.2821
 Red. masses --      4.6566                 6.3145                 5.8879
 Frc consts  --      0.0059                 0.0153                 0.0197
 IR Inten    --      1.2139                 1.4736                 3.0789

                      7                      8                      9
                      A                      A                      A
 Frequencies --    125.7015               130.9543               156.4280
 Red. masses --      5.5979                 4.8119                 3.6967
 Frc consts  --      0.0521                 0.0486                 0.0533
 IR Inten    --      3.0097                 5.4972                 3.8340

                     10                     11                     12
                      A                      A                      A
 Frequencies --    194.5984               246.9368               278.7360
 Red. masses --      4.6930                 2.6460                 5.3761
 Frc consts  --      0.1047                 0.0951                 0.2461
 IR Inten    --      0.7687                31.3369                 0.9939

                     13                     14                     15
                      A                      A                      A
 Frequencies --    309.7358               318.1134               330.6198
 Red. masses --      1.9223                 1.4594                 4.0017
 Frc consts  --      0.1087                 0.0870                 0.2577
 IR Inten    --     15.9900                27.2397                 1.7065

                     16                     17                     18
                      A                      A                      A
 Frequencies --    345.6458               380.6054               429.6722
 Red. masses --      4.4578                 4.2259                 2.6194
 Frc consts  --      0.3138                 0.3607                 0.2849
 IR Inten    --      9.2413                 5.0388                34.1608

                     19                     20                     21
                      A                      A                      A
 Frequencies --    491.6345               551.9092               566.2002
 Red. masses --      1.3141                 1.4784                 2.6417
 Frc consts  --      0.1871                 0.2653                 0.4990
 IR Inten    --     60.8060                53.2143                27.5168

                     22                     23                     24
                      A                      A                      A
 Frequencies --    595.9629               616.6046               634.7587
 Red. masses --      1.7832                 2.1253                 3.2052
 Frc consts  --      0.3732                 0.4761                 0.7609
 IR Inten    --     37.5070                 4.0657                38.2444

                     25                     26                     27
                      A                      A                      A
 Frequencies --    670.1298               680.6569               687.4556
 Red. masses --      2.2474                 3.2782                 2.7459
 Frc consts  --      0.5946                 0.8948                 0.7646
 IR Inten    --     61.5768                11.5915                 4.5373

                     28                     29                     30
                      A                      A                      A
 Frequencies --    741.9768               776.0476               816.2021
 Red. masses --      3.2233                 3.9956                 2.6499
 Frc consts  --      1.0455                 1.4178                 1.0401
 IR Inten    --     18.7547                 4.0780                10.6541

                     31                     32                     33
                      A                      A                      A
 Frequencies --    818.8016               863.1007               872.5542
 Red. masses --      1.4392                 1.4649                 1.8151
 Frc consts  --      0.5685                 0.6429                 0.8142
 IR Inten    --     17.4356                16.6007                68.5215

                     34                     35                     36
                      A                      A                      A
 Frequencies --    890.7478               913.2852               944.6439
 Red. masses --      1.9371                 1.8317                 5.4762
 Frc consts  --      0.9056                 0.9001                 2.8791
 IR Inten    --     10.2082                44.0161                16.3264

                     37                     38                     39
                      A                      A                      A
 Frequencies --    959.7154              1009.6593              1015.9326
 Red. masses --      2.2459                 5.0358                 3.0825
 Frc consts  --      1.2188                 3.0246                 1.8745
 IR Inten    --     11.2144                 3.4980                15.4865

                     40                     41                     42
                      A                      A                      A
 Frequencies --   1034.3571              1065.0623              1104.6991
 Red. masses --      3.4656                 2.5629                 3.1209
 Frc consts  --      2.1846                 1.7129                 2.2440
 IR Inten    --     10.6362                15.3772                36.0614

                     43                     44                     45
                      A                      A                      A
 Frequencies --   1116.0667              1125.8496              1143.9026
 Red. masses --      1.5745                 1.7363                 2.2328
 Frc consts  --      1.1555                 1.2967                 1.7214
 IR Inten    --     28.5170                21.0100                15.1929

                     46                     47                     48
                      A                      A                      A
 Frequencies --   1166.6281              1187.9431              1193.0447
 Red. masses --      1.7113                 1.5774                 1.9166
 Frc consts  --      1.3723                 1.3115                 1.6073
 IR Inten    --    148.5869                77.8532                 1.9878

                     49                     50                     51
                      A                      A                      A
 Frequencies --   1235.8857              1242.1340              1262.2012
 Red. masses --      1.2193                 1.6340                 2.2374
 Frc consts  --      1.0972                 1.4854                 2.1001
 IR Inten    --      2.5595                25.8135                16.5298

                     52                     53                     54
                      A                      A                      A
 Frequencies --   1279.8660              1307.7232              1327.3851
 Red. masses --      1.4621                 1.4259                 1.2320
 Frc consts  --      1.4111                 1.4368                 1.2790
 IR Inten    --      7.3452                10.1577                 2.8101

                     55                     56                     57
                      A                      A                      A
 Frequencies --   1355.0564              1358.1594              1377.5147
 Red. masses --      1.2279                 1.5592                 1.5373
 Frc consts  --      1.3284                 1.6946                 1.7187
 IR Inten    --      4.0195                38.9903                11.6760

                     58                     59                     60
                      A                      A                      A
 Frequencies --   1393.2735              1416.9752              1428.6454
 Red. masses --      2.9544                 2.3302                 1.3857
 Frc consts  --      3.3790                 2.7566                 1.6664
 IR Inten    --     27.4384                71.9464                 8.0266

                     61                     62                     63
                      A                      A                      A
 Frequencies --   1429.2927              1451.5303              1473.7296
 Red. masses --      2.6550                 1.1179                 1.1607
 Frc consts  --      3.1956                 1.3877                 1.4853
 IR Inten    --     25.7501                21.3264                21.5993

                     64                     65                     66
                      A                      A                      A
 Frequencies --   1500.8660              1502.8090              1530.0539
 Red. masses --      3.1568                 1.0873                 2.2241
 Frc consts  --      4.1897                 1.4469                 3.0677
 IR Inten    --     18.6988                 2.6003               329.1317

                     67                     68                     69
                      A                      A                      A
 Frequencies --   1609.1137              1654.8519              1738.4278
 Red. masses --      4.3793                 1.1294                 7.0051
 Frc consts  --      6.6808                 1.8222                12.4732
 IR Inten    --      6.1032                71.7639               148.8260

                     70                     71                     72
                      A                      A                      A
 Frequencies --   1820.3572              2979.3688              3026.4181
 Red. masses --      9.5342                 1.0710                 1.0717
 Frc consts  --     18.6144                 5.6015                 5.7834
 IR Inten    --    277.2582                57.1016                26.1309

                     73                     74                     75
                      A                      A                      A
 Frequencies --   3026.8562              3047.4936              3061.0516
 Red. masses --      1.0617                 1.0819                 1.0904
 Frc consts  --      5.7308                 5.9203                 6.0197
 IR Inten    --     13.4979                14.4776                39.8244

                     76                     77                     78
                      A                      A                      A
 Frequencies --   3070.6499              3128.2169              3238.1630
 Red. masses --      1.1000                 1.0914                 1.0944
 Frc consts  --      6.1108                 6.2926                 6.7613
 IR Inten    --     16.5622                 1.2407                 6.7936

                     79                     80                     81
                      A                      A                      A
 Frequencies --   3242.5182              3497.5333              3571.3096
 Red. masses --      1.0997                 1.0495                 1.0923
 Frc consts  --      6.8120                 7.5638                 8.2084
 IR Inten    --      0.5730                 7.2835                 5.2597

                     82                     83                     84
                      A                      A                      A
 Frequencies --   3610.2786              3665.4803              3745.0230
 Red. masses --      1.0775                 1.0805                 1.0640
 Frc consts  --      8.2748                 8.5536                 8.7923
 IR Inten    --     71.0270                86.6625                84.4683

 - Thermochemistry -
 -------------------
 Temperature   298.150 Kelvin.  Pressure   1.00000 Atm.
 Atom     1 has atomic number  8 and mass  15.99491

 Molecular mass:   226.10659 amu.
 Principal axes and moments of inertia in atomic units:
                           1         2         3
     Eigenvalues --  2447.590875934.642208072.79934
           X            0.98839   0.08549   0.12562
           Y           -0.07905  -0.41679   0.90556
           Z           -0.12977   0.90497   0.40520
 This molecule is an asymmetric top.
 Rotational symmetry number  1.
 Warning -- assumption of classical behavior for rotation
           may cause significant error
 Rotational temperatures (Kelvin)      0.03539     0.01459     0.01073
 Rotational constants (GHZ):           0.73735     0.30410     0.22356
 Zero-point vibrational energy     642145.8 (Joules/Mol)
                                  153.47652 (Kcal/Mol)
 Warning -- explicit consideration of  23 degrees of freedom as
           vibrations may cause significant error
 Vibrational temperatures:     17.32    27.60    46.17    66.49    92.21
          (Kelvin)            108.31   180.86   188.41   225.06   279.98
                              355.29   401.04   445.64   457.69   475.69
                              497.31   547.61   618.20   707.35   794.07
                              814.63   857.46   887.16   913.28   964.17
                              979.31   989.09  1067.54  1116.56  1174.33
                             1178.07  1241.81  1255.41  1281.59  1314.01
                             1359.13  1380.81  1452.67  1461.70  1488.21
                             1532.39  1589.41  1605.77  1619.84  1645.82
                             1678.52  1709.18  1716.52  1778.16  1787.15
                             1816.02  1841.44  1881.52  1909.81  1949.62
                             1954.09  1981.93  2004.61  2038.71  2055.50
                             2056.43  2088.43  2120.37  2159.41  2162.20
                             2201.40  2315.15  2380.96  2501.21  2619.08
                             4286.64  4354.34  4354.97  4384.66  4404.16
                             4417.97  4500.80  4658.99  4665.25  5032.16
                             5138.31  5194.38  5273.80  5388.25

 Zero-point correction=                           0.244580 (Hartree/Particle)
 Thermal correction to Energy=                    0.260708
 Thermal correction to Enthalpy=                  0.261652
 Thermal correction to Gibbs Free Energy=         0.196816
 Sum of electronic and zero-point Energies=           -796.172731
 Sum of electronic and thermal Energies=              -796.156603
 Sum of electronic and thermal Enthalpies=            -796.155659
 Sum of electronic and thermal Free Energies=         -796.220496

                     E (Thermal)             CV                S
                      KCal/Mol        Cal/Mol-Kelvin    Cal/Mol-Kelvin
 Total                  163.597             58.405            136.461
 Electronic               0.000              0.000              0.000
 Translational            0.889              2.981             42.150
 Rotational               0.889              2.981             33.128
 Vibrational            161.819             52.444             61.183
 Vibration     1          0.593              1.987              7.643
 Vibration     2          0.593              1.986              6.717
 Vibration     3          0.594              1.983              5.696
 Vibration     4          0.595              1.979              4.973
 Vibration     5          0.597              1.971              4.327
 Vibration     6          0.599              1.965              4.010
 Vibration     7          0.611              1.927              3.011
 Vibration     8          0.612              1.922              2.932
 Vibration     9          0.620              1.895              2.593
 Vibration    10          0.635              1.847              2.184
 Vibration    11          0.661              1.768              1.752
 Vibration    12          0.679              1.713              1.541
 Vibration    13          0.699              1.655              1.364
 Vibration    14          0.705              1.639              1.320
 Vibration    15          0.713              1.614              1.257
 Vibration    16          0.724              1.584              1.186
 Vibration    17          0.750              1.512              1.037
 Vibration    18          0.791              1.406              0.860
 Vibration    19          0.847              1.269              0.679
 Vibration    20          0.907              1.136              0.540
 Vibration    21          0.922              1.104              0.512
 Vibration    22          0.954              1.040              0.457
 Vibration    23          0.976              0.997              0.422

 Normal termination of Gaussian 09 at Sat Jul 24 10:47:44 2021.
