 Gaussian 09, Revision D.01,
 Gaussian 09:  ES64L-G09RevD.01 24-Apr-2013

 ----------------------------------------------------------------------
 # B3LYP/6-311G(2df,2pd) EmpiricalDispersion=GD3BJ opt=calcfc freq=nora
 man nosymm integral(ultrafinegrid)
 ----------------------------------------------------------------------

 ------------------------------------------------------------
 Candidate Structure: Conf:273 OPT and FREQ calc in gas phase
 ------------------------------------------------------------
 Symbolic Z-matrix:
 Charge =  0 Multiplicity = 1

 SCF Done:  E(RB3LYP) =  -796.414269021     A.U. after   13 cycles
 SCF Done:  E(RB3LYP) =  -796.416998541     A.U. after   14 cycles
 SCF Done:  E(RB3LYP) =  -796.415897614     A.U. after   12 cycles
 SCF Done:  E(RB3LYP) =  -796.417003166     A.U. after    8 cycles
 SCF Done:  E(RB3LYP) =  -796.417187041     A.U. after   11 cycles
 SCF Done:  E(RB3LYP) =  -796.417113261     A.U. after   12 cycles
 SCF Done:  E(RB3LYP) =  -796.417188824     A.U. after    8 cycles
 SCF Done:  E(RB3LYP) =  -796.417212898     A.U. after   10 cycles
 SCF Done:  E(RB3LYP) =  -796.417217674     A.U. after    9 cycles
 SCF Done:  E(RB3LYP) =  -796.417217771     A.U. after    7 cycles
 SCF Done:  E(RB3LYP) =  -796.417217863     A.U. after    7 cycles
 Optimization completed.
    -- Stationary point found.
 Normal termination of Gaussian 09 at Sat Jul 24 06:45:12 2021.

 ----------------------------------------------------------------------
 #N Geom=AllCheck Guess=TCheck SCRF=Check GenChk RB3LYP/6-311G(2df,2pd)
  Freq
 ----------------------------------------------------------------------

 Structure from the checkpoint file:  "conf-273.chk"
 ------------------------------------------------------------
 Candidate Structure: Conf:273 OPT and FREQ calc in gas phase
 ------------------------------------------------------------
 Charge =  0 Multiplicity = 1

                          Input orientation:
 ---------------------------------------------------------------------
 Center     Atomic      Atomic             Coordinates (Angstroms)
 Number     Number       Type             X           Y           Z
 ---------------------------------------------------------------------
      1          8           0        0.676286   -1.687629    1.593902
      2          6           0        0.888365   -0.663892    0.940951
      3          7           0        0.312498   -0.465648   -0.263575
      4          6           0       -0.799608   -1.282216   -0.755151
      5          6           0       -0.312213   -2.650635   -1.282062
      6          8           0        0.333627   -3.396676   -0.393275
      7          8           0       -0.522500   -3.017110   -2.406847
      8          6           0       -1.559735   -0.537530   -1.842700
      9          6           0       -2.136728    0.759094   -1.381853
     10          6           0       -2.248212    1.364775   -0.155979
     11          7           0       -2.898647    2.574122   -0.261234
     12          6           0       -3.181851    2.709054   -1.531094
     13          7           0       -2.739540    1.640274   -2.256034
     14          6           0        1.786323    0.436771    1.451911
     15          6           0        2.950622   -0.100737    2.277359
     16          7           0        3.689118    1.011960    2.870597
     17          1           0        0.453495    0.422352   -0.715791
     18          1           0       -1.460194   -1.484147    0.093601
     19          1           0        0.419529   -2.912613    0.466388
     20          1           0       -2.339690   -1.205655   -2.209621
     21          1           0       -0.889542   -0.387534   -2.693986
     22          1           0       -1.901722    0.999365    0.795177
     23          1           0       -3.693438    3.541892   -1.983601
     24          1           0       -2.848300    1.503402   -3.246095
     25          1           0        2.148654    1.046058    0.620572
     26          1           0        1.185166    1.095786    2.083711
     27          1           0        2.544863   -0.716914    3.077477
     28          1           0        3.559864   -0.764216    1.649058
     29          1           0        4.356050    0.667793    3.549563
     30          1           0        4.227426    1.500754    2.164668
 ---------------------------------------------------------------------

 SCF Done:  E(RB3LYP) =  -796.417217863     A.U. after    1 cycles

 Alpha  occ. eigenvalues --  -19.14658 -19.11867 -19.10147 -14.37792 -14.36826
 Alpha  occ. eigenvalues --  -14.29815 -14.29710 -10.29880 -10.29768 -10.24586
 Alpha  occ. eigenvalues --  -10.23112 -10.21785 -10.20611 -10.20457 -10.19487
 Alpha  occ. eigenvalues --  -10.19005  -1.09993  -1.07039  -1.02823  -1.01658
 Alpha  occ. eigenvalues --   -0.96046  -0.89585  -0.88387  -0.82490  -0.77982
 Alpha  occ. eigenvalues --   -0.74817  -0.68618  -0.64954  -0.62795  -0.61668
 Alpha  occ. eigenvalues --   -0.60625  -0.59901  -0.56596  -0.53770  -0.53345
 Alpha  occ. eigenvalues --   -0.52009  -0.50474  -0.47709  -0.46717  -0.46331
 Alpha  occ. eigenvalues --   -0.45083  -0.44701  -0.43915  -0.43225  -0.43062
 Alpha  occ. eigenvalues --   -0.42190  -0.41975  -0.40375  -0.39602  -0.37804
 Alpha  occ. eigenvalues --   -0.37499  -0.36393  -0.31622  -0.31080  -0.29691
 Alpha  occ. eigenvalues --   -0.29199  -0.28057  -0.26807  -0.25415  -0.24139
 Alpha virt. eigenvalues --   -0.01551   0.00305   0.00652   0.01685   0.02255
 Alpha virt. eigenvalues --    0.03021   0.04260   0.05015   0.05739   0.07500
 Alpha virt. eigenvalues --    0.07640   0.07869   0.09824   0.10546   0.11679

 Mulliken charges:
               1
     1  O   -0.469224
     2  C    0.470704
     3  N   -0.281803
     4  C   -0.052928
     5  C    0.545631
     6  O   -0.308467
     7  O   -0.363194
     8  C    0.010955
     9  C    0.099263
    10  C    0.081898
    11  N   -0.354543
    12  C    0.229640
    13  N   -0.236417
    14  C   -0.038884
    15  C    0.200996
    16  N   -0.325281
    17  H    0.113466
    18  H    0.037654
    19  H    0.209108
    20  H    0.026578
    21  H    0.027109
    22  H    0.025990
    23  H    0.021443
    24  H    0.106483
    25  H   -0.000119
    26  H    0.031629
    27  H    0.022143
    28  H   -0.010629
    29  H    0.087435
    30  H    0.093363
 Sum of Mulliken charges =   0.00000

 Dipole moment (field-independent basis, Debye):
    X=              1.3682    Y=              3.6674    Z=             -2.0770  Tot=              4.4313
 Quadrupole moment (field-independent basis, Debye-Ang):
   XX=            -81.8133   YY=           -116.7817   ZZ=            -91.0651
   XY=              3.9873   XZ=             13.5521   YZ=            -17.5106

  Exact polarizability: 125.344 -14.593 141.015  28.753   3.576 139.665
 Approx polarizability: 166.321 -15.468 204.933  21.605   1.135 230.355

                      1                      2                      3
                      A                      A                      A
 Frequencies --      4.7368                28.6972                45.2964
 Red. masses --      2.8886                 3.6249                 3.2847
 Frc consts  --      0.0000                 0.0018                 0.0040
 IR Inten    --      0.8992                 2.0543                 3.4836

                      4                      5                      6
                      A                      A                      A
 Frequencies --     64.0596                67.2979                85.2962
 Red. masses --      6.2744                 4.1593                 4.1214
 Frc consts  --      0.0152                 0.0111                 0.0177
 IR Inten    --      7.1435                 8.2703                 0.1853

                      7                      8                      9
                      A                      A                      A
 Frequencies --     88.9063               157.7004               172.3894
 Red. masses --      6.4887                 4.3711                 4.3665
 Frc consts  --      0.0302                 0.0640                 0.0765
 IR Inten    --      1.0978                10.4008                 6.4341

                     10                     11                     12
                      A                      A                      A
 Frequencies --    216.2947               227.3612               238.9901
 Red. masses --      6.6376                 1.9946                 2.1013
 Frc consts  --      0.1830                 0.0607                 0.0707
 IR Inten    --      4.6727                17.9761                13.8203

                     13                     14                     15
                      A                      A                      A
 Frequencies --    262.1565               284.5250               317.3333
 Red. masses --      2.5423                 4.0762                 6.1392
 Frc consts  --      0.1029                 0.1944                 0.3642
 IR Inten    --     15.9598                17.1546                 5.3879

                     16                     17                     18
                      A                      A                      A
 Frequencies --    361.9431               389.5642               439.8204
 Red. masses --      5.7977                 4.6186                 3.0489
 Frc consts  --      0.4475                 0.4130                 0.3475
 IR Inten    --      1.8515                 0.9212                 4.5449

                     19                     20                     21
                      A                      A                      A
 Frequencies --    490.5192               523.4931               547.2755
 Red. masses --      1.2704                 1.4125                 4.3558
 Frc consts  --      0.1801                 0.2281                 0.7687
 IR Inten    --     79.7199                67.9353                19.4245

                     22                     23                     24
                      A                      A                      A
 Frequencies --    626.2456               630.1134               655.4918
 Red. masses --      4.0622                 3.0688                 2.3831
 Frc consts  --      0.9386                 0.7179                 0.6033
 IR Inten    --     13.9820                 9.6556                12.7891

                     25                     26                     27
                      A                      A                      A
 Frequencies --    684.8851               732.1189               754.2514
 Red. masses --      3.1002                 4.4672                 3.6265
 Frc consts  --      0.8568                 1.4107                 1.2155
 IR Inten    --      6.7646                 2.6607                12.8842

                     28                     29                     30
                      A                      A                      A
 Frequencies --    778.5825               804.1366               823.6581
 Red. masses --      4.6778                 1.5244                 1.4089
 Frc consts  --      1.6707                 0.5808                 0.5632
 IR Inten    --     25.4204                 9.5484                15.9881

                     31                     32                     33
                      A                      A                      A
 Frequencies --    848.9156               852.8868               881.1349
 Red. masses --      1.3756                 1.3365                 2.3674
 Frc consts  --      0.5841                 0.5728                 1.0830
 IR Inten    --     13.8364                93.8499                 9.4310

                     34                     35                     36
                      A                      A                      A
 Frequencies --    920.3401               942.1324               952.1462
 Red. masses --      1.1932                 5.0678                 3.4791
 Frc consts  --      0.5954                 2.6503                 1.8583
 IR Inten    --     78.4367                16.4814                 6.3286

                     37                     38                     39
                      A                      A                      A
 Frequencies --    968.4691              1003.3833              1029.1722
 Red. masses --      2.5257                 2.5994                 3.7436
 Frc consts  --      1.3957                 1.5419                 2.3362
 IR Inten    --      5.7812                 2.3112                 9.3664

                     40                     41                     42
                      A                      A                      A
 Frequencies --   1064.5345              1087.6818              1101.1276
 Red. masses --      2.8722                 2.4234                 2.2414
 Frc consts  --      1.9177                 1.6892                 1.6012
 IR Inten    --     21.1270                 9.9272                21.1363

                     43                     44                     45
                      A                      A                      A
 Frequencies --   1108.9781              1120.8050              1149.1615
 Red. masses --      1.6145                 2.8428                 2.6211
 Frc consts  --      1.1699                 2.1040                 2.0394
 IR Inten    --     14.3514                 6.3778                12.5230

                     46                     47                     48
                      A                      A                      A
 Frequencies --   1163.2257              1204.4385              1223.5186
 Red. masses --      1.3606                 1.6810                 2.2182
 Frc consts  --      1.0847                 1.4367                 1.9564
 IR Inten    --      1.9385                18.4765                16.1947

                     49                     50                     51
                      A                      A                      A
 Frequencies --   1239.9150              1267.6566              1283.9221
 Red. masses --      1.6381                 1.5531                 1.4836
 Frc consts  --      1.4838                 1.4705                 1.4409
 IR Inten    --     22.4298                10.5137                 0.4806

                     52                     53                     54
                      A                      A                      A
 Frequencies --   1287.1816              1317.1710              1341.1781
 Red. masses --      1.4740                 1.8147                 1.1209
 Frc consts  --      1.4389                 1.8550                 1.1879
 IR Inten    --     48.1871                17.6806                 5.2900

                     55                     56                     57
                      A                      A                      A
 Frequencies --   1355.8981              1372.9331              1385.9427
 Red. masses --      1.7574                 1.5222                 1.5387
 Frc consts  --      1.9036                 1.6905                 1.7414
 IR Inten    --      2.3027                10.4271                11.2426

                     58                     59                     60
                      A                      A                      A
 Frequencies --   1421.6543              1424.1196              1430.4308
 Red. masses --      2.4162                 2.6132                 1.5097
 Frc consts  --      2.8772                 3.1226                 1.8201
 IR Inten    --      5.2345                20.8502                25.8347

                     61                     62                     63
                      A                      A                      A
 Frequencies --   1466.7317              1470.9390              1484.2391
 Red. masses --      1.0934                 1.3434                 1.1676
 Frc consts  --      1.3859                 1.7125                 1.5155
 IR Inten    --     13.9144               234.4812                25.0862

                     64                     65                     66
                      A                      A                      A
 Frequencies --   1502.2818              1519.6110              1541.3311
 Red. masses --      3.2749                 1.0841                 2.2204
 Frc consts  --      4.3547                 1.4750                 3.1080
 IR Inten    --     13.3985                 1.8840               341.3823

                     67                     68                     69
                      A                      A                      A
 Frequencies --   1607.8967              1666.6356              1697.3495
 Red. masses --      4.2274                 1.0934                 7.2456
 Frc consts  --      6.4393                 1.7893                12.2990
 IR Inten    --     10.1201                19.0905               216.5112

                     70                     71                     72
                      A                      A                      A
 Frequencies --   1838.5454              2960.3994              3019.5914
 Red. masses --      8.7640                 1.0742                 1.0791
 Frc consts  --     17.4542                 5.5468                 5.7970
 IR Inten    --    339.8611                60.2165                 3.6665

                     73                     74                     75
                      A                      A                      A
 Frequencies --   3031.4178              3033.2379              3065.1344
 Red. masses --      1.0594                 1.0714                 1.0993
 Frc consts  --      5.7362                 5.8077                 6.0849
 IR Inten    --     13.6141                16.9055                 7.1391

                     76                     77                     78
                      A                      A                      A
 Frequencies --   3072.1559              3098.8182              3241.4438
 Red. masses --      1.0927                 1.0905                 1.0943
 Frc consts  --      6.0764                 6.1699                 6.7744
 IR Inten    --      5.9918                14.7957                 7.7781

                     79                     80                     81
                      A                      A                      A
 Frequencies --   3245.6153              3271.4483              3495.3808
 Red. masses --      1.0996                 1.0734                 1.0504
 Frc consts  --      6.8248                 6.7687                 7.5612
 IR Inten    --      0.8687               711.7935                 0.3666

                     82                     83                     84
                      A                      A                      A
 Frequencies --   3570.8013              3622.6390              3650.3446
 Red. masses --      1.0917                 1.0778                 1.0810
 Frc consts  --      8.2015                 8.3335                 8.4868
 IR Inten    --      0.6595                39.6328                50.4178

 - Thermochemistry -
 -------------------
 Temperature   298.150 Kelvin.  Pressure   1.00000 Atm.
 Atom     1 has atomic number  8 and mass  15.99491

 Molecular mass:   226.10659 amu.
 Principal axes and moments of inertia in atomic units:
                           1         2         3
     Eigenvalues --  3075.655825420.158347967.85766
           X            0.79157   0.04543  -0.60939
           Y           -0.28604   0.90879  -0.30379
           Z            0.54000   0.41478   0.73236
 This molecule is an asymmetric top.
 Rotational symmetry number  1.
 Warning -- assumption of classical behavior for rotation
           may cause significant error
 Rotational temperatures (Kelvin)      0.02816     0.01598     0.01087
 Rotational constants (GHZ):           0.58678     0.33297     0.22650
 Zero-point vibrational energy     642557.2 (Joules/Mol)
                                  153.57487 (Kcal/Mol)
 Warning -- explicit consideration of  21 degrees of freedom as
           vibrations may cause significant error
 Vibrational temperatures:      6.82    41.29    65.17    92.17    96.83
          (Kelvin)            122.72   127.92   226.90   248.03   311.20
                              327.12   343.85   377.18   409.37   456.57
                              520.75   560.50   632.80   705.75   753.19
                              787.41   901.03   906.59   943.11   985.40
                             1053.35  1085.20  1120.21  1156.97  1185.06
                             1221.40  1227.11  1267.75  1324.16  1355.52
                             1369.92  1393.41  1443.64  1480.75  1531.63
                             1564.93  1584.28  1595.57  1612.59  1653.38
                             1673.62  1732.92  1760.37  1783.96  1823.87
                             1847.28  1851.96  1895.11  1929.65  1950.83
                             1975.34  1994.06  2045.44  2048.99  2058.07
                             2110.30  2116.35  2135.49  2161.45  2186.38
                             2217.63  2313.40  2397.91  2442.10  2645.25
                             4259.35  4344.51  4361.53  4364.15  4410.04
                             4420.14  4458.50  4663.71  4669.71  4706.88
                             5029.07  5137.58  5212.16  5252.03

 Zero-point correction=                           0.244737 (Hartree/Particle)
 Thermal correction to Energy=                    0.260783
 Thermal correction to Enthalpy=                  0.261728
 Thermal correction to Gibbs Free Energy=         0.196915
 Sum of electronic and zero-point Energies=           -796.172481
 Sum of electronic and thermal Energies=              -796.156434
 Sum of electronic and thermal Enthalpies=            -796.155490
 Sum of electronic and thermal Free Energies=         -796.220302

                     E (Thermal)             CV                S
                      KCal/Mol        Cal/Mol-Kelvin    Cal/Mol-Kelvin
 Total                  163.644             57.828            136.409
 Electronic               0.000              0.000              0.000
 Translational            0.889              2.981             42.150
 Rotational               0.889              2.981             33.251
 Vibrational            161.867             51.866             61.007
 Vibration     1          0.593              1.987              9.496
 Vibration     2          0.593              1.984              5.918
 Vibration     3          0.595              1.979              5.013
 Vibration     4          0.597              1.971              4.328
 Vibration     5          0.598              1.970              4.231
 Vibration     6          0.601              1.959              3.765
 Vibration     7          0.602              1.957              3.684
 Vibration     8          0.621              1.894              2.577
 Vibration     9          0.626              1.876              2.409
 Vibration    10          0.645              1.816              1.990
 Vibration    11          0.651              1.799              1.900
 Vibration    12          0.657              1.781              1.810
 Vibration    13          0.669              1.742              1.647
 Vibration    14          0.683              1.702              1.506
 Vibration    15          0.704              1.640              1.324
 Vibration    16          0.736              1.551              1.114
 Vibration    17          0.757              1.492              1.002
 Vibration    18          0.800              1.383              0.827
 Vibration    19          0.846              1.271              0.682
 Vibration    20          0.878              1.198              0.602
 Vibration    21          0.902              1.146              0.550

 Normal termination of Gaussian 09 at Sat Jul 24 10:14:45 2021.
