 Gaussian 09, Revision D.01,
 Gaussian 09:  ES64L-G09RevD.01 24-Apr-2013

 ----------------------------------------------------------------------
 # B3LYP/6-311G(2df,2pd) EmpiricalDispersion=GD3BJ opt=calcfc freq=nora
 man nosymm integral(ultrafinegrid)
 ----------------------------------------------------------------------

 ------------------------------------------------------------
 Candidate Structure: Conf:490 OPT and FREQ calc in gas phase
 ------------------------------------------------------------
 Symbolic Z-matrix:
 Charge =  0 Multiplicity = 1

 SCF Done:  E(RB3LYP) =  -796.416033918     A.U. after   13 cycles
 SCF Done:  E(RB3LYP) =  -796.417630525     A.U. after   14 cycles
 SCF Done:  E(RB3LYP) =  -796.398460919     A.U. after   14 cycles
 SCF Done:  E(RB3LYP) =  -796.417689190     A.U. after    9 cycles
 SCF Done:  E(RB3LYP) =  -796.418809961     A.U. after   12 cycles
 SCF Done:  E(RB3LYP) =  -796.398595888     A.U. after   14 cycles
 SCF Done:  E(RB3LYP) =  -796.418872838     A.U. after   11 cycles
 SCF Done:  E(RB3LYP) =  -796.419123429     A.U. after   11 cycles
 SCF Done:  E(RB3LYP) =  -796.419187272     A.U. after   11 cycles
 SCF Done:  E(RB3LYP) =  -796.419198160     A.U. after    9 cycles
 SCF Done:  E(RB3LYP) =  -796.419201292     A.U. after    9 cycles
 SCF Done:  E(RB3LYP) =  -796.419201874     A.U. after    7 cycles
 SCF Done:  E(RB3LYP) =  -796.419201966     A.U. after    7 cycles
 Optimization completed.
    -- Stationary point found.
 Normal termination of Gaussian 09 at Sat Jul 24 07:44:53 2021.

 ----------------------------------------------------------------------
 #N Geom=AllCheck Guess=TCheck SCRF=Check GenChk RB3LYP/6-311G(2df,2pd)
  Freq
 ----------------------------------------------------------------------

 Structure from the checkpoint file:  "conf-490.chk"
 ------------------------------------------------------------
 Candidate Structure: Conf:490 OPT and FREQ calc in gas phase
 ------------------------------------------------------------
 Charge =  0 Multiplicity = 1

                          Input orientation:
 ---------------------------------------------------------------------
 Center     Atomic      Atomic             Coordinates (Angstroms)
 Number     Number       Type             X           Y           Z
 ---------------------------------------------------------------------
      1          8           0        0.895483    0.544668   -2.339987
      2          6           0        1.570962    0.163130   -1.395001
      3          7           0        1.065918    0.028705   -0.145467
      4          6           0       -0.288314    0.415234    0.140661
      5          6           0       -0.415218    0.688479    1.635501
      6          8           0       -1.547504    1.302686    2.023008
      7          8           0        0.418004    0.372100    2.438400
      8          6           0       -1.297659   -0.666877   -0.339672
      9          6           0       -2.722890   -0.287014   -0.133859
     10          6           0       -3.498688    0.712234   -0.671611
     11          7           0       -4.750109    0.725603   -0.095617
     12          6           0       -4.742317   -0.247171    0.780889
     13          7           0       -3.539742   -0.890090    0.799183
     14          6           0        3.041273   -0.202196   -1.560831
     15          6           0        3.961831    0.175242   -0.399046
     16          7           0        3.664911   -0.628814    0.792338
     17          1           0        1.681034   -0.259456    0.613393
     18          1           0       -0.518244    1.329435   -0.412105
     19          1           0       -2.139584    1.439018    1.266626
     20          1           0       -1.091566   -0.811792   -1.398721
     21          1           0       -1.069373   -1.602953    0.172404
     22          1           0       -3.228131    1.402297   -1.453152
     23          1           0       -5.560284   -0.531978    1.420786
     24          1           0       -3.273246   -1.644491    1.408028
     25          1           0        3.103597   -1.280299   -1.740124
     26          1           0        3.369003    0.285224   -2.477053
     27          1           0        5.002182    0.086681   -0.731825
     28          1           0        3.800797    1.222371   -0.137860
     29          1           0        4.124637   -0.257346    1.612990
     30          1           0        3.983047   -1.582747    0.672339
 ---------------------------------------------------------------------

 SCF Done:  E(RB3LYP) =  -796.419201966     A.U. after    1 cycles

 Alpha  occ. eigenvalues --  -19.16837 -19.11217 -19.07846 -14.37873 -14.32594
 Alpha  occ. eigenvalues --  -14.31323 -14.29837 -10.30667 -10.26480 -10.23377
 Alpha  occ. eigenvalues --  -10.23103 -10.21748 -10.21232 -10.19992 -10.19011
 Alpha  occ. eigenvalues --  -10.18160  -1.11142  -1.03662  -1.03140  -1.02773
 Alpha  occ. eigenvalues --   -0.92984  -0.90451  -0.88406  -0.81345  -0.77194
 Alpha  occ. eigenvalues --   -0.74028  -0.68327  -0.64364  -0.62823  -0.62268
 Alpha  occ. eigenvalues --   -0.60541  -0.58101  -0.56675  -0.54401  -0.52033
 Alpha  occ. eigenvalues --   -0.50082  -0.48239  -0.47802  -0.46575  -0.46356
 Alpha  occ. eigenvalues --   -0.45287  -0.44410  -0.43671  -0.43364  -0.42075
 Alpha  occ. eigenvalues --   -0.41585  -0.40501  -0.39891  -0.39454  -0.38318
 Alpha  occ. eigenvalues --   -0.37582  -0.35269  -0.33105  -0.29815  -0.28860
 Alpha  occ. eigenvalues --   -0.28020  -0.27010  -0.26467  -0.25236  -0.23937
 Alpha virt. eigenvalues --   -0.00816   0.01005   0.01239   0.02367   0.02924
 Alpha virt. eigenvalues --    0.03576   0.05345   0.06058   0.06213   0.06795
 Alpha virt. eigenvalues --    0.08259   0.09016   0.09415   0.10389   0.11331

 Mulliken charges:
               1
     1  O   -0.430395
     2  C    0.415726
     3  N   -0.345493
     4  C    0.079681
     5  C    0.507793
     6  O   -0.310698
     7  O   -0.356004
     8  C    0.036174
     9  C    0.005899
    10  C    0.079241
    11  N   -0.350566
    12  C    0.236161
    13  N   -0.207074
    14  C   -0.019572
    15  C    0.108991
    16  N   -0.265221
    17  H    0.114951
    18  H    0.023450
    19  H    0.226868
    20  H    0.046301
    21  H    0.009548
    22  H    0.029444
    23  H    0.023962
    24  H    0.108465
    25  H    0.009574
    26  H    0.014175
    27  H   -0.003111
    28  H    0.025524
    29  H    0.091469
    30  H    0.094738
 Sum of Mulliken charges =   0.00000

 Dipole moment (field-independent basis, Debye):
    X=              3.1214    Y=             -3.6392    Z=              1.2998  Tot=              4.9675
 Quadrupole moment (field-independent basis, Debye-Ang):
   XX=            -83.9638   YY=            -88.9378   ZZ=           -108.6430
   XY=              7.4698   XZ=             -6.0430   YZ=             -3.4654

  Exact polarizability: 177.981  -7.930 104.815  -8.461  -8.973 126.026
 Approx polarizability: 225.071 -18.803 178.080  -1.315 -24.594 203.052

                      1                      2                      3
                      A                      A                      A
 Frequencies --     19.2440                36.5441                46.5303
 Red. masses --      4.6246                 5.3031                 4.1555
 Frc consts  --      0.0010                 0.0042                 0.0053
 IR Inten    --      0.7355                 3.4913                 2.9071

                      4                      5                      6
                      A                      A                      A
 Frequencies --     57.9199                79.7975                89.3601
 Red. masses --      4.4725                 5.5809                 5.7813
 Frc consts  --      0.0088                 0.0209                 0.0272
 IR Inten    --      8.5359                 2.0593                 7.3912

                      7                      8                      9
                      A                      A                      A
 Frequencies --    104.4573               120.6656               173.9032
 Red. masses --      6.6510                 4.3050                 4.9415
 Frc consts  --      0.0428                 0.0369                 0.0880
 IR Inten    --      2.9333                 5.8077                 7.5477

                     10                     11                     12
                      A                      A                      A
 Frequencies --    199.0052               232.5143               285.8393
 Red. masses --      2.2512                 5.2941                 1.2349
 Frc consts  --      0.0525                 0.1686                 0.0594
 IR Inten    --      7.2986                 5.8073                10.9956

                     13                     14                     15
                      A                      A                      A
 Frequencies --    293.3358               336.1965               345.1111
 Red. masses --      7.8688                 2.2017                 4.1312
 Frc consts  --      0.3989                 0.1466                 0.2899
 IR Inten    --      0.6613                 4.5737                 9.2656

                     16                     17                     18
                      A                      A                      A
 Frequencies --    348.5898               391.9040               474.1868
 Red. masses --      6.5815                 4.4576                 2.6373
 Frc consts  --      0.4712                 0.4034                 0.3494
 IR Inten    --      4.5904                15.8266                10.7296

                     19                     20                     21
                      A                      A                      A
 Frequencies --    510.9819               546.0962               603.6438
 Red. masses --      3.2810                 1.3538                 3.9185
 Frc consts  --      0.5047                 0.2379                 0.8413
 IR Inten    --     27.5783                78.3450                 8.3680

                     22                     23                     24
                      A                      A                      A
 Frequencies --    614.0231               648.9685               677.6854
 Red. masses --      1.4930                 2.6440                 2.8556
 Frc consts  --      0.3316                 0.6561                 0.7727
 IR Inten    --     73.3157                 8.0700                 7.6852

                     25                     26                     27
                      A                      A                      A
 Frequencies --    686.6598               697.2713               739.2270
 Red. masses --      3.2362                 3.1335                 3.0872
 Frc consts  --      0.8990                 0.8976                 0.9939
 IR Inten    --     13.4027                34.5111                 9.4326

                     28                     29                     30
                      A                      A                      A
 Frequencies --    766.7768               797.7163               820.3159
 Red. masses --      2.9048                 1.4335                 2.2712
 Frc consts  --      1.0062                 0.5374                 0.9005
 IR Inten    --      2.3860                32.5071                11.6485

                     31                     32                     33
                      A                      A                      A
 Frequencies --    828.0169               836.7354               864.9425
 Red. masses --      1.4489                 1.4358                 1.4528
 Frc consts  --      0.5853                 0.5923                 0.6404
 IR Inten    --     15.7361                81.1840                25.1891

                     34                     35                     36
                      A                      A                      A
 Frequencies --    892.6444               920.2308               945.6273
 Red. masses --      2.6688                 2.0677                 5.6978
 Frc consts  --      1.2529                 1.0317                 3.0019
 IR Inten    --      9.9221                11.0711                14.2979

                     37                     38                     39
                      A                      A                      A
 Frequencies --    975.7513              1005.2905              1013.4850
 Red. masses --      2.1834                 1.8529                 2.7833
 Frc consts  --      1.2248                 1.1033                 1.6844
 IR Inten    --     12.7739                18.3610                 0.9286

                     40                     41                     42
                      A                      A                      A
 Frequencies --   1032.0326              1039.9250              1083.6455
 Red. masses --      3.9543                 3.0069                 2.5971
 Frc consts  --      2.4815                 1.9159                 1.7969
 IR Inten    --      8.3349                 8.0847                 6.1366

                     43                     44                     45
                      A                      A                      A
 Frequencies --   1109.2418              1140.9482              1145.9055
 Red. masses --      1.5986                 2.4371                 1.8317
 Frc consts  --      1.1589                 1.8692                 1.4171
 IR Inten    --     13.3104                10.6606                 4.1747

                     46                     47                     48
                      A                      A                      A
 Frequencies --   1160.9158              1165.4553              1205.3017
 Red. masses --      1.4544                 2.0669                 2.3439
 Frc consts  --      1.1549                 1.6541                 2.0063
 IR Inten    --      6.4994                22.0930                17.9873

                     49                     50                     51
                      A                      A                      A
 Frequencies --   1245.4723              1255.3404              1282.2788
 Red. masses --      1.5949                 1.9132                 1.4293
 Frc consts  --      1.4576                 1.7764                 1.3847
 IR Inten    --     24.2353                23.9894                 1.0587

                     52                     53                     54
                      A                      A                      A
 Frequencies --   1293.8032              1313.6871              1315.5149
 Red. masses --      1.3318                 1.4835                 1.3555
 Frc consts  --      1.3135                 1.5085                 1.3821
 IR Inten    --      0.6217                 9.4489                 3.8584

                     55                     56                     57
                      A                      A                      A
 Frequencies --   1320.6138              1361.6593              1368.6229
 Red. masses --      1.4311                 1.3409                 1.3808
 Frc consts  --      1.4705                 1.4649                 1.5239
 IR Inten    --    128.6047                93.5688                13.6250

                     58                     59                     60
                      A                      A                      A
 Frequencies --   1397.7876              1404.0566              1420.5137
 Red. masses --      2.4908                 1.9942                 1.4215
 Frc consts  --      2.8673                 2.3163                 1.6900
 IR Inten    --     45.9307                70.5007                20.0249

                     61                     62                     63
                      A                      A                      A
 Frequencies --   1427.8196              1467.1116              1490.6060
 Red. masses --      3.1385                 1.0835                 1.7432
 Frc consts  --      3.7698                 1.3741                 2.2821
 IR Inten    --     21.1420                12.9252                12.8408

                     64                     65                     66
                      A                      A                      A
 Frequencies --   1493.2325              1512.8045              1549.4488
 Red. masses --      1.7205                 1.1028                 2.0653
 Frc consts  --      2.2603                 1.4870                 2.9213
 IR Inten    --     11.2429                15.0717               375.8932

                     67                     68                     69
                      A                      A                      A
 Frequencies --   1599.2192              1658.1589              1733.3275
 Red. masses --      4.1578                 1.0901                 9.3677
 Frc consts  --      6.2652                 1.7659                16.5823
 IR Inten    --      9.1837                31.2008               277.7584

                     70                     71                     72
                      A                      A                      A
 Frequencies --   1843.6012              2983.6983              3023.0944
 Red. masses --      9.7861                 1.0721                 1.0706
 Frc consts  --     19.5971                 5.6236                 5.7646
 IR Inten    --    252.0712                85.7142                 8.0458

                     73                     74                     75
                      A                      A                      A
 Frequencies --   3037.0759              3053.8616              3063.9673
 Red. masses --      1.0793                 1.0654                 1.0907
 Frc consts  --      5.8656                 5.8542                 6.0329
 IR Inten    --      8.9871                21.2871                26.3843

                     76                     77                     78
                      A                      A                      A
 Frequencies --   3104.7249              3106.4938              3236.3633
 Red. masses --      1.1019                 1.0921                 1.0960
 Frc consts  --      6.2583                 6.2093                 6.7633
 IR Inten    --      2.1336                10.5893                 3.3251

                     79                     80                     81
                      A                      A                      A
 Frequencies --   3247.0762              3416.6663              3506.7551
 Red. masses --      1.0984                 1.0813                 1.0499
 Frc consts  --      6.8236                 7.4369                 7.6068
 IR Inten    --      0.7128               324.4062                 0.1787

                     82                     83                     84
                      A                      A                      A
 Frequencies --   3586.9422              3651.5031              3673.4505
 Red. masses --      1.0931                 1.0811                 1.0664
 Frc consts  --      8.2864                 8.4930                 8.4788
 IR Inten    --      4.0823                47.3700               214.1963

 - Thermochemistry -
 -------------------
 Temperature   298.150 Kelvin.  Pressure   1.00000 Atm.
 Atom     1 has atomic number  8 and mass  15.99491

 Molecular mass:   226.10659 amu.
 Principal axes and moments of inertia in atomic units:
                           1         2         3
     Eigenvalues --  1623.882946568.341757537.11713
           X            0.99054   0.13566   0.02074
           Y           -0.02819   0.05323   0.99818
           Z           -0.13431   0.98932  -0.05655
 This molecule is an asymmetric top.
 Rotational symmetry number  1.
 Warning -- assumption of classical behavior for rotation
           may cause significant error
 Rotational temperatures (Kelvin)      0.05334     0.01319     0.01149
 Rotational constants (GHZ):           1.11137     0.27476     0.23945
 Zero-point vibrational energy     643333.2 (Joules/Mol)
                                  153.76033 (Kcal/Mol)
 Warning -- explicit consideration of  22 degrees of freedom as
           vibrations may cause significant error
 Vibrational temperatures:     27.69    52.58    66.95    83.33   114.81
          (Kelvin)            128.57   150.29   173.61   250.21   286.32
                              334.54   411.26   422.04   483.71   496.54
                              501.54   563.86   682.25   735.19   785.71
                              868.51   883.44   933.72   975.04   987.95
                             1003.22  1063.58  1103.22  1147.73  1180.25
                             1191.33  1203.87  1244.46  1284.31  1324.01
                             1360.55  1403.89  1446.39  1458.18  1484.86
                             1496.22  1559.12  1595.95  1641.57  1648.70
                             1670.30  1676.83  1734.16  1791.95  1806.15
                             1844.91  1861.49  1890.10  1892.73  1900.07
                             1959.12  1969.14  2011.10  2020.12  2043.80
                             2054.31  2110.84  2144.65  2148.43  2176.59
                             2229.31  2300.92  2385.72  2493.87  2652.53
                             4292.87  4349.55  4369.67  4393.82  4408.36
                             4467.00  4469.55  4656.40  4671.81  4915.81
                             5045.43  5160.80  5253.69  5285.27

 Zero-point correction=                           0.245033 (Hartree/Particle)
 Thermal correction to Energy=                    0.260834
 Thermal correction to Enthalpy=                  0.261778
 Thermal correction to Gibbs Free Energy=         0.199235
 Sum of electronic and zero-point Energies=           -796.174169
 Sum of electronic and thermal Energies=              -796.158368
 Sum of electronic and thermal Enthalpies=            -796.157424
 Sum of electronic and thermal Free Energies=         -796.219967

                     E (Thermal)             CV                S
                      KCal/Mol        Cal/Mol-Kelvin    Cal/Mol-Kelvin
 Total                  163.676             57.713            131.633
 Electronic               0.000              0.000              0.000
 Translational            0.889              2.981             42.150
 Rotational               0.889              2.981             32.752
 Vibrational            161.898             51.752             56.730
 Vibration     1          0.593              1.986              6.711
 Vibration     2          0.594              1.982              5.438
 Vibration     3          0.595              1.979              4.960
 Vibration     4          0.596              1.974              4.527
 Vibration     5          0.600              1.963              3.896
 Vibration     6          0.602              1.957              3.674
 Vibration     7          0.605              1.946              3.369
 Vibration     8          0.609              1.932              3.090
 Vibration     9          0.627              1.875              2.393
 Vibration    10          0.637              1.841              2.142
 Vibration    11          0.653              1.791              1.859
 Vibration    12          0.684              1.700              1.498
 Vibration    13          0.688              1.686              1.455
 Vibration    14          0.717              1.603              1.230
 Vibration    15          0.723              1.585              1.188
 Vibration    16          0.726              1.578              1.173
 Vibration    17          0.759              1.487              0.993
 Vibration    18          0.831              1.307              0.726
 Vibration    19          0.866              1.226              0.631
 Vibration    20          0.901              1.148              0.552
 Vibration    21          0.962              1.024              0.443
 Vibration    22          0.973              1.002              0.426

 Optimization completed.
    -- Stationary point found.
 Normal termination of Gaussian 09 at Sat Jul 24 11:19:38 2021.
