 Gaussian 09, Revision D.01,
 Gaussian 09:  ES64L-G09RevD.01 24-Apr-2013

 ----------------------------------------------------------------------
 # B3LYP/6-311G(2df,2pd) EmpiricalDispersion=GD3BJ opt=calcfc freq=nora
 man nosymm integral(ultrafinegrid)
 ----------------------------------------------------------------------

 ------------------------------------------------------------
 Candidate Structure: Conf:683 OPT and FREQ calc in gas phase
 ------------------------------------------------------------
 Symbolic Z-matrix:
 Charge =  0 Multiplicity = 1

 SCF Done:  E(RB3LYP) =  -796.427139887     A.U. after   13 cycles
 SCF Done:  E(RB3LYP) =  -796.428622075     A.U. after   11 cycles
 SCF Done:  E(RB3LYP) =  -796.428974431     A.U. after   12 cycles
 SCF Done:  E(RB3LYP) =  -796.429067554     A.U. after   11 cycles
 SCF Done:  E(RB3LYP) =  -796.429031496     A.U. after   10 cycles
 SCF Done:  E(RB3LYP) =  -796.429104731     A.U. after   10 cycles
 SCF Done:  E(RB3LYP) =  -796.429105197     A.U. after    7 cycles
 SCF Done:  E(RB3LYP) =  -796.429105214     A.U. after    6 cycles
 Optimization completed.
    -- Stationary point found.
 Normal termination of Gaussian 09 at Sat Jul 24 06:13:54 2021.

 ----------------------------------------------------------------------
 #N Geom=AllCheck Guess=TCheck SCRF=Check GenChk RB3LYP/6-311G(2df,2pd)
  Freq
 ----------------------------------------------------------------------

 Structure from the checkpoint file:  "conf-683.chk"
 ------------------------------------------------------------
 Candidate Structure: Conf:683 OPT and FREQ calc in gas phase
 ------------------------------------------------------------
 Charge =  0 Multiplicity = 1

                          Input orientation:
 ---------------------------------------------------------------------
 Center     Atomic      Atomic             Coordinates (Angstroms)
 Number     Number       Type             X           Y           Z
 ---------------------------------------------------------------------
      1          8           0       -0.607587    0.070949   -2.154591
      2          6           0        0.342139    0.328917   -1.417016
      3          7           0        0.205178    0.612508   -0.106081
      4          6           0       -1.083266    0.809185    0.505844
      5          6           0       -1.083996    2.138054    1.240738
      6          8           0       -2.325440    2.477529    1.639428
      7          8           0       -0.112910    2.808059    1.468617
      8          6           0       -1.499942   -0.320713    1.475510
      9          6           0       -1.444846   -1.690530    0.884641
     10          6           0       -1.289907   -2.915985    1.480238
     11          7           0       -1.365068   -3.925980    0.550284
     12          6           0       -1.555901   -3.319866   -0.597682
     13          7           0       -1.630636   -1.967883   -0.452761
     14          6           0        1.768241    0.318674   -1.944613
     15          6           0        2.710403    1.365355   -1.346646
     16          7           0        2.977829    1.090752    0.071444
     17          1           0        1.054557    0.849312    0.406854
     18          1           0       -1.819264    0.870740   -0.296044
     19          1           0       -2.250063    3.312797    2.122561
     20          1           0       -0.849931   -0.297117    2.352544
     21          1           0       -2.507231   -0.086714    1.826342
     22          1           0       -1.137574   -3.122326    2.526805
     23          1           0       -1.642465   -3.797948   -1.559012
     24          1           0       -1.599723   -1.285362   -1.205310
     25          1           0        2.175563   -0.683708   -1.779319
     26          1           0        1.693279    0.449517   -3.022307
     27          1           0        2.240327    2.348033   -1.405581
     28          1           0        3.619611    1.407130   -1.955841
     29          1           0        3.579441    0.282615    0.176033
     30          1           0        3.439278    1.873995    0.514706
 ---------------------------------------------------------------------

 SCF Done:  E(RB3LYP) =  -796.429105214     A.U. after    1 cycles

 Alpha  occ. eigenvalues --  -19.18539 -19.12812 -19.09359 -14.34158 -14.33680
 Alpha  occ. eigenvalues --  -14.32021 -14.27033 -10.31864 -10.27821 -10.23715
 Alpha  occ. eigenvalues --  -10.21808 -10.20128 -10.19377 -10.18970 -10.18901
 Alpha  occ. eigenvalues --  -10.16214  -1.13013  -1.04925  -1.04034  -0.99755
 Alpha  occ. eigenvalues --   -0.94114  -0.91093  -0.85400  -0.81026  -0.77247
 Alpha  occ. eigenvalues --   -0.73998  -0.67581  -0.65842  -0.62562  -0.59940
 Alpha  occ. eigenvalues --   -0.58854  -0.57487  -0.54755  -0.52727  -0.51837
 Alpha  occ. eigenvalues --   -0.50996  -0.49427  -0.48510  -0.47404  -0.46928
 Alpha  occ. eigenvalues --   -0.45647  -0.44849  -0.43162  -0.42267  -0.41286
 Alpha  occ. eigenvalues --   -0.40935  -0.40315  -0.39618  -0.39292  -0.38539
 Alpha  occ. eigenvalues --   -0.37915  -0.35984  -0.34530  -0.30316  -0.27979
 Alpha  occ. eigenvalues --   -0.27477  -0.26859  -0.26653  -0.25321  -0.21359
 Alpha virt. eigenvalues --   -0.01191   0.00117   0.02195   0.02456   0.03768
 Alpha virt. eigenvalues --    0.05374   0.05707   0.06057   0.06897   0.07624
 Alpha virt. eigenvalues --    0.08548   0.09107   0.10494   0.11041   0.11799

 Mulliken charges:
               1
     1  O   -0.463017
     2  C    0.457338
     3  N   -0.265729
     4  C    0.004214
     5  C    0.525382
     6  O   -0.344046
     7  O   -0.369943
     8  C    0.039598
     9  C    0.084352
    10  C    0.076258
    11  N   -0.359023
    12  C    0.220474
    13  N   -0.241890
    14  C   -0.023044
    15  C    0.109932
    16  N   -0.270533
    17  H    0.113345
    18  H    0.039357
    19  H    0.221767
    20  H    0.014002
    21  H    0.027660
    22  H   -0.004081
    23  H    0.011668
    24  H    0.135653
    25  H    0.020473
    26  H    0.016777
    27  H    0.030051
    28  H    0.000176
    29  H    0.100263
    30  H    0.092565
 Sum of Mulliken charges =   0.00000

 Dipole moment (field-independent basis, Debye):
    X=              3.2083    Y=              4.8400    Z=              0.4357  Tot=              5.8231
 Quadrupole moment (field-independent basis, Debye-Ang):
   XX=            -81.4868   YY=           -109.4658   ZZ=            -91.6827
   XY=             -6.9361   XZ=             -5.5111   YZ=              6.5806

  Exact polarizability: 123.653   8.574 146.674  -8.282  10.059 134.058
 Approx polarizability: 180.646   5.029 208.443   7.167  11.967 214.106

                      1                      2                      3
                      A                      A                      A
 Frequencies --     17.7594                44.4021                50.5425
 Red. masses --      4.9727                 8.4795                 4.2113
 Frc consts  --      0.0009                 0.0098                 0.0063
 IR Inten    --      4.2140                 2.2676                 1.8068

                      4                      5                      6
                      A                      A                      A
 Frequencies --     65.8439                84.3431               104.2955
 Red. masses --      3.8994                 4.1079                 5.2919
 Frc consts  --      0.0100                 0.0172                 0.0339
 IR Inten    --      0.6660                 1.9705                 1.1555

                      7                      8                      9
                      A                      A                      A
 Frequencies --    118.9793               144.8551               183.5195
 Red. masses --      3.9463                 6.0831                 6.5757
 Frc consts  --      0.0329                 0.0752                 0.1305
 IR Inten    --      6.9228                12.4996                 1.5736

                     10                     11                     12
                      A                      A                      A
 Frequencies --    203.6903               228.8935               266.8191
 Red. masses --      2.2072                 5.0075                 3.7825
 Frc consts  --      0.0540                 0.1546                 0.1587
 IR Inten    --      2.7763                10.4084                 0.6322

                     13                     14                     15
                      A                      A                      A
 Frequencies --    297.6918               310.4522               347.6819
 Red. masses --      1.3359                 5.0131                 3.9756
 Frc consts  --      0.0698                 0.2847                 0.2832
 IR Inten    --     11.9346                 3.7159                 0.9117

                     16                     17                     18
                      A                      A                      A
 Frequencies --    357.5286               434.5870               484.3736
 Red. masses --      4.1116                 3.2419                 2.8901
 Frc consts  --      0.3097                 0.3607                 0.3995
 IR Inten    --      4.1101                14.1922                 9.6391

                     19                     20                     21
                      A                      A                      A
 Frequencies --    515.5141               591.1528               599.7083
 Red. masses --      3.0331                 2.2837                 1.7178
 Frc consts  --      0.4749                 0.4702                 0.3640
 IR Inten    --     40.3337                22.0269                58.0980

                     22                     23                     24
                      A                      A                      A
 Frequencies --    640.1211               647.7996               680.9927
 Red. masses --      3.5926                 4.4959                 3.3605
 Frc consts  --      0.8673                 1.1116                 0.9182
 IR Inten    --      8.2870                39.1634                33.9101

                     25                     26                     27
                      A                      A                      A
 Frequencies --    693.4929               702.9883               765.2120
 Red. masses --      3.1673                 3.3418                 1.2500
 Frc consts  --      0.8975                 0.9730                 0.4312
 IR Inten    --     35.7773                14.0714                86.9747

                     28                     29                     30
                      A                      A                      A
 Frequencies --    783.5680               804.2297               822.1126
 Red. masses --      3.2266                 1.2151                 1.4156
 Frc consts  --      1.1672                 0.4630                 0.5637
 IR Inten    --     22.2187                53.6112                12.8683

                     31                     32                     33
                      A                      A                      A
 Frequencies --    836.9389               844.5054               882.3914
 Red. masses --      1.4304                 1.3353                 2.7560
 Frc consts  --      0.5903                 0.5611                 1.2643
 IR Inten    --     27.8392                61.8988                 2.3692

                     34                     35                     36
                      A                      A                      A
 Frequencies --    901.8592               916.7726               949.3507
 Red. masses --      2.2947                 2.0533                 5.4860
 Frc consts  --      1.0997                 1.0168                 2.9131
 IR Inten    --     20.5982                25.6792                22.9651

                     37                     38                     39
                      A                      A                      A
 Frequencies --    962.9787               994.1918              1016.6193
 Red. masses --      2.5392                 2.2149                 2.4310
 Frc consts  --      1.3873                 1.2898                 1.4803
 IR Inten    --      2.4870                 2.6127                11.1814

                     40                     41                     42
                      A                      A                      A
 Frequencies --   1028.6500              1055.1676              1082.5583
 Red. masses --      2.6077                 3.0043                 2.6408
 Frc consts  --      1.6257                 1.9708                 1.8234
 IR Inten    --     27.6670                 9.7279                 6.1783

                     43                     44                     45
                      A                      A                      A
 Frequencies --   1134.7710              1141.9377              1155.8858
 Red. masses --      2.9887                 2.2874                 1.7823
 Frc consts  --      2.2675                 1.7574                 1.4030
 IR Inten    --    116.6782                15.5030                21.0185

                     46                     47                     48
                      A                      A                      A
 Frequencies --   1159.2986              1181.4055              1233.9177
 Red. masses --      1.4202                 2.1829                 1.4905
 Frc consts  --      1.1246                 1.7950                 1.3371
 IR Inten    --     51.7788                77.5180                 6.9908

                     49                     50                     51
                      A                      A                      A
 Frequencies --   1261.5152              1265.6511              1277.4939
 Red. masses --      2.1250                 1.3678                 1.5070
 Frc consts  --      1.9925                 1.2909                 1.4491
 IR Inten    --      3.8834                28.4581                10.9357

                     52                     53                     54
                      A                      A                      A
 Frequencies --   1293.1764              1316.2612              1317.7839
 Red. masses --      1.3651                 1.3521                 1.7480
 Frc consts  --      1.3451                 1.3802                 1.7885
 IR Inten    --      4.1974                 2.0092                12.7548

                     55                     56                     57
                      A                      A                      A
 Frequencies --   1346.7841              1366.8657              1374.5617
 Red. masses --      1.7861                 1.3746                 1.4541
 Frc consts  --      1.9087                 1.5132                 1.6187
 IR Inten    --      4.2873                10.2151                 6.4519

                     58                     59                     60
                      A                      A                      A
 Frequencies --   1394.1256              1402.6582              1423.0049
 Red. masses --      2.6417                 2.4412                 1.4154
 Frc consts  --      3.0251                 2.8298                 1.6887
 IR Inten    --      8.1924                91.9213                18.7350

                     61                     62                     63
                      A                      A                      A
 Frequencies --   1463.1820              1466.6846              1486.9130
 Red. masses --      2.1161                 1.0838                 1.2780
 Frc consts  --      2.6692                 1.3736                 1.6647
 IR Inten    --     36.0330                11.2664                17.3612

                     64                     65                     66
                      A                      A                      A
 Frequencies --   1499.3798              1513.2762              1591.5675
 Red. masses --      2.5397                 1.0845                 1.8961
 Frc consts  --      3.3641                 1.4632                 2.8299
 IR Inten    --     10.9505                 3.9811               269.4521

                     67                     68                     69
                      A                      A                      A
 Frequencies --   1612.2616              1656.7237              1710.8495
 Red. masses --      3.4360                 1.0909                 7.1897
 Frc consts  --      5.2623                 1.7642                12.3989
 IR Inten    --     15.6758                31.9949               289.8193

                     70                     71                     72
                      A                      A                      A
 Frequencies --   1825.8772              2991.8242              3027.1050
 Red. masses --     10.0372                 1.0714                 1.0705
 Frc consts  --     19.7155                 5.6503                 5.7798
 IR Inten    --    251.5682                77.2268                 4.6553

                     73                     74                     75
                      A                      A                      A
 Frequencies --   3033.3683              3061.0931              3068.4956
 Red. masses --      1.0590                 1.0986                 1.0918
 Frc consts  --      5.7409                 6.0649                 6.0566
 IR Inten    --     20.5052                 5.4490                20.6892

                     76                     77                     78
                      A                      A                      A
 Frequencies --   3082.0560              3108.7651              3227.4131
 Red. masses --      1.0870                 1.0923                 1.0958
 Frc consts  --      6.0835                 6.2194                 6.7249
 IR Inten    --     11.9547                 8.3132                 9.9001

                     79                     80                     81
                      A                      A                      A
 Frequencies --   3241.5720              3378.7893              3453.6084
 Red. masses --      1.0975                 1.0820                 1.0861
 Frc consts  --      6.7945                 7.2775                 7.6324
 IR Inten    --      1.4375               405.6624               360.6280

                     82                     83                     84
                      A                      A                      A
 Frequencies --   3505.9566              3587.0231              3751.7871
 Red. masses --      1.0499                 1.0932                 1.0641
 Frc consts  --      7.6034                 8.2873                 8.8246
 IR Inten    --      0.4322                 5.0078                74.6640

 - Thermochemistry -
 -------------------
 Temperature   298.150 Kelvin.  Pressure   1.00000 Atm.
 Atom     1 has atomic number  8 and mass  15.99491

 Molecular mass:   226.10659 amu.
 Principal axes and moments of inertia in atomic units:
                           1         2         3
     Eigenvalues --  2971.387154421.902136085.68766
           X            0.48956   0.64229   0.58974
           Y            0.86789  -0.42425  -0.25841
           Z           -0.08422  -0.63834   0.76513
 This molecule is an asymmetric top.
 Rotational symmetry number  1.
 Warning -- assumption of classical behavior for rotation
           may cause significant error
 Rotational temperatures (Kelvin)      0.02915     0.01959     0.01423
 Rotational constants (GHZ):           0.60737     0.40814     0.29656
 Zero-point vibrational energy     645132.9 (Joules/Mol)
                                  154.19047 (Kcal/Mol)
 Warning -- explicit consideration of  21 degrees of freedom as
           vibrations may cause significant error
 Vibrational temperatures:     25.55    63.88    72.72    94.73   121.35
          (Kelvin)            150.06   171.18   208.41   264.04   293.06
                              329.33   383.89   428.31   446.67   500.24
                              514.40   625.27   696.90   741.71   850.54
                              862.85   920.99   932.04   979.80   997.78
                             1011.44  1100.97  1127.38  1157.11  1182.84
                             1204.17  1215.05  1269.56  1297.57  1319.03
                             1365.90  1385.51  1430.42  1462.69  1480.00
                             1518.15  1557.56  1632.68  1642.99  1663.06
                             1667.97  1699.78  1775.33  1815.04  1820.99
                             1838.03  1860.59  1893.80  1895.99  1937.72
                             1966.61  1977.69  2005.83  2018.11  2047.38
                             2105.19  2110.23  2139.33  2157.27  2177.26
                             2289.91  2319.68  2383.65  2461.53  2627.03
                             4304.56  4355.32  4364.33  4404.22  4414.88
                             4434.39  4472.81  4643.52  4663.89  4861.32
                             4968.97  5044.28  5160.92  5397.98

 Zero-point correction=                           0.245718 (Hartree/Particle)
 Thermal correction to Energy=                    0.261262
 Thermal correction to Enthalpy=                  0.262206
 Thermal correction to Gibbs Free Energy=         0.200626
 Sum of electronic and zero-point Energies=           -796.183387
 Sum of electronic and thermal Energies=              -796.167843
 Sum of electronic and thermal Enthalpies=            -796.166899
 Sum of electronic and thermal Free Energies=         -796.228479

                     E (Thermal)             CV                S
                      KCal/Mol        Cal/Mol-Kelvin    Cal/Mol-Kelvin
 Total                  163.944             57.156            129.606
 Electronic               0.000              0.000              0.000
 Translational            0.889              2.981             42.150
 Rotational               0.889              2.981             32.747
 Vibrational            162.167             51.194             54.709
 Vibration     1          0.593              1.986              6.870
 Vibration     2          0.595              1.980              5.052
 Vibration     3          0.595              1.977              4.796
 Vibration     4          0.597              1.971              4.274
 Vibration     5          0.601              1.960              3.787
 Vibration     6          0.605              1.946              3.372
 Vibration     7          0.609              1.934              3.117
 Vibration     8          0.616              1.908              2.739
 Vibration     9          0.631              1.862              2.292
 Vibration    10          0.639              1.835              2.100
 Vibration    11          0.652              1.797              1.888
 Vibration    12          0.672              1.734              1.617
 Vibration    13          0.691              1.678              1.430
 Vibration    14          0.699              1.654              1.360
 Vibration    15          0.725              1.580              1.177
 Vibration    16          0.733              1.560              1.133
 Vibration    17          0.795              1.395              0.844
 Vibration    18          0.840              1.285              0.698
 Vibration    19          0.871              1.216              0.620
 Vibration    20          0.949              1.051              0.465
 Vibration    21          0.958              1.032              0.450

 Optimization completed.
    -- Stationary point found.
 Normal termination of Gaussian 09 at Sat Jul 24 09:56:46 2021.
