 Gaussian 09, Revision D.01,
 Gaussian 09:  ES64L-G09RevD.01 24-Apr-2013

 ----------------------------------------------------------------------
 # B3LYP/6-311G(2df,2pd) EmpiricalDispersion=GD3BJ opt=calcfc freq=nora
 man nosymm integral(ultrafinegrid)
 ----------------------------------------------------------------------

 ------------------------------------------------------------
 Candidate Structure: Conf:599 OPT and FREQ calc in gas phase
 ------------------------------------------------------------
 Symbolic Z-matrix:
 Charge =  0 Multiplicity = 1

 SCF Done:  E(RB3LYP) =  -796.410651635     A.U. after   14 cycles
 SCF Done:  E(RB3LYP) =  -796.411781087     A.U. after   14 cycles
 SCF Done:  E(RB3LYP) =  -796.409561607     A.U. after   13 cycles
 SCF Done:  E(RB3LYP) =  -796.411948019     A.U. after   10 cycles
 SCF Done:  E(RB3LYP) =  -796.412098821     A.U. after   11 cycles
 SCF Done:  E(RB3LYP) =  -796.412113800     A.U. after   11 cycles
 SCF Done:  E(RB3LYP) =  -796.412115621     A.U. after    9 cycles
 SCF Done:  E(RB3LYP) =  -796.412115702     A.U. after    7 cycles
 Optimization completed.
    -- Stationary point found.
 Normal termination of Gaussian 09 at Sat Jul 24 06:12:24 2021.

 ----------------------------------------------------------------------
 #N Geom=AllCheck Guess=TCheck SCRF=Check GenChk RB3LYP/6-311G(2df,2pd)
  Freq
 ----------------------------------------------------------------------

 Structure from the checkpoint file:  "conf-599.chk"
 ------------------------------------------------------------
 Candidate Structure: Conf:599 OPT and FREQ calc in gas phase
 ------------------------------------------------------------
 Charge =  0 Multiplicity = 1

                          Input orientation:
 ---------------------------------------------------------------------
 Center     Atomic      Atomic             Coordinates (Angstroms)
 Number     Number       Type             X           Y           Z
 ---------------------------------------------------------------------
      1          8           0        2.737996    1.613297    0.727412
      2          6           0        1.908071    0.817274    0.343825
      3          7           0        1.073785    1.156367   -0.715317
      4          6           0       -0.200351    0.518225   -1.019775
      5          6           0       -0.386667    0.427066   -2.542130
      6          8           0        0.746877    0.405848   -3.249355
      7          8           0       -1.460002    0.349338   -3.078506
      8          6           0       -1.405196    1.178600   -0.311922
      9          6           0       -2.546256    0.259797   -0.047581
     10          6           0       -3.087226   -0.195112    1.128344
     11          7           0       -4.139878   -1.043785    0.884363
     12          6           0       -4.236722   -1.106747   -0.423198
     13          7           0       -3.299037   -0.334316   -1.034903
     14          6           0        1.750417   -0.568404    0.939846
     15          6           0        2.829003   -0.877126    1.985979
     16          7           0        4.197506   -0.937001    1.497053
     17          1           0        1.132304    2.146847   -0.919440
     18          1           0       -0.137366   -0.516024   -0.682807
     19          1           0        1.483908    0.546105   -2.631641
     20          1           0       -1.722771    2.049600   -0.890879
     21          1           0       -1.053484    1.545667    0.651460
     22          1           0       -2.782006    0.054659    2.131210
     23          1           0       -4.955895   -1.687697   -0.975803
     24          1           0       -3.106069   -0.226932   -2.020005
     25          1           0        0.754891   -0.646164    1.388890
     26          1           0        1.781479   -1.311925    0.137678
     27          1           0        2.785146   -0.117515    2.766123
     28          1           0        2.583056   -1.830361    2.456583
     29          1           0        4.295205   -1.630606    0.765570
     30          1           0        4.459206   -0.038917    1.111217
 ---------------------------------------------------------------------

 SCF Done:  E(RB3LYP) =  -796.412115702     A.U. after    1 cycles

 Alpha  occ. eigenvalues --  -19.19352 -19.13889 -19.12025 -14.37439 -14.36024
 Alpha  occ. eigenvalues --  -14.28988 -14.28654 -10.33358 -10.30407 -10.26349
 Alpha  occ. eigenvalues --  -10.21965 -10.21268 -10.20671 -10.20481 -10.20200
 Alpha  occ. eigenvalues --  -10.18119  -1.13967  -1.07723  -1.05778  -1.01610
 Alpha  occ. eigenvalues --   -0.96645  -0.89155  -0.87169  -0.82018  -0.78134
 Alpha  occ. eigenvalues --   -0.75252  -0.69287  -0.66499  -0.64486  -0.61253
 Alpha  occ. eigenvalues --   -0.59909  -0.59484  -0.57708  -0.55073  -0.53990
 Alpha  occ. eigenvalues --   -0.51632  -0.49503  -0.49054  -0.48669  -0.47623
 Alpha  occ. eigenvalues --   -0.46347  -0.44868  -0.44384  -0.43843  -0.43518
 Alpha  occ. eigenvalues --   -0.42319  -0.41366  -0.41085  -0.40340  -0.39260
 Alpha  occ. eigenvalues --   -0.38604  -0.36954  -0.35514  -0.32617  -0.30749
 Alpha  occ. eigenvalues --   -0.28831  -0.28394  -0.26952  -0.24715  -0.23290
 Alpha virt. eigenvalues --   -0.03193  -0.02229   0.00589   0.01668   0.02580
 Alpha virt. eigenvalues --    0.03627   0.04760   0.05359   0.06234   0.07124
 Alpha virt. eigenvalues --    0.07521   0.07939   0.08956   0.09900   0.10340

 Mulliken charges:
               1
     1  O   -0.381551
     2  C    0.467095
     3  N   -0.400807
     4  C    0.021952
     5  C    0.549990
     6  O   -0.297468
     7  O   -0.380820
     8  C    0.008123
     9  C    0.091163
    10  C    0.096467
    11  N   -0.353011
    12  C    0.231666
    13  N   -0.236804
    14  C   -0.095816
    15  C    0.138259
    16  N   -0.325249
    17  H    0.123820
    18  H    0.056290
    19  H    0.211814
    20  H    0.024733
    21  H    0.023502
    22  H    0.005648
    23  H    0.017534
    24  H    0.126237
    25  H    0.033235
    26  H    0.015229
    27  H    0.016673
    28  H    0.008438
    29  H    0.088771
    30  H    0.114886
 Sum of Mulliken charges =   0.00000

 Dipole moment (field-independent basis, Debye):
    X=              1.3523    Y=              0.4250    Z=             -1.9730  Tot=              2.4294
 Quadrupole moment (field-independent basis, Debye-Ang):
   XX=           -116.9645   YY=            -93.1640   ZZ=           -105.9547
   XY=             -6.3925   XZ=             -1.9036   YZ=              2.1201

  Exact polarizability: 163.167  17.534 109.729  10.704  -4.032 134.454
 Approx polarizability: 220.591  31.925 176.317  12.378   0.268 210.144

                      1                      2                      3
                      A                      A                      A
 Frequencies --     14.5833                33.8939                49.6287
 Red. masses --      5.5534                 4.8664                 3.5234
 Frc consts  --      0.0007                 0.0033                 0.0051
 IR Inten    --      0.3116                 0.2774                 2.4422

                      4                      5                      6
                      A                      A                      A
 Frequencies --     63.9446                78.5642                87.2390
 Red. masses --      6.6464                 5.0935                 6.1907
 Frc consts  --      0.0160                 0.0185                 0.0278
 IR Inten    --      0.4942                 0.3473                 9.6757

                      7                      8                      9
                      A                      A                      A
 Frequencies --    135.3837               144.3365               156.7083
 Red. masses --      4.8135                 5.9931                 3.1765
 Frc consts  --      0.0520                 0.0736                 0.0460
 IR Inten    --      2.1394                11.9664                 4.9708

                     10                     11                     12
                      A                      A                      A
 Frequencies --    207.9875               249.8654               284.7573
 Red. masses --      4.5552                 2.7527                 4.5141
 Frc consts  --      0.1161                 0.1013                 0.2157
 IR Inten    --      7.5171                 6.6657                 8.1449

                     13                     14                     15
                      A                      A                      A
 Frequencies --    317.7709               340.7758               355.5216
 Red. masses --      4.4563                 2.7092                 1.1524
 Frc consts  --      0.2651                 0.1854                 0.0858
 IR Inten    --      1.5824                 4.2845                47.0580

                     16                     17                     18
                      A                      A                      A
 Frequencies --    367.9332               416.0755               447.7136
 Red. masses --      4.9436                 3.0555                 4.8403
 Frc consts  --      0.3943                 0.3117                 0.5716
 IR Inten    --     12.0871                 9.5516                 0.6763

                     19                     20                     21
                      A                      A                      A
 Frequencies --    523.3964               553.5065               605.0805
 Red. masses --      2.2338                 2.6889                 4.0220
 Frc consts  --      0.3605                 0.4854                 0.8676
 IR Inten    --     20.9518                 3.2686                 9.3227

                     22                     23                     24
                      A                      A                      A
 Frequencies --    630.8676               652.7751               670.2991
 Red. masses --      3.1663                 3.1780                 1.5510
 Frc consts  --      0.7425                 0.7979                 0.4106
 IR Inten    --     37.2232                 5.8261                46.6378

                     25                     26                     27
                      A                      A                      A
 Frequencies --    684.1670               725.8921               732.9426
 Red. masses --      2.9218                 3.2913                 1.3204
 Frc consts  --      0.8058                 1.0218                 0.4179
 IR Inten    --     51.6243                 3.9025                49.6958

                     28                     29                     30
                      A                      A                      A
 Frequencies --    746.9037               787.9531               810.0894
 Red. masses --      3.3115                 1.1826                 2.4663
 Frc consts  --      1.0885                 0.4326                 0.9536
 IR Inten    --      2.1074                90.2183                65.1487

                     31                     32                     33
                      A                      A                      A
 Frequencies --    831.4163               833.5468               855.9658
 Red. masses --      1.6671                 2.1571                 1.4299
 Frc consts  --      0.6790                 0.8831                 0.6172
 IR Inten    --     54.6470                16.4066                15.7605

                     34                     35                     36
                      A                      A                      A
 Frequencies --    860.0766               888.9008               929.5232
 Red. masses --      1.6318                 2.5941                 1.6027
 Frc consts  --      0.7112                 1.2076                 0.8159
 IR Inten    --    169.9902                 5.7450                 8.3038

                     37                     38                     39
                      A                      A                      A
 Frequencies --    947.8681               987.1121              1026.9540
 Red. masses --      5.6268                 2.7300                 2.2108
 Frc consts  --      2.9786                 1.5673                 1.3737
 IR Inten    --     18.0937                 4.3126                53.5616

                     40                     41                     42
                      A                      A                      A
 Frequencies --   1031.0977              1055.6075              1110.4063
 Red. masses --      3.8110                 4.5424                 2.6157
 Frc consts  --      2.3872                 2.9822                 1.9002
 IR Inten    --      5.4630                20.9390                 6.2043

                     43                     44                     45
                      A                      A                      A
 Frequencies --   1118.9180              1135.3413              1146.9054
 Red. masses --      1.5751                 3.2417                 2.3560
 Frc consts  --      1.1619                 2.4619                 1.8259
 IR Inten    --     54.7440                23.8874                12.0556

                     46                     47                     48
                      A                      A                      A
 Frequencies --   1166.0001              1201.4752              1206.4949
 Red. masses --      1.4017                 1.3317                 2.2160
 Frc consts  --      1.1228                 1.1326                 1.9005
 IR Inten    --     33.6256                 1.1687                18.9890

                     49                     50                     51
                      A                      A                      A
 Frequencies --   1243.0383              1261.4594              1273.3245
 Red. masses --      1.6952                 2.2537                 1.5737
 Frc consts  --      1.5432                 2.1130                 1.5034
 IR Inten    --     78.9423                13.4921               123.1020

                     52                     53                     54
                      A                      A                      A
 Frequencies --   1280.0143              1307.7316              1321.8762
 Red. masses --      1.5427                 1.2733                 1.3539
 Frc consts  --      1.4892                 1.2829                 1.3938
 IR Inten    --     37.8861                 2.8746                35.1407

                     55                     56                     57
                      A                      A                      A
 Frequencies --   1366.5733              1367.1371              1384.5600
 Red. masses --      1.4754                 1.8787                 1.6101
 Frc consts  --      1.6234                 2.0688                 1.8185
 IR Inten    --     75.8923               164.5522               211.2851

                     58                     59                     60
                      A                      A                      A
 Frequencies --   1393.8633              1397.6649              1409.5867
 Red. masses --      3.5028                 1.2693                 1.4786
 Frc consts  --      4.0097                 1.4609                 1.7310
 IR Inten    --     19.3835                 2.7393                54.0331

                     61                     62                     63
                      A                      A                      A
 Frequencies --   1429.6849              1452.9748              1477.6107
 Red. masses --      2.7425                 1.1268                 1.3464
 Frc consts  --      3.3027                 1.4015                 1.7320
 IR Inten    --     33.4216                 8.5189                34.5608

                     64                     65                     66
                      A                      A                      A
 Frequencies --   1478.9543              1488.6089              1501.1009
 Red. masses --      1.1973                 1.0907                 3.1853
 Frc consts  --      1.5430                 1.4240                 4.2289
 IR Inten    --      9.8128                 6.7105                16.8828

                     67                     68                     69
                      A                      A                      A
 Frequencies --   1605.2208              1659.4321              1775.1142
 Red. masses --      4.4046                 1.0926                 8.2260
 Frc consts  --      6.6869                 1.7726                15.2719
 IR Inten    --     14.7719                25.1271               379.9556

                     70                     71                     72
                      A                      A                      A
 Frequencies --   1834.3427              3011.9510              3030.1407
 Red. masses --      9.8173                 1.0602                 1.0667
 Frc consts  --     19.4626                 5.6668                 5.7703
 IR Inten    --    236.1861                20.2118                21.3397

                     73                     74                     75
                      A                      A                      A
 Frequencies --   3041.2321              3050.0799              3085.0793
 Red. masses --      1.0824                 1.0796                 1.0819
 Frc consts  --      5.8983                 5.9177                 6.0667
 IR Inten    --      9.6110                33.3295                 7.6819

                     76                     77                     78
                      A                      A                      A
 Frequencies --   3089.7017              3093.7771              3228.0527
 Red. masses --      1.1025                 1.0958                 1.0961
 Frc consts  --      6.2008                 6.1796                 6.7296
 IR Inten    --     19.0915                 4.5427                 7.6929

                     79                     80                     81
                      A                      A                      A
 Frequencies --   3243.8741              3497.8561              3539.3706
 Red. masses --      1.0978                 1.0488                 1.0748
 Frc consts  --      6.8062                 7.5601                 7.9328
 IR Inten    --      1.3360                 2.3813                21.6108

                     82                     83                     84
                      A                      A                      A
 Frequencies --   3582.3169              3589.0391              3656.3955
 Red. masses --      1.0928                 1.0822                 1.0644
 Frc consts  --      8.2624                 8.2131                 8.3841
 IR Inten    --      4.4671               189.2222               173.2017

 - Thermochemistry -
 -------------------
 Temperature   298.150 Kelvin.  Pressure   1.00000 Atm.
 Atom     1 has atomic number  8 and mass  15.99491

 Molecular mass:   226.10659 amu.
 Principal axes and moments of inertia in atomic units:
                           1         2         3
     Eigenvalues --  2438.635096105.783747641.54258
           X            0.97252  -0.19511  -0.12705
           Y            0.06166  -0.31035   0.94862
           Z            0.22451   0.93038   0.28979
 This molecule is an asymmetric top.
 Rotational symmetry number  1.
 Warning -- assumption of classical behavior for rotation
           may cause significant error
 Rotational temperatures (Kelvin)      0.03552     0.01419     0.01133
 Rotational constants (GHZ):           0.74006     0.29558     0.23617
 Zero-point vibrational energy     643943.3 (Joules/Mol)
                                  153.90613 (Kcal/Mol)
 Warning -- explicit consideration of  21 degrees of freedom as
           vibrations may cause significant error
 Vibrational temperatures:     20.98    48.77    71.40    92.00   113.04
          (Kelvin)            125.52   194.79   207.67   225.47   299.25
                              359.50   409.70   457.20   490.30   511.52
                              529.37   598.64   644.16   753.05   796.37
                              870.57   907.68   939.20   964.41   984.36
                             1044.40  1054.54  1074.63  1133.69  1165.54
                             1196.22  1199.29  1231.54  1237.46  1278.93
                             1337.37  1363.77  1420.23  1477.56  1483.52
                             1518.78  1597.63  1609.87  1633.50  1650.14
                             1677.61  1728.65  1735.87  1788.45  1814.96
                             1832.03  1841.65  1881.53  1901.88  1966.19
                             1967.00  1992.07  2005.46  2010.93  2028.08
                             2057.00  2090.50  2125.95  2127.88  2141.77
                             2159.75  2309.55  2387.55  2553.99  2639.21
                             4333.52  4359.69  4375.65  4388.38  4438.74
                             4445.39  4451.25  4644.44  4667.21  5032.63
                             5092.36  5154.15  5163.82  5260.73

 Zero-point correction=                           0.245265 (Hartree/Particle)
 Thermal correction to Energy=                    0.260893
 Thermal correction to Enthalpy=                  0.261837
 Thermal correction to Gibbs Free Energy=         0.199464
 Sum of electronic and zero-point Energies=           -796.166851
 Sum of electronic and thermal Energies=              -796.151223
 Sum of electronic and thermal Enthalpies=            -796.150279
 Sum of electronic and thermal Free Energies=         -796.212651

                     E (Thermal)             CV                S
                      KCal/Mol        Cal/Mol-Kelvin    Cal/Mol-Kelvin
 Total                  163.713             57.592            131.274
 Electronic               0.000              0.000              0.000
 Translational            0.889              2.981             42.150
 Rotational               0.889              2.981             33.098
 Vibrational            161.935             51.630             56.027
 Vibration     1          0.593              1.986              7.262
 Vibration     2          0.594              1.983              5.587
 Vibration     3          0.595              1.978              4.832
 Vibration     4          0.597              1.972              4.332
 Vibration     5          0.600              1.964              3.926
 Vibration     6          0.601              1.958              3.721
 Vibration     7          0.613              1.918              2.868
 Vibration     8          0.616              1.909              2.746
 Vibration     9          0.620              1.895              2.589
 Vibration    10          0.641              1.828              2.061
 Vibration    11          0.663              1.763              1.732
 Vibration    12          0.683              1.702              1.505
 Vibration    13          0.704              1.640              1.322
 Vibration    14          0.720              1.594              1.209
 Vibration    15          0.731              1.564              1.142
 Vibration    16          0.741              1.538              1.088
 Vibration    17          0.779              1.435              0.905
 Vibration    18          0.807              1.366              0.803
 Vibration    19          0.878              1.198              0.602
 Vibration    20          0.909              1.132              0.537
 Vibration    21          0.964              1.021              0.441

 Normal termination of Gaussian 09 at Sat Jul 24 09:46:13 2021.
