 Gaussian 09, Revision D.01,
 Gaussian 09:  ES64L-G09RevD.01 24-Apr-2013

 ----------------------------------------------------------------------
 # B3LYP/6-311G(2df,2pd) guess=read geom=checkpoint opt=readfc freq=nor
 aman nosymm integral(ultrafinegrid)
 ----------------------------------------------------------------------

 ------------------------------------------------------------
 Candidate Structure: Conf:340 OPT and FREQ calc in gas phase
 ------------------------------------------------------------
 Structure from the checkpoint file:  "conf-340.chk"
 Charge =  0 Multiplicity = 1

 SCF Done:  E(RB3LYP) =  -796.363708983     A.U. after   11 cycles
 SCF Done:  E(RB3LYP) =  -796.364397890     A.U. after   10 cycles
 SCF Done:  E(RB3LYP) =  -796.364402052     A.U. after    9 cycles
 SCF Done:  E(RB3LYP) =  -796.364402324     A.U. after    7 cycles
 Optimization completed.
    -- Stationary point found.
 Normal termination of Gaussian 09 at Thu Jul 29 02:26:32 2021.

 ----------------------------------------------------------------------
 #N Geom=AllCheck Guess=TCheck SCRF=Check GenChk RB3LYP/6-311G(2df,2pd)
  Freq
 ----------------------------------------------------------------------

 Structure from the checkpoint file:  "conf-340.chk"
 ------------------------------------------------------------
 Candidate Structure: Conf:340 OPT and FREQ calc in gas phase
 ------------------------------------------------------------
 Charge =  0 Multiplicity = 1

                          Input orientation:
 ---------------------------------------------------------------------
 Center     Atomic      Atomic             Coordinates (Angstroms)
 Number     Number       Type             X           Y           Z
 ---------------------------------------------------------------------
      1          8           0        0.599943   -0.990391   -0.710047
      2          6           0        1.366718   -0.193707   -0.174509
      3          7           0        0.919057    0.972137    0.351814
      4          6           0       -0.457145    1.364319    0.173241
      5          6           0       -0.586211    2.860446    0.415042
      6          8           0       -1.815777    3.364347    0.209480
      7          8           0        0.320878    3.557727    0.774886
      8          6           0       -1.455322    0.551944    1.070512
      9          6           0       -2.624523    0.064174    0.291641
     10          6           0       -3.965881    0.355728    0.295078
     11          7           0       -4.620707   -0.357317   -0.681591
     12          6           0       -3.689992   -1.067645   -1.271067
     13          7           0       -2.463087   -0.850557   -0.724936
     14          6           0        2.857921   -0.446507   -0.078320
     15          6           0        3.188225   -1.919283    0.152907
     16          7           0        4.632811   -2.127619    0.056454
     17          1           0        1.549450    1.679410    0.699471
     18          1           0       -0.730515    1.174889   -0.867855
     19          1           0       -2.437272    2.677022   -0.074590
     20          1           0       -0.899708   -0.287526    1.486622
     21          1           0       -1.797084    1.154540    1.911733
     22          1           0       -4.495477    1.016217    0.962792
     23          1           0       -3.844509   -1.750779   -2.089896
     24          1           0       -1.566178   -1.238605   -0.990961
     25          1           0        3.313371   -0.137050   -1.022727
     26          1           0        3.298751    0.176636    0.703507
     27          1           0        2.700184   -2.503973   -0.625144
     28          1           0        2.751188   -2.241206    1.108453
     29          1           0        4.845045   -3.117446    0.051106
     30          1           0        5.105724   -1.739815    0.864763
 ---------------------------------------------------------------------

 SCF Done:  E(RB3LYP) =  -796.364402324     A.U. after    1 cycles

 Alpha  occ. eigenvalues --  -19.18374 -19.12794 -19.10800 -14.36497 -14.35706
 Alpha  occ. eigenvalues --  -14.29772 -14.29148 -10.32248 -10.29133 -10.24907
 Alpha  occ. eigenvalues --  -10.22521 -10.21165 -10.20832 -10.20402 -10.19060
 Alpha  occ. eigenvalues --  -10.18796  -1.12601  -1.06220  -1.04645  -1.02144
 Alpha  occ. eigenvalues --   -0.95181  -0.89449  -0.87736  -0.81975  -0.77729
 Alpha  occ. eigenvalues --   -0.74526  -0.69079  -0.65031  -0.62950  -0.61928
 Alpha  occ. eigenvalues --   -0.60849  -0.59803  -0.56723  -0.55392  -0.51651
 Alpha  occ. eigenvalues --   -0.50700  -0.49970  -0.48779  -0.47682  -0.46510
 Alpha  occ. eigenvalues --   -0.46376  -0.44625  -0.44075  -0.43225  -0.42590
 Alpha  occ. eigenvalues --   -0.41671  -0.41242  -0.40718  -0.40193  -0.39824
 Alpha  occ. eigenvalues --   -0.36948  -0.36173  -0.34459  -0.30597  -0.29072
 Alpha  occ. eigenvalues --   -0.28803  -0.28312  -0.27447  -0.25367  -0.23920
 Alpha virt. eigenvalues --   -0.01815  -0.00161   0.00743   0.02277   0.03121
 Alpha virt. eigenvalues --    0.03850   0.04774   0.05462   0.06293   0.06757
 Alpha virt. eigenvalues --    0.07221   0.08647   0.08977   0.09786   0.10605

 Mulliken charges:
               1
     1  O   -0.475140
     2  C    0.456375
     3  N   -0.321295
     4  C    0.059564
     5  C    0.525907
     6  O   -0.306626
     7  O   -0.354024
     8  C   -0.009471
     9  C    0.060509
    10  C    0.076244
    11  N   -0.351886
    12  C    0.241229
    13  N   -0.232827
    14  C   -0.037704
    15  C    0.199791
    16  N   -0.325391
    17  H    0.111423
    18  H    0.029800
    19  H    0.214782
    20  H    0.030830
    21  H    0.029090
    22  H    0.020079
    23  H    0.020119
    24  H    0.133385
    25  H    0.023988
    26  H    0.000151
    27  H    0.017229
    28  H   -0.016075
    29  H    0.086219
    30  H    0.093725
 Sum of Mulliken charges =   0.00000

 Dipole moment (field-independent basis, Debye):
    X=              3.2654    Y=             -2.3113    Z=              1.2154  Tot=              4.1812
 Quadrupole moment (field-independent basis, Debye-Ang):
   XX=           -107.5757   YY=           -104.0684   ZZ=            -91.0041
   XY=             -5.1639   XZ=              4.0798   YZ=             -2.7738

  Exact polarizability: 172.030  -5.402 134.515   9.908  18.670 104.695
 Approx polarizability: 232.065   3.071 200.391  15.211  34.160 173.504

                      1                      2                      3
                      A                      A                      A
 Frequencies --     23.4708                33.6920                59.7977
 Red. masses --      3.1737                 5.7175                 2.5946
 Frc consts  --      0.0010                 0.0038                 0.0055
 IR Inten    --      0.9863                 2.6341                 3.5075

                      4                      5                      6
                      A                      A                      A
 Frequencies --     73.4932                81.4006                86.9438
 Red. masses --      4.8689                 6.8294                 4.5671
 Frc consts  --      0.0155                 0.0267                 0.0203
 IR Inten    --      2.8664                 1.2981                 2.0955

                      7                      8                      9
                      A                      A                      A
 Frequencies --     97.5653               113.2264               162.9754
 Red. masses --      6.4369                 5.3425                 4.3217
 Frc consts  --      0.0361                 0.0404                 0.0676
 IR Inten    --      8.5099                 6.0849                 5.4833

                     10                     11                     12
                      A                      A                      A
 Frequencies --    192.4801               204.8600               245.7649
 Red. masses --      5.3332                 3.3038                 1.3242
 Frc consts  --      0.1164                 0.0817                 0.0471
 IR Inten    --      8.7388                 9.1454                41.9033

                     13                     14                     15
                      A                      A                      A
 Frequencies --    274.4830               317.7634               337.6136
 Red. masses --      4.8152                 4.4630                 2.6928
 Frc consts  --      0.2137                 0.2655                 0.1808
 IR Inten    --      3.1783                 3.0680                 5.5003

                     16                     17                     18
                      A                      A                      A
 Frequencies --    356.6158               395.2798               413.5084
 Red. masses --      5.9068                 3.9247                 3.9148
 Frc consts  --      0.4426                 0.3613                 0.3944
 IR Inten    --      8.2431                 5.8995                 7.4418

                     19                     20                     21
                      A                      A                      A
 Frequencies --    533.1054               552.7437               587.1528
 Red. masses --      1.5868                 2.1776                 1.2741
 Frc consts  --      0.2657                 0.3920                 0.2588
 IR Inten    --     44.6401                10.3550                83.9949

                     22                     23                     24
                      A                      A                      A
 Frequencies --    631.2857               645.0513               660.9455
 Red. masses --      3.5444                 3.1731                 2.9402
 Frc consts  --      0.8322                 0.7779                 0.7568
 IR Inten    --     30.4968                 5.9546                 9.9505

                     25                     26                     27
                      A                      A                      A
 Frequencies --    684.3481               716.4563               743.2388
 Red. masses --      3.6369                 3.6536                 1.2717
 Frc consts  --      1.0036                 1.1050                 0.4139
 IR Inten    --     18.5557                 5.1893                47.3979

                     28                     29                     30
                      A                      A                      A
 Frequencies --    751.8331               772.5325               805.3122
 Red. masses --      2.7566                 4.2429                 1.4331
 Frc consts  --      0.9181                 1.4919                 0.5476
 IR Inten    --     16.0570                 1.5573                15.1066

                     31                     32                     33
                      A                      A                      A
 Frequencies --    843.9437               850.9995               854.1328
 Red. masses --      1.4178                 1.6295                 1.3968
 Frc consts  --      0.5949                 0.6953                 0.6004
 IR Inten    --     17.5685                66.7205                47.5199

                     34                     35                     36
                      A                      A                      A
 Frequencies --    868.3050               939.9474               946.6053
 Red. masses --      2.0227                 5.6080                 2.9131
 Frc consts  --      0.8985                 2.9192                 1.5379
 IR Inten    --     22.4020                12.9672                13.5587

                     37                     38                     39
                      A                      A                      A
 Frequencies --    983.1713               984.7079              1019.5805
 Red. masses --      2.3002                 5.0764                 3.5541
 Frc consts  --      1.3100                 2.9001                 2.1768
 IR Inten    --      4.3906                 1.4176                14.9370

                     40                     41                     42
                      A                      A                      A
 Frequencies --   1030.4641              1063.0202              1096.4681
 Red. masses --      3.2385                 2.8284                 2.1389
 Frc consts  --      2.0261                 1.8831                 1.5151
 IR Inten    --      3.2768                21.0586                20.2516

                     43                     44                     45
                      A                      A                      A
 Frequencies --   1116.4507              1131.4808              1141.7107
 Red. masses --      1.7088                 2.0122                 2.1366
 Frc consts  --      1.2549                 1.5178                 1.6409
 IR Inten    --     37.7230                 8.1168                 4.3591

                     46                     47                     48
                      A                      A                      A
 Frequencies --   1166.8012              1195.3744              1201.5372
 Red. masses --      1.5199                 1.4703                 2.1823
 Frc consts  --      1.2191                 1.2379                 1.8563
 IR Inten    --      5.8005                17.7885                13.9557

                     49                     50                     51
                      A                      A                      A
 Frequencies --   1227.5227              1256.8703              1265.9464
 Red. masses --      1.5590                 2.2697                 1.4079
 Frc consts  --      1.3840                 2.1126                 1.3294
 IR Inten    --     34.5734                23.6423                 7.7187

                     52                     53                     54
                      A                      A                      A
 Frequencies --   1282.1917              1301.1564              1333.1478
 Red. masses --      1.3609                 1.3525                 1.3453
 Frc consts  --      1.3182                 1.3491                 1.4088
 IR Inten    --      6.0444                62.9780                 7.4156

                     55                     56                     57
                      A                      A                      A
 Frequencies --   1339.1108              1348.5749              1369.5970
 Red. masses --      1.1457                 1.7513                 1.4402
 Frc consts  --      1.2104                 1.8765                 1.5917
 IR Inten    --     52.7174               197.0566                 3.9300

                     58                     59                     60
                      A                      A                      A
 Frequencies --   1383.6940              1409.8807              1426.8446
 Red. masses --      3.1943                 1.6946                 1.4912
 Frc consts  --      3.6034                 1.9846                 1.7887
 IR Inten    --      7.1751                57.2661                37.9985

                     61                     62                     63
                      A                      A                      A
 Frequencies --   1435.1980              1471.0861              1486.0511
 Red. masses --      2.5352                 1.0940                 1.1230
 Frc consts  --      3.0767                 1.3949                 1.4611
 IR Inten    --     66.4100                 8.7759                13.5643

                     64                     65                     66
                      A                      A                      A
 Frequencies --   1505.3108              1519.6222              1520.5959
 Red. masses --      3.4587                 1.0967                 2.4366
 Frc consts  --      4.6175                 1.4921                 3.3194
 IR Inten    --     43.9603                 5.1313               279.9413

                     67                     68                     69
                      A                      A                      A
 Frequencies --   1607.7675              1666.1077              1707.9365
 Red. masses --      4.2821                 1.0912                 8.5883
 Frc consts  --      6.5216                 1.7847                14.7605
 IR Inten    --     13.7530                19.0433               188.4706

                     70                     71                     72
                      A                      A                      A
 Frequencies --   1845.5077              2952.3725              3030.3395
 Red. masses --      9.8813                 1.0743                 1.0594
 Frc consts  --     19.8287                 5.5171                 5.7320
 IR Inten    --    293.4778                67.2172                14.4648

                     73                     74                     75
                      A                      A                      A
 Frequencies --   3032.2147              3061.5157              3064.8400
 Red. masses --      1.0813                 1.0604                 1.0994
 Frc consts  --      5.8576                 5.8557                 6.0843
 IR Inten    --     10.0688                16.0647                 8.1430

                     76                     77                     78
                      A                      A                      A
 Frequencies --   3094.8052              3100.0408              3226.9978
 Red. masses --      1.0906                 1.1049                 1.0959
 Frc consts  --      6.1545                 6.2561                 6.7236
 IR Inten    --     17.8555                 8.3510                 5.3841

                     79                     80                     81
                      A                      A                      A
 Frequencies --   3243.3450              3492.9149              3548.4732
 Red. masses --      1.0973                 1.0502                 1.0835
 Frc consts  --      6.8009                 7.5494                 8.0380
 IR Inten    --      1.1450                 0.3841               213.6417

                     82                     83                     84
                      A                      A                      A
 Frequencies --   3567.4887              3592.0931              3702.4047
 Red. masses --      1.0919                 1.0778                 1.0669
 Frc consts  --      8.1873                 8.1941                 8.6166
 IR Inten    --      0.5378                80.2274               175.5939

 - Thermochemistry -
 -------------------
 Temperature   298.150 Kelvin.  Pressure   1.00000 Atm.
 Atom     1 has atomic number  8 and mass  15.99491

 Molecular mass:   226.10659 amu.
 Principal axes and moments of inertia in atomic units:
                           1         2         3
     Eigenvalues --  2508.431286056.315658200.08855
           X            0.96231   0.25389  -0.09749
           Y           -0.27001   0.93482  -0.23067
           Z            0.03257   0.24830   0.96814
 This molecule is an asymmetric top.
 Rotational symmetry number  1.
 Warning -- assumption of classical behavior for rotation
           may cause significant error
 Rotational temperatures (Kelvin)      0.03453     0.01430     0.01056
 Rotational constants (GHZ):           0.71947     0.29799     0.22009
 Zero-point vibrational energy     642449.7 (Joules/Mol)
                                  153.54917 (Kcal/Mol)
 Warning -- explicit consideration of  21 degrees of freedom as
           vibrations may cause significant error
 Vibrational temperatures:     33.77    48.48    86.04   105.74   117.12
          (Kelvin)            125.09   140.37   162.91   234.48   276.94
                              294.75   353.60   394.92   457.19   485.75
                              513.09   568.72   594.95   767.02   795.27
                              844.78   908.28   928.08   950.95   984.62
                             1030.82  1069.35  1081.72  1111.50  1158.66
                             1214.25  1224.40  1228.90  1249.30  1352.37
                             1361.95  1414.56  1416.77  1466.95  1482.61
                             1529.45  1577.57  1606.32  1627.95  1642.66
                             1678.76  1719.87  1728.74  1766.13  1808.35
                             1821.41  1844.79  1872.07  1918.10  1926.68
                             1940.30  1970.54  1990.82  2028.50  2052.91
                             2064.93  2116.56  2138.09  2165.80  2186.39
                             2187.80  2313.22  2397.15  2457.34  2655.27
                             4247.80  4359.98  4362.68  4404.83  4409.62
                             4452.73  4460.26  4642.92  4666.44  5025.52
                             5105.46  5132.81  5168.21  5326.93

 Zero-point correction=                           0.244696 (Hartree/Particle)
 Thermal correction to Energy=                    0.260675
 Thermal correction to Enthalpy=                  0.261620
 Thermal correction to Gibbs Free Energy=         0.198823
 Sum of electronic and zero-point Energies=           -796.119706
 Sum of electronic and thermal Energies=              -796.103727
 Sum of electronic and thermal Enthalpies=            -796.102783
 Sum of electronic and thermal Free Energies=         -796.165580

                     E (Thermal)             CV                S
                      KCal/Mol        Cal/Mol-Kelvin    Cal/Mol-Kelvin
 Total                  163.576             58.028            132.167
 Electronic               0.000              0.000              0.000
 Translational            0.889              2.981             42.150
 Rotational               0.889              2.981             33.188
 Vibrational            161.799             52.067             56.830
 Vibration     1          0.593              1.985              6.316
 Vibration     2          0.594              1.983              5.599
 Vibration     3          0.597              1.973              4.464
 Vibration     4          0.599              1.967              4.058
 Vibration     5          0.600              1.962              3.857
 Vibration     6          0.601              1.958              3.728
 Vibration     7          0.603              1.951              3.502
 Vibration     8          0.607              1.938              3.213
 Vibration     9          0.623              1.888              2.515
 Vibration    10          0.634              1.850              2.204
 Vibration    11          0.640              1.833              2.089
 Vibration    12          0.660              1.770              1.761
 Vibration    13          0.677              1.720              1.568
 Vibration    14          0.704              1.640              1.322
 Vibration    15          0.718              1.600              1.223
 Vibration    16          0.732              1.562              1.137
 Vibration    17          0.762              1.480              0.980
 Vibration    18          0.777              1.441              0.914
 Vibration    19          0.888              1.177              0.580
 Vibration    20          0.908              1.134              0.539
 Vibration    21          0.944              1.059              0.472

 Normal termination of Gaussian 09 at Thu Jul 29 05:53:32 2021.
