 Gaussian 09, Revision D.01,
 Gaussian 09:  ES64L-G09RevD.01 24-Apr-2013

 ----------------------------------------------------------------------
 # B3LYP/6-311G(2df,2pd) guess=read geom=checkpoint opt=readfc freq=nor
 aman nosymm integral(ultrafinegrid)
 ----------------------------------------------------------------------

 ------------------------------------------------------------
 Candidate Structure: Conf:118 OPT and FREQ calc in gas phase
 ------------------------------------------------------------
 Structure from the checkpoint file:  "conf-118.chk"
 Charge =  0 Multiplicity = 1

 SCF Done:  E(RB3LYP) =  -796.372897440     A.U. after   11 cycles
 SCF Done:  E(RB3LYP) =  -796.373557357     A.U. after   10 cycles
 SCF Done:  E(RB3LYP) =  -796.373568990     A.U. after   10 cycles
 SCF Done:  E(RB3LYP) =  -796.373569445     A.U. after    9 cycles
 Optimization completed.
    -- Stationary point found.
 Normal termination of Gaussian 09 at Thu Jul 29 02:30:42 2021.

 ----------------------------------------------------------------------
 #N Geom=AllCheck Guess=TCheck SCRF=Check GenChk RB3LYP/6-311G(2df,2pd)
  Freq
 ----------------------------------------------------------------------

 Structure from the checkpoint file:  "conf-118.chk"
 ------------------------------------------------------------
 Candidate Structure: Conf:118 OPT and FREQ calc in gas phase
 ------------------------------------------------------------
 Charge =  0 Multiplicity = 1

                          Input orientation:
 ---------------------------------------------------------------------
 Center     Atomic      Atomic             Coordinates (Angstroms)
 Number     Number       Type             X           Y           Z
 ---------------------------------------------------------------------
      1          8           0       -1.008581   -1.905740    1.773766
      2          6           0       -1.038406   -1.277346    0.710413
      3          7           0        0.066398   -0.686298    0.211930
      4          6           0        1.399741   -0.858879    0.785080
      5          6           0        1.575292   -0.059284    2.097115
      6          8           0        0.733796   -0.386012    3.065568
      7          8           0        2.430611    0.779646    2.250025
      8          6           0        2.469845   -0.523116   -0.268156
      9          6           0        2.293061    0.794075   -0.948220
     10          6           0        1.920218    1.119763   -2.229935
     11          7           0        1.888160    2.482028   -2.400699
     12          6           0        2.236159    2.979146   -1.237546
     13          7           0        2.493680    2.005018   -0.326211
     14          6           0       -2.322218   -1.119311   -0.069495
     15          6           0       -3.425959   -0.445637    0.777711
     16          7           0       -4.724512   -0.325652    0.133989
     17          1           0        0.004703   -0.112394   -0.616527
     18          1           0        1.497182   -1.912030    1.064365
     19          1           0        0.088969   -1.072347    2.750345
     20          1           0        2.447052   -1.302260   -1.030534
     21          1           0        3.442518   -0.577948    0.221411
     22          1           0        1.701636    0.444136   -3.041521
     23          1           0        2.317281    4.027000   -0.999963
     24          1           0        2.725965    2.093052    0.653277
     25          1           0       -2.653589   -2.122956   -0.346176
     26          1           0       -2.159818   -0.559098   -0.992523
     27          1           0       -3.541520   -1.011961    1.701073
     28          1           0       -3.094600    0.554593    1.065129
     29          1           0       -4.665903    0.214621   -0.720552
     30          1           0       -5.097064   -1.234805   -0.111649
 ---------------------------------------------------------------------

 SCF Done:  E(RB3LYP) =  -796.373569445     A.U. after    1 cycles

 Alpha  occ. eigenvalues --  -19.15997 -19.12040 -19.11841 -14.37214 -14.36393
 Alpha  occ. eigenvalues --  -14.30203 -14.29110 -10.31313 -10.30241 -10.25197
 Alpha  occ. eigenvalues --  -10.22392 -10.21103 -10.21081 -10.20866 -10.19929
 Alpha  occ. eigenvalues --  -10.18680  -1.11336  -1.07287  -1.03059  -1.02026
 Alpha  occ. eigenvalues --   -0.96262  -0.89992  -0.87591  -0.82303  -0.77983
 Alpha  occ. eigenvalues --   -0.74730  -0.68566  -0.65588  -0.62432  -0.62271
 Alpha  occ. eigenvalues --   -0.61025  -0.59845  -0.56504  -0.55461  -0.52793
 Alpha  occ. eigenvalues --   -0.51578  -0.50958  -0.47937  -0.46799  -0.46433
 Alpha  occ. eigenvalues --   -0.45667  -0.45044  -0.44271  -0.43695  -0.42693
 Alpha  occ. eigenvalues --   -0.41773  -0.41542  -0.41182  -0.40021  -0.39283
 Alpha  occ. eigenvalues --   -0.38066  -0.36539  -0.33074  -0.31956  -0.29801
 Alpha  occ. eigenvalues --   -0.28979  -0.28020  -0.27456  -0.25452  -0.23912
 Alpha virt. eigenvalues --   -0.02227  -0.01050   0.00992   0.01815   0.03075
 Alpha virt. eigenvalues --    0.03452   0.05849   0.06169   0.06364   0.06426
 Alpha virt. eigenvalues --    0.07789   0.08528   0.10156   0.10579   0.10800

 Mulliken charges:
               1
     1  O   -0.476765
     2  C    0.448526
     3  N   -0.284457
     4  C   -0.020582
     5  C    0.570415
     6  O   -0.302799
     7  O   -0.399435
     8  C    0.005245
     9  C    0.070753
    10  C    0.086076
    11  N   -0.351981
    12  C    0.236517
    13  N   -0.237894
    14  C   -0.026031
    15  C    0.170361
    16  N   -0.330408
    17  H    0.124008
    18  H    0.030373
    19  H    0.214368
    20  H    0.020547
    21  H    0.030660
    22  H    0.012130
    23  H    0.019597
    24  H    0.129291
    25  H    0.018344
    26  H   -0.001904
    27  H    0.030696
    28  H    0.017599
    29  H    0.096782
    30  H    0.099966
 Sum of Mulliken charges =   0.00000

 Dipole moment (field-independent basis, Debye):
    X=             -0.9318    Y=             -2.3713    Z=             -2.1685  Tot=              3.3457
 Quadrupole moment (field-independent basis, Debye-Ang):
   XX=            -95.6518   YY=            -93.7147   ZZ=           -113.5890
   XY=             -1.2285   XZ=              6.8379   YZ=              9.2536

  Exact polarizability: 143.006  16.919 133.221   2.137 -12.367 132.137
 Approx polarizability: 189.596  20.452 209.475   8.728 -14.904 210.038

                      1                      2                      3
                      A                      A                      A
 Frequencies --     22.9142                45.8464                58.8952
 Red. masses --      4.3848                 7.4091                 2.7561
 Frc consts  --      0.0014                 0.0092                 0.0056
 IR Inten    --      0.1355                 1.4247                 4.3174

                      4                      5                      6
                      A                      A                      A
 Frequencies --     76.2232                86.8902                94.4277
 Red. masses --      4.0788                 3.2372                 4.3382
 Frc consts  --      0.0140                 0.0144                 0.0228
 IR Inten    --      6.6731                 0.2416                 3.9390

                      7                      8                      9
                      A                      A                      A
 Frequencies --    133.8831               155.0163               194.6026
 Red. masses --      8.9922                 5.5468                 4.2769
 Frc consts  --      0.0950                 0.0785                 0.0954
 IR Inten    --     10.1244                 6.4550                 9.6432

                     10                     11                     12
                      A                      A                      A
 Frequencies --    214.4454               232.4727               272.0457
 Red. masses --      4.8153                 6.9901                 6.7179
 Frc consts  --      0.1305                 0.2226                 0.2929
 IR Inten    --      4.7128                13.9973                 1.0179

                     13                     14                     15
                      A                      A                      A
 Frequencies --    296.9343               303.4713               346.0165
 Red. masses --      1.1131                 5.3783                 4.7818
 Frc consts  --      0.0578                 0.2918                 0.3373
 IR Inten    --     35.4349                 1.7253                 4.3476

                     16                     17                     18
                      A                      A                      A
 Frequencies --    362.8132               384.0762               440.7930
 Red. masses --      2.3766                 4.1958                 3.4038
 Frc consts  --      0.1843                 0.3647                 0.3897
 IR Inten    --      5.6071                 4.5133                23.2579

                     19                     20                     21
                      A                      A                      A
 Frequencies --    556.8145               576.4887               606.7253
 Red. masses --      1.3242                 4.3507                 3.8219
 Frc consts  --      0.2419                 0.8519                 0.8289
 IR Inten    --     38.7964                11.8645                10.2711

                     22                     23                     24
                      A                      A                      A
 Frequencies --    634.0549               661.2689               675.6774
 Red. masses --      3.4886                 2.8013                 3.2438
 Frc consts  --      0.8263                 0.7217                 0.8725
 IR Inten    --      9.4553                 3.5435                40.8693

                     25                     26                     27
                      A                      A                      A
 Frequencies --    731.0653               741.5007               763.9618
 Red. masses --      1.6371                 2.0770                 4.1083
 Frc consts  --      0.5155                 0.6728                 1.4127
 IR Inten    --     14.7849                48.8400                 6.0801

                     28                     29                     30
                      A                      A                      A
 Frequencies --    770.7096               788.4902               823.9787
 Red. masses --      1.4510                 4.4301                 1.4998
 Frc consts  --      0.5078                 1.6228                 0.5999
 IR Inten    --      4.8039                 2.7179               259.8679

                     31                     32                     33
                      A                      A                      A
 Frequencies --    843.0215               850.1588               866.2098
 Red. masses --      1.4169                 1.9931                 1.8639
 Frc consts  --      0.5933                 0.8487                 0.8240
 IR Inten    --     16.7550                19.0002                 9.7810

                     34                     35                     36
                      A                      A                      A
 Frequencies --    934.8042               940.2393               951.1842
 Red. masses --      1.5954                 5.1244                 1.6439
 Frc consts  --      0.8214                 2.6691                 0.8763
 IR Inten    --     44.9958                 8.8343                36.1360

                     37                     38                     39
                      A                      A                      A
 Frequencies --    978.3779               986.7435              1008.8363
 Red. masses --      1.3936                 4.1520                 4.2448
 Frc consts  --      0.7859                 2.3819                 2.5453
 IR Inten    --      1.1351                 6.1267                54.9042

                     40                     41                     42
                      A                      A                      A
 Frequencies --   1012.4854              1058.3806              1089.7041
 Red. masses --      4.4000                 2.4346                 2.3443
 Frc consts  --      2.6576                 1.6068                 1.6402
 IR Inten    --     20.7236                10.1327                 5.5382

                     43                     44                     45
                      A                      A                      A
 Frequencies --   1106.1121              1116.1003              1140.3262
 Red. masses --      3.5133                 1.6012                 1.3996
 Frc consts  --      2.5326                 1.1752                 1.0723
 IR Inten    --     12.3608                47.6793                 4.3979

                     46                     47                     48
                      A                      A                      A
 Frequencies --   1145.4088              1223.0473              1243.5767
 Red. masses --      2.1250                 1.6099                 2.1738
 Frc consts  --      1.6426                 1.4188                 1.9807
 IR Inten    --      4.9693                10.1546                33.5266

                     49                     50                     51
                      A                      A                      A
 Frequencies --   1253.9476              1262.5190              1290.3707
 Red. masses --      1.6913                 2.1300                 1.3218
 Frc consts  --      1.5668                 2.0003                 1.2967
 IR Inten    --     29.4597                 3.9120                 5.8317

                     52                     53                     54
                      A                      A                      A
 Frequencies --   1293.5075              1308.4166              1352.2799
 Red. masses --      1.3271                 1.5296                 1.6808
 Frc consts  --      1.3083                 1.5428                 1.8109
 IR Inten    --      1.4212                26.8935                10.8355

                     55                     56                     57
                      A                      A                      A
 Frequencies --   1370.8040              1384.2013              1385.7725
 Red. masses --      1.6405                 1.4801                 1.2456
 Frc consts  --      1.8162                 1.6708                 1.4093
 IR Inten    --     10.4824                 4.5583                15.8538

                     58                     59                     60
                      A                      A                      A
 Frequencies --   1392.9842              1394.7128              1427.1336
 Red. masses --      1.1962                 2.7961                 2.7496
 Frc consts  --      1.3675                 3.2046                 3.2995
 IR Inten    --      8.9909                28.9211                53.1347

                     61                     62                     63
                      A                      A                      A
 Frequencies --   1470.3370              1474.4261              1478.1285
 Red. masses --      1.3497                 1.1301                 1.1263
 Frc consts  --      1.7192                 1.4474                 1.4499
 IR Inten    --    224.0944                12.8578                 0.6280

                     64                     65                     66
                      A                      A                      A
 Frequencies --   1503.7253              1504.3123              1535.2610
 Red. masses --      3.3945                 1.0907                 2.3636
 Frc consts  --      4.5224                 1.4542                 3.2824
 IR Inten    --     15.4628                 5.7034               453.3042

                     67                     68                     69
                      A                      A                      A
 Frequencies --   1599.8107              1665.1147              1680.4082
 Red. masses --      4.2595                 1.1221                 6.2598
 Frc consts  --      6.4231                 1.8330                10.4146
 IR Inten    --     13.5170                47.1107               180.5095

                     70                     71                     72
                      A                      A                      A
 Frequencies --   1810.4165              3029.0965              3031.0419
 Red. masses --      8.0209                 1.0822                 1.0593
 Frc consts  --     15.4892                 5.8503                 5.7341
 IR Inten    --    342.8650                 4.7834                 2.4995

                     73                     74                     75
                      A                      A                      A
 Frequencies --   3041.0887              3056.9324              3071.4688
 Red. masses --      1.0659                 1.0607                 1.0997
 Frc consts  --      5.8077                 5.8400                 6.1126
 IR Inten    --     30.5433                18.7641                 4.4103

                     76                     77                     78
                      A                      A                      A
 Frequencies --   3095.4902              3098.2097              3223.9783
 Red. masses --      1.1039                 1.1032                 1.0952
 Frc consts  --      6.2321                 6.2393                 6.7073
 IR Inten    --      5.3344                20.7677                11.7798

                     79                     80                     81
                      A                      A                      A
 Frequencies --   3225.5614              3243.1320              3494.6487
 Red. masses --      1.0751                 1.0972                 1.0483
 Frc consts  --      6.5904                 6.7996                 7.5433
 IR Inten    --    710.1654                 0.8048                 1.0181

                     82                     83                     84
                      A                      A                      A
 Frequencies --   3569.8903              3571.9690              3580.3449
 Red. masses --      1.0786                 1.0937                 1.0825
 Frc consts  --      8.0991                 8.2217                 8.1754
 IR Inten    --     96.2793                 0.7489               199.9699

 - Thermochemistry -
 -------------------
 Temperature   298.150 Kelvin.  Pressure   1.00000 Atm.
 Atom     1 has atomic number  8 and mass  15.99491

 Molecular mass:   226.10659 amu.
 Principal axes and moments of inertia in atomic units:
                           1         2         3
     Eigenvalues --  2628.407995530.748467043.10526
           X            0.87000   0.42306  -0.25323
           Y            0.41984  -0.36633   0.83038
           Z           -0.25853   0.82875   0.49632
 This molecule is an asymmetric top.
 Rotational symmetry number  1.
 Warning -- assumption of classical behavior for rotation
           may cause significant error
 Rotational temperatures (Kelvin)      0.03295     0.01566     0.01230
 Rotational constants (GHZ):           0.68663     0.32631     0.25624
 Zero-point vibrational energy     644300.7 (Joules/Mol)
                                  153.99156 (Kcal/Mol)
 Warning -- explicit consideration of  21 degrees of freedom as
           vibrations may cause significant error
 Vibrational temperatures:     32.97    65.96    84.74   109.67   125.02
          (Kelvin)            135.86   192.63   223.03   279.99   308.54
                              334.48   391.41   427.22   436.63   497.84
                              522.01   552.60   634.20   801.13   829.44
                              872.94   912.26   951.42   972.15  1051.84
                             1066.85  1099.17  1108.88  1134.46  1185.52
                             1212.92  1223.19  1246.28  1344.97  1352.79
                             1368.54  1407.67  1419.70  1451.49  1456.74
                             1522.77  1567.84  1591.45  1605.82  1640.67
                             1647.99  1759.69  1789.23  1804.15  1816.48
                             1856.55  1861.07  1882.52  1945.63  1972.28
                             1991.55  1993.82  2004.19  2006.68  2053.32
                             2115.48  2121.37  2126.69  2163.52  2164.37
                             2208.90  2301.77  2395.73  2417.73  2604.78
                             4358.19  4360.99  4375.44  4398.24  4419.15
                             4453.71  4457.63  4638.58  4640.86  4666.14
                             5028.01  5136.27  5139.26  5151.31

 Zero-point correction=                           0.245401 (Hartree/Particle)
 Thermal correction to Energy=                    0.260853
 Thermal correction to Enthalpy=                  0.261797
 Thermal correction to Gibbs Free Energy=         0.200800
 Sum of electronic and zero-point Energies=           -796.128168
 Sum of electronic and thermal Energies=              -796.112716
 Sum of electronic and thermal Enthalpies=            -796.111772
 Sum of electronic and thermal Free Energies=         -796.172770

                     E (Thermal)             CV                S
                      KCal/Mol        Cal/Mol-Kelvin    Cal/Mol-Kelvin
 Total                  163.688             57.075            128.380
 Electronic               0.000              0.000              0.000
 Translational            0.889              2.981             42.150
 Rotational               0.889              2.981             32.993
 Vibrational            161.910             51.114             53.238
 Vibration     1          0.593              1.985              6.364
 Vibration     2          0.595              1.979              4.989
 Vibration     3          0.596              1.974              4.494
 Vibration     4          0.599              1.965              3.986
 Vibration     5          0.601              1.958              3.729
 Vibration     6          0.603              1.953              3.566
 Vibration     7          0.613              1.920              2.889
 Vibration     8          0.620              1.897              2.610
 Vibration     9          0.635              1.847              2.184
 Vibration    10          0.644              1.819              2.006
 Vibration    11          0.653              1.791              1.860
 Vibration    12          0.675              1.725              1.583
 Vibration    13          0.691              1.679              1.434
 Vibration    14          0.695              1.667              1.398
 Vibration    15          0.724              1.583              1.184
 Vibration    16          0.737              1.549              1.110
 Vibration    17          0.753              1.504              1.023
 Vibration    18          0.801              1.381              0.824
 Vibration    19          0.912              1.125              0.530
 Vibration    20          0.933              1.082              0.492
 Vibration    21          0.965              1.018              0.438

 Optimization completed.
    -- Stationary point found.
 Normal termination of Gaussian 09 at Thu Jul 29 06:06:28 2021.
