 Gaussian 09, Revision D.01,
 Gaussian 09:  ES64L-G09RevD.01 24-Apr-2013

 ----------------------------------------------------------------------
 # B3LYP/6-311G(2df,2pd) guess=read geom=checkpoint opt=readfc freq=nor
 aman nosymm integral(ultrafinegrid)
 ----------------------------------------------------------------------

 ------------------------------------------------------------
 Candidate Structure: Conf:273 OPT and FREQ calc in gas phase
 ------------------------------------------------------------
 Structure from the checkpoint file:  "conf-273.chk"
 Charge =  0 Multiplicity = 1

 SCF Done:  E(RB3LYP) =  -796.362455393     A.U. after   11 cycles
 SCF Done:  E(RB3LYP) =  -796.363143728     A.U. after   11 cycles
 SCF Done:  E(RB3LYP) =  -796.363151892     A.U. after   10 cycles
 SCF Done:  E(RB3LYP) =  -796.363152080     A.U. after    7 cycles
 SCF Done:  E(RB3LYP) =  -796.363152099     A.U. after    7 cycles
 SCF Done:  E(RB3LYP) =  -796.363152101     A.U. after    6 cycles
 Optimization completed.
    -- Stationary point found.
 Normal termination of Gaussian 09 at Thu Jul 29 02:52:31 2021.

 ----------------------------------------------------------------------
 #N Geom=AllCheck Guess=TCheck SCRF=Check GenChk RB3LYP/6-311G(2df,2pd)
  Freq
 ----------------------------------------------------------------------

 Structure from the checkpoint file:  "conf-273.chk"
 ------------------------------------------------------------
 Candidate Structure: Conf:273 OPT and FREQ calc in gas phase
 ------------------------------------------------------------
 Charge =  0 Multiplicity = 1

                          Input orientation:
 ---------------------------------------------------------------------
 Center     Atomic      Atomic             Coordinates (Angstroms)
 Number     Number       Type             X           Y           Z
 ---------------------------------------------------------------------
      1          8           0        0.685889   -1.687978    1.610150
      2          6           0        0.901498   -0.658468    0.967338
      3          7           0        0.319168   -0.442179   -0.233306
      4          6           0       -0.786037   -1.257032   -0.751349
      5          6           0       -0.291435   -2.625846   -1.284685
      6          8           0        0.338623   -3.383560   -0.393617
      7          8           0       -0.486315   -2.983600   -2.415112
      8          6           0       -1.535320   -0.507757   -1.848042
      9          6           0       -2.169216    0.770055   -1.399298
     10          6           0       -2.366503    1.360005   -0.177003
     11          7           0       -3.048850    2.547834   -0.303692
     12          6           0       -3.267947    2.685198   -1.584848
     13          7           0       -2.754169    1.640806   -2.295809
     14          6           0        1.813498    0.430598    1.488101
     15          6           0        2.989926   -0.122937    2.290148
     16          7           0        3.736759    0.977694    2.897981
     17          1           0        0.480392    0.441942   -0.686897
     18          1           0       -1.458881   -1.469544    0.085487
     19          1           0        0.420500   -2.908186    0.470909
     20          1           0       -2.284299   -1.192390   -2.249049
     21          1           0       -0.845139   -0.329035   -2.678403
     22          1           0       -2.060371    0.996355    0.789102
     23          1           0       -3.782207    3.506174   -2.056629
     24          1           0       -2.808579    1.513165   -3.291853
     25          1           0        2.167030    1.055817    0.664366
     26          1           0        1.223613    1.079368    2.141210
     27          1           0        2.594355   -0.754720    3.083508
     28          1           0        3.593558   -0.773535    1.642978
     29          1           0        4.399623    0.620264    3.574300
     30          1           0        4.280799    1.471795    2.200052
 ---------------------------------------------------------------------

 SCF Done:  E(RB3LYP) =  -796.363152101     A.U. after    1 cycles

 Alpha  occ. eigenvalues --  -19.14720 -19.11853 -19.10209 -14.37728 -14.36902
 Alpha  occ. eigenvalues --  -14.29850 -14.29624 -10.29947 -10.29855 -10.24729
 Alpha  occ. eigenvalues --  -10.23015 -10.21729 -10.20671 -10.20528 -10.19547
 Alpha  occ. eigenvalues --  -10.18907  -1.10001  -1.06989  -1.02808  -1.01689
 Alpha  occ. eigenvalues --   -0.95921  -0.89564  -0.88376  -0.82364  -0.77909
 Alpha  occ. eigenvalues --   -0.74762  -0.68577  -0.64941  -0.62751  -0.61602
 Alpha  occ. eigenvalues --   -0.60648  -0.59855  -0.56553  -0.53753  -0.53296
 Alpha  occ. eigenvalues --   -0.51925  -0.50459  -0.47673  -0.46645  -0.46279
 Alpha  occ. eigenvalues --   -0.45082  -0.44690  -0.43897  -0.43244  -0.43042
 Alpha  occ. eigenvalues --   -0.42088  -0.41922  -0.40388  -0.39599  -0.37827
 Alpha  occ. eigenvalues --   -0.37512  -0.36393  -0.31660  -0.31091  -0.29642
 Alpha  occ. eigenvalues --   -0.29181  -0.28029  -0.26817  -0.25442  -0.24064
 Alpha virt. eigenvalues --   -0.01549   0.00227   0.00739   0.01667   0.02232
 Alpha virt. eigenvalues --    0.03005   0.04315   0.05005   0.05777   0.07505
 Alpha virt. eigenvalues --    0.07638   0.07862   0.09857   0.10428   0.11582

 Mulliken charges:
               1
     1  O   -0.468778
     2  C    0.472901
     3  N   -0.288739
     4  C   -0.044103
     5  C    0.545144
     6  O   -0.308703
     7  O   -0.362917
     8  C    0.001854
     9  C    0.102775
    10  C    0.085451
    11  N   -0.353404
    12  C    0.231280
    13  N   -0.234688
    14  C   -0.038756
    15  C    0.199119
    16  N   -0.325045
    17  H    0.112574
    18  H    0.037332
    19  H    0.209775
    20  H    0.027145
    21  H    0.026349
    22  H    0.022181
    23  H    0.020578
    24  H    0.106208
    25  H   -0.000958
    26  H    0.031871
    27  H    0.022347
    28  H   -0.010145
    29  H    0.087906
    30  H    0.093447
 Sum of Mulliken charges =   0.00000

 Dipole moment (field-independent basis, Debye):
    X=              1.6136    Y=              3.6405    Z=             -2.0552  Tot=              4.4811
 Quadrupole moment (field-independent basis, Debye-Ang):
   XX=            -82.9942   YY=           -116.3255   ZZ=            -90.7492
   XY=              4.5649   XZ=             13.5102   YZ=            -17.4064

  Exact polarizability: 126.378 -15.369 140.015  27.992   2.936 140.519
 Approx polarizability: 167.114 -16.602 203.730  19.401   0.014 231.032

                      1                      2                      3
                      A                      A                      A
 Frequencies --     21.7298                31.4184                45.5236
 Red. masses --      3.5191                 3.3352                 3.1634
 Frc consts  --      0.0010                 0.0019                 0.0039
 IR Inten    --      0.6742                 2.1839                 4.4936

                      4                      5                      6
                      A                      A                      A
 Frequencies --     63.4174                70.1743                85.8408
 Red. masses --      5.9051                 4.0147                 4.0993
 Frc consts  --      0.0140                 0.0116                 0.0178
 IR Inten    --      5.7649                 9.1193                 0.2426

                      7                      8                      9
                      A                      A                      A
 Frequencies --     89.0280               155.7398               170.4309
 Red. masses --      6.2706                 4.5980                 4.0781
 Frc consts  --      0.0293                 0.0657                 0.0698
 IR Inten    --      1.0702                11.9184                 3.8165

                     10                     11                     12
                      A                      A                      A
 Frequencies --    216.7199               225.7307               236.2883
 Red. masses --      6.7320                 2.1895                 1.9026
 Frc consts  --      0.1863                 0.0657                 0.0626
 IR Inten    --      5.9442                16.3371                14.6638

                     13                     14                     15
                      A                      A                      A
 Frequencies --    261.0429               282.5929               314.7527
 Red. masses --      2.6112                 3.9598                 6.2686
 Frc consts  --      0.1048                 0.1863                 0.3659
 IR Inten    --     16.0052                16.7107                 5.9824

                     16                     17                     18
                      A                      A                      A
 Frequencies --    359.6945               387.9393               438.7868
 Red. masses --      5.8042                 4.6074                 3.0267
 Frc consts  --      0.4424                 0.4085                 0.3433
 IR Inten    --      1.9243                 1.1769                 4.6864

                     19                     20                     21
                      A                      A                      A
 Frequencies --    480.9763               524.9055               543.4563
 Red. masses --      1.2653                 1.4196                 4.3978
 Frc consts  --      0.1725                 0.2305                 0.7653
 IR Inten    --     77.0249                65.2268                18.3983

                     22                     23                     24
                      A                      A                      A
 Frequencies --    624.2897               629.6789               655.7518
 Red. masses --      4.9828                 2.6883                 2.3778
 Frc consts  --      1.1442                 0.6280                 0.6024
 IR Inten    --     13.6740                11.4753                13.8479

                     25                     26                     27
                      A                      A                      A
 Frequencies --    683.8397               728.2771               751.7026
 Red. masses --      3.0850                 4.5136                 3.6857
 Frc consts  --      0.8500                 1.4105                 1.2271
 IR Inten    --      6.7662                 2.5378                12.1840

                     28                     29                     30
                      A                      A                      A
 Frequencies --    776.0369               802.7931               827.1241
 Red. masses --      4.8569                 1.5083                 1.4030
 Frc consts  --      1.7234                 0.5727                 0.5655
 IR Inten    --     24.1013                10.1503                16.1937

                     31                     32                     33
                      A                      A                      A
 Frequencies --    849.1597               851.9252               879.9692
 Red. masses --      1.3987                 1.3464                 2.2909
 Frc consts  --      0.5942                 0.5757                 1.0452
 IR Inten    --     24.8308                82.7819                11.0777

                     34                     35                     36
                      A                      A                      A
 Frequencies --    915.1969               934.7080               946.2376
 Red. masses --      1.2075                 5.2076                 3.4655
 Frc consts  --      0.5959                 2.6806                 1.8282
 IR Inten    --     77.8729                17.1725                 6.4530

                     37                     38                     39
                      A                      A                      A
 Frequencies --    964.5950               998.2999              1024.3164
 Red. masses --      2.5943                 2.5875                 3.8995
 Frc consts  --      1.4222                 1.5193                 2.4106
 IR Inten    --      5.8142                 2.1858                 8.4763

                     40                     41                     42
                      A                      A                      A
 Frequencies --   1061.9674              1084.4158              1097.5136
 Red. masses --      2.8918                 2.4792                 2.2489
 Frc consts  --      1.9215                 1.7177                 1.5960
 IR Inten    --     20.7496                 9.7413                22.4629

                     43                     44                     45
                      A                      A                      A
 Frequencies --   1109.1161              1112.9143              1146.6504
 Red. masses --      1.7543                 2.6272                 2.4881
 Frc consts  --      1.2715                 1.9172                 1.9274
 IR Inten    --     12.9276                 8.2281                12.6938

                     46                     47                     48
                      A                      A                      A
 Frequencies --   1160.6243              1202.4444              1221.7944
 Red. masses --      1.3474                 1.7102                 2.2835
 Frc consts  --      1.0694                 1.4569                 2.0084
 IR Inten    --      2.5947                19.6536                19.0972

                     49                     50                     51
                      A                      A                      A
 Frequencies --   1237.2494              1266.4048              1283.4325
 Red. masses --      1.6439                 1.5217                 1.4881
 Frc consts  --      1.4826                 1.4378                 1.4442
 IR Inten    --     25.0438                 8.7827                 1.8879

                     52                     53                     54
                      A                      A                      A
 Frequencies --   1285.4991              1316.6561              1341.3596
 Red. masses --      1.4838                 1.7343                 1.1204
 Frc consts  --      1.4446                 1.7714                 1.1877
 IR Inten    --     49.9779                16.9956                 4.9913

                     55                     56                     57
                      A                      A                      A
 Frequencies --   1354.5428              1369.5789              1382.9418
 Red. masses --      1.8131                 1.5064                 1.5126
 Frc consts  --      1.9600                 1.6648                 1.7045
 IR Inten    --      2.0308                 8.9507                10.7541

                     58                     59                     60
                      A                      A                      A
 Frequencies --   1418.6176              1425.7389              1427.8090
 Red. masses --      2.2739                 2.7459                 1.4838
 Frc consts  --      2.6962                 3.2886                 1.7822
 IR Inten    --     10.1962                16.3543                25.6225

                     61                     62                     63
                      A                      A                      A
 Frequencies --   1466.1096              1466.8899              1484.2564
 Red. masses --      1.3365                 1.0933                 1.1514
 Frc consts  --      1.6926                 1.3861                 1.4945
 IR Inten    --    238.4206                10.5057                25.6735

                     64                     65                     66
                      A                      A                      A
 Frequencies --   1504.4478              1518.9546              1535.8131
 Red. masses --      3.4468                 1.0841                 2.1598
 Frc consts  --      4.5964                 1.4737                 3.0016
 IR Inten    --     14.6156                 1.8539               339.2907

                     67                     68                     69
                      A                      A                      A
 Frequencies --   1607.0040              1666.7838              1694.7055
 Red. masses --      4.1577                 1.0946                 7.1895
 Frc consts  --      6.3262                 1.7917                12.1656
 IR Inten    --     10.1799                18.6637               215.8059

                     70                     71                     72
                      A                      A                      A
 Frequencies --   1836.2403              2959.8795              3016.5699
 Red. masses --      8.8140                 1.0742                 1.0774
 Frc consts  --     17.5098                 5.5449                 5.7766
 IR Inten    --    338.5455                59.7193                 4.5403

                     73                     74                     75
                      A                      A                      A
 Frequencies --   3029.1737              3029.6522              3063.1761
 Red. masses --      1.0622                 1.0712                 1.0993
 Frc consts  --      5.7425                 5.7931                 6.0772
 IR Inten    --     11.4917                19.2560                 7.2138

                     76                     77                     78
                      A                      A                      A
 Frequencies --   3067.5393              3097.1668              3240.2487
 Red. masses --      1.0919                 1.0906                 1.0942
 Frc consts  --      6.0534                 6.1637                 6.7686
 IR Inten    --      5.6545                14.7358                 7.9488

                     79                     80                     81
                      A                      A                      A
 Frequencies --   3243.9931              3278.6540              3494.5521
 Red. masses --      1.0989                 1.0734                 1.0504
 Frc consts  --      6.8137                 6.7981                 7.5576
 IR Inten    --      1.1751               702.6731                 0.3504

                     82                     83                     84
                      A                      A                      A
 Frequencies --   3569.4905              3621.2200              3646.8639
 Red. masses --      1.0918                 1.0778                 1.0810
 Frc consts  --      8.1960                 8.3275                 8.4706
 IR Inten    --      0.7216                36.7478                50.0691

 - Thermochemistry -
 -------------------
 Temperature   298.150 Kelvin.  Pressure   1.00000 Atm.
 Atom     1 has atomic number  8 and mass  15.99491

 Molecular mass:   226.10659 amu.
 Principal axes and moments of inertia in atomic units:
                           1         2         3
     Eigenvalues --  3034.492485612.603588089.84400
           X            0.79377   0.04181  -0.60677
           Y           -0.28768   0.90479  -0.31400
           Z            0.53587   0.42380   0.73023
 This molecule is an asymmetric top.
 Rotational symmetry number  1.
 Warning -- assumption of classical behavior for rotation
           may cause significant error
 Rotational temperatures (Kelvin)      0.02854     0.01543     0.01071
 Rotational constants (GHZ):           0.59474     0.32155     0.22309
 Zero-point vibrational energy     641777.1 (Joules/Mol)
                                  153.38840 (Kcal/Mol)
 Warning -- explicit consideration of  21 degrees of freedom as
           vibrations may cause significant error
 Vibrational temperatures:     31.26    45.20    65.50    91.24   100.97
          (Kelvin)            123.51   128.09   224.07   245.21   311.81
                              324.78   339.97   375.58   406.59   452.86
                              517.52   558.16   631.32   692.02   755.22
                              781.91   898.21   905.97   943.48   983.89
                             1047.83  1081.53  1116.54  1155.04  1190.05
                             1221.75  1225.73  1266.08  1316.76  1344.83
                             1361.42  1387.84  1436.33  1473.76  1527.93
                             1560.23  1579.08  1595.77  1601.23  1649.77
                             1669.88  1730.05  1757.89  1780.12  1822.07
                             1846.57  1849.54  1894.37  1929.91  1948.88
                             1970.52  1989.74  2041.07  2051.32  2054.30
                             2109.40  2110.52  2135.51  2164.56  2185.43
                             2209.69  2312.12  2398.13  2438.30  2641.94
                             4258.60  4340.17  4358.30  4358.99  4407.22
                             4413.50  4456.13  4661.99  4667.38  4717.25
                             5027.87  5135.69  5210.12  5247.02

 Zero-point correction=                           0.244440 (Hartree/Particle)
 Thermal correction to Energy=                    0.260482
 Thermal correction to Enthalpy=                  0.261427
 Thermal correction to Gibbs Free Energy=         0.198071
 Sum of electronic and zero-point Energies=           -796.118712
 Sum of electronic and thermal Energies=              -796.102670
 Sum of electronic and thermal Enthalpies=            -796.101725
 Sum of electronic and thermal Free Energies=         -796.165081

                     E (Thermal)             CV                S
                      KCal/Mol        Cal/Mol-Kelvin    Cal/Mol-Kelvin
 Total                  163.455             57.974            133.344
 Electronic               0.000              0.000              0.000
 Translational            0.889              2.981             42.150
 Rotational               0.889              2.981             33.288
 Vibrational            161.678             52.012             57.906
 Vibration     1          0.593              1.985              6.470
 Vibration     2          0.594              1.983              5.738
 Vibration     3          0.595              1.979              5.003
 Vibration     4          0.597              1.972              4.348
 Vibration     5          0.598              1.968              4.148
 Vibration     6          0.601              1.959              3.753
 Vibration     7          0.602              1.957              3.681
 Vibration     8          0.620              1.896              2.601
 Vibration     9          0.626              1.879              2.431
 Vibration    10          0.646              1.816              1.986
 Vibration    11          0.650              1.802              1.913
 Vibration    12          0.655              1.785              1.831
 Vibration    13          0.669              1.744              1.655
 Vibration    14          0.682              1.706              1.518
 Vibration    15          0.702              1.645              1.337
 Vibration    16          0.734              1.555              1.123
 Vibration    17          0.756              1.496              1.008
 Vibration    18          0.799              1.386              0.830
 Vibration    19          0.837              1.292              0.707
 Vibration    20          0.880              1.195              0.599
 Vibration    21          0.899              1.154              0.558

 Optimization completed.
    -- Stationary point found.
 Normal termination of Gaussian 09 at Thu Jul 29 06:20:08 2021.
