 Gaussian 09, Revision D.01,
 Gaussian 09:  ES64L-G09RevD.01 24-Apr-2013

 ----------------------------------------------------------------------
 # B3LYP/6-311G(2df,2pd) guess=read geom=checkpoint opt=readfc freq=nor
 aman nosymm integral(ultrafinegrid)
 ----------------------------------------------------------------------

 ------------------------------------------------------------
 Candidate Structure: Conf:455 OPT and FREQ calc in gas phase
 ------------------------------------------------------------
 Structure from the checkpoint file:  "conf-455.chk"
 Charge =  0 Multiplicity = 1

 SCF Done:  E(RB3LYP) =  -796.351504865     A.U. after   11 cycles
 SCF Done:  E(RB3LYP) =  -796.352202990     A.U. after   11 cycles
 SCF Done:  E(RB3LYP) =  -796.352222218     A.U. after   11 cycles
 SCF Done:  E(RB3LYP) =  -796.352228007     A.U. after   11 cycles
 SCF Done:  E(RB3LYP) =  -796.352228610     A.U. after    9 cycles
 SCF Done:  E(RB3LYP) =  -796.352228741     A.U. after    8 cycles
 SCF Done:  E(RB3LYP) =  -796.352228748     A.U. after    6 cycles
 Optimization completed.
    -- Stationary point found.
 Normal termination of Gaussian 09 at Thu Jul 29 03:17:38 2021.

 ----------------------------------------------------------------------
 #N Geom=AllCheck Guess=TCheck SCRF=Check GenChk RB3LYP/6-311G(2df,2pd)
  Freq
 ----------------------------------------------------------------------

 Structure from the checkpoint file:  "conf-455.chk"
 ------------------------------------------------------------
 Candidate Structure: Conf:455 OPT and FREQ calc in gas phase
 ------------------------------------------------------------
 Charge =  0 Multiplicity = 1

                          Input orientation:
 ---------------------------------------------------------------------
 Center     Atomic      Atomic             Coordinates (Angstroms)
 Number     Number       Type             X           Y           Z
 ---------------------------------------------------------------------
      1          8           0        0.358793   -0.539796   -1.216374
      2          6           0        1.007529   -0.321851   -0.201274
      3          7           0        0.531973   -0.585832    1.048453
      4          6           0       -0.577583   -1.476294    1.338371
      5          6           0       -0.109918   -2.943420    1.193344
      6          8           0       -1.064752   -3.890349    1.329848
      7          8           0        1.031016   -3.253822    1.023106
      8          6           0       -1.892156   -1.178411    0.564724
      9          6           0       -2.308060    0.253344    0.552041
     10          6           0       -3.143612    0.985659    1.356056
     11          7           0       -3.227337    2.284873    0.921266
     12          6           0       -2.455036    2.342085   -0.137643
     13          7           0       -1.878234    1.141197   -0.406938
     14          6           0        2.389687    0.303144   -0.258853
     15          6           0        2.471911    1.456888   -1.274123
     16          7           0        3.794985    2.036616   -1.466187
     17          1           0        1.199078   -0.490817    1.795340
     18          1           0       -0.798352   -1.336027    2.400069
     19          1           0       -1.940133   -3.497885    1.414911
     20          1           0       -2.696400   -1.739735    1.048403
     21          1           0       -1.798814   -1.548899   -0.453657
     22          1           0       -3.696749    0.644138    2.216191
     23          1           0       -2.281640    3.214930   -0.745106
     24          1           0       -1.221094    0.905535   -1.136643
     25          1           0        2.710459    0.645663    0.727803
     26          1           0        3.076608   -0.493033   -0.560412
     27          1           0        2.104684    1.097137   -2.234171
     28          1           0        1.794485    2.255569   -0.962632
     29          1           0        4.171251    2.387679   -0.593607
     30          1           0        4.447319    1.341614   -1.809351
 ---------------------------------------------------------------------

 SCF Done:  E(RB3LYP) =  -796.352228748     A.U. after    1 cycles

 Alpha  occ. eigenvalues --  -19.18508 -19.12239 -19.10620 -14.36052 -14.36029
 Alpha  occ. eigenvalues --  -14.29674 -14.28554 -10.31780 -10.29154 -10.25677
 Alpha  occ. eigenvalues --  -10.21827 -10.21257 -10.20537 -10.20373 -10.19057
 Alpha  occ. eigenvalues --  -10.17957  -1.12415  -1.06184  -1.04337  -1.01557
 Alpha  occ. eigenvalues --   -0.95372  -0.89393  -0.87113  -0.82131  -0.77317
 Alpha  occ. eigenvalues --   -0.74353  -0.68894  -0.65137  -0.63335  -0.61399
 Alpha  occ. eigenvalues --   -0.60344  -0.59271  -0.56515  -0.53881  -0.53758
 Alpha  occ. eigenvalues --   -0.51743  -0.49512  -0.47679  -0.46850  -0.46140
 Alpha  occ. eigenvalues --   -0.45696  -0.44306  -0.43920  -0.43010  -0.42404
 Alpha  occ. eigenvalues --   -0.41855  -0.41082  -0.40886  -0.40067  -0.39379
 Alpha  occ. eigenvalues --   -0.38157  -0.35709  -0.34238  -0.30355  -0.29177
 Alpha  occ. eigenvalues --   -0.28430  -0.28041  -0.26904  -0.24878  -0.23129
 Alpha virt. eigenvalues --   -0.01650  -0.00871  -0.00274   0.01825   0.02299
 Alpha virt. eigenvalues --    0.03153   0.04507   0.05666   0.06152   0.06880
 Alpha virt. eigenvalues --    0.07804   0.09262   0.09404   0.10332   0.11504

 Mulliken charges:
               1
     1  O   -0.459623
     2  C    0.444629
     3  N   -0.255621
     4  C    0.047858
     5  C    0.480295
     6  O   -0.304233
     7  O   -0.340441
     8  C   -0.024655
     9  C    0.075560
    10  C    0.098831
    11  N   -0.354173
    12  C    0.229961
    13  N   -0.222434
    14  C   -0.026191
    15  C    0.162214
    16  N   -0.332862
    17  H    0.093046
    18  H    0.034594
    19  H    0.208263
    20  H    0.000401
    21  H    0.051373
    22  H    0.001129
    23  H    0.017534
    24  H    0.126241
    25  H   -0.012117
    26  H    0.025884
    27  H    0.026376
    28  H    0.013808
    29  H    0.094051
    30  H    0.100301
 Sum of Mulliken charges =   0.00000

 Dipole moment (field-independent basis, Debye):
    X=              1.3022    Y=             -0.5519    Z=              1.8874  Tot=              2.3585
 Quadrupole moment (field-independent basis, Debye-Ang):
   XX=            -93.9942   YY=           -112.7684   ZZ=            -91.8287
   XY=             16.7232   XZ=              3.7362   YZ=             -3.8721

  Exact polarizability: 145.097  -2.189 144.207 -17.780 -14.780 115.560
 Approx polarizability: 203.799  -6.758 204.721 -21.857  -9.018 197.891

                      1                      2                      3
                      A                      A                      A
 Frequencies --     16.6443                23.0725                47.1053
 Red. masses --      5.3913                 4.6525                 3.5331
 Frc consts  --      0.0009                 0.0015                 0.0046
 IR Inten    --      1.1794                 2.1672                 9.4626

                      4                      5                      6
                      A                      A                      A
 Frequencies --     64.1308                74.8558                89.7057
 Red. masses --      3.1022                 4.8008                 6.5859
 Frc consts  --      0.0075                 0.0158                 0.0312
 IR Inten    --      3.3285                 6.2991                 1.2466

                      7                      8                      9
                      A                      A                      A
 Frequencies --     89.7890               121.4112               155.6396
 Red. masses --      2.7319                 5.7995                 4.6421
 Frc consts  --      0.0130                 0.0504                 0.0663
 IR Inten    --      1.8283                11.3547                 9.0223

                     10                     11                     12
                      A                      A                      A
 Frequencies --    194.9443               216.1136               283.7482
 Red. masses --      5.8587                 5.5398                 6.1984
 Frc consts  --      0.1312                 0.1524                 0.2940
 IR Inten    --      2.9593                 9.9975                 3.7596

                     13                     14                     15
                      A                      A                      A
 Frequencies --    291.6758               327.8931               339.2488
 Red. masses --      1.1003                 3.8907                 5.3221
 Frc consts  --      0.0551                 0.2465                 0.3609
 IR Inten    --     35.5597                 2.0982                19.2460

                     16                     17                     18
                      A                      A                      A
 Frequencies --    342.7185               394.5443               408.1150
 Red. masses --      2.4213                 3.5382                 2.8340
 Frc consts  --      0.1676                 0.3245                 0.2781
 IR Inten    --      4.7024                15.9403                18.4010

                     19                     20                     21
                      A                      A                      A
 Frequencies --    471.4782               532.0008               545.0239
 Red. masses --      1.2980                 4.2800                 1.3945
 Frc consts  --      0.1700                 0.7137                 0.2441
 IR Inten    --     53.9654                 7.2672                56.1054

                     22                     23                     24
                      A                      A                      A
 Frequencies --    603.2959               634.0095               660.9870
 Red. masses --      3.7012                 2.8180                 3.3458
 Frc consts  --      0.7937                 0.6674                 0.8613
 IR Inten    --      6.6911                33.1695                18.6886

                     25                     26                     27
                      A                      A                      A
 Frequencies --    680.0457               708.4163               733.1498
 Red. masses --      3.9940                 3.8954                 1.2501
 Frc consts  --      1.0883                 1.1518                 0.3959
 IR Inten    --     32.6471                 2.3025                57.0510

                     28                     29                     30
                      A                      A                      A
 Frequencies --    759.3374               762.7230               787.2626
 Red. masses --      5.3205                 1.5342                 2.1827
 Frc consts  --      1.8075                 0.5259                 0.7970
 IR Inten    --      8.6038                 3.7429                 2.8784

                     31                     32                     33
                      A                      A                      A
 Frequencies --    830.9481               833.7948               845.2357
 Red. masses --      1.5283                 1.5136                 1.8519
 Frc consts  --      0.6217                 0.6200                 0.7795
 IR Inten    --     82.2561               124.9784                53.9090

                     34                     35                     36
                      A                      A                      A
 Frequencies --    868.9072               919.9698               926.0022
 Red. masses --      2.0953                 3.0229                 4.2314
 Frc consts  --      0.9320                 1.5074                 2.1378
 IR Inten    --      6.9144                 5.8449                 6.8638

                     37                     38                     39
                      A                      A                      A
 Frequencies --    943.7298               979.2395              1026.3067
 Red. masses --      5.4885                 1.4061                 4.3368
 Frc consts  --      2.8800                 0.7944                 2.6914
 IR Inten    --     14.5013                 0.8027                30.4856

                     40                     41                     42
                      A                      A                      A
 Frequencies --   1029.5816              1041.6956              1093.9634
 Red. masses --      3.9720                 2.9959                 2.7207
 Frc consts  --      2.4807                 1.9154                 1.9184
 IR Inten    --     32.3404                 5.8632                19.4213

                     43                     44                     45
                      A                      A                      A
 Frequencies --   1112.5961              1117.2837              1145.6561
 Red. masses --      2.3286                 1.6459                 2.1339
 Frc consts  --      1.6984                 1.2106                 1.6502
 IR Inten    --      4.4316                33.0638                 7.8263

                     46                     47                     48
                      A                      A                      A
 Frequencies --   1152.7924              1171.1165              1208.0841
 Red. masses --      1.7866                 2.1248                 1.4776
 Frc consts  --      1.3989                 1.7170                 1.2706
 IR Inten    --     12.9375                 5.6813                 6.4904

                     49                     50                     51
                      A                      A                      A
 Frequencies --   1248.0786              1263.8219              1278.8295
 Red. masses --      1.8682                 2.1525                 1.4746
 Frc consts  --      1.7146                 2.0256                 1.4209
 IR Inten    --    171.0327                19.3836                24.9985

                     52                     53                     54
                      A                      A                      A
 Frequencies --   1295.3693              1297.6586              1308.5792
 Red. masses --      1.3530                 1.5882                 1.4917
 Frc consts  --      1.3376                 1.5758                 1.5050
 IR Inten    --     73.0319               213.9492                88.3167

                     55                     56                     57
                      A                      A                      A
 Frequencies --   1351.8224              1366.3679              1387.9241
 Red. masses --      1.4479                 1.4184                 1.3306
 Frc consts  --      1.5590                 1.5603                 1.5102
 IR Inten    --     11.7669                14.5091                12.6149

                     58                     59                     60
                      A                      A                      A
 Frequencies --   1388.6397              1394.8636              1400.1145
 Red. masses --      1.2950                 1.3592                 2.5808
 Frc consts  --      1.4713                 1.5580                 2.9808
 IR Inten    --      5.5530                32.4535                22.0353

                     61                     62                     63
                      A                      A                      A
 Frequencies --   1435.4928              1466.5511              1473.3495
 Red. masses --      2.9957                 1.1004                 1.1275
 Frc consts  --      3.6371                 1.3944                 1.4421
 IR Inten    --     22.8984                 6.7118                16.5688

                     64                     65                     66
                      A                      A                      A
 Frequencies --   1500.3952              1505.4064              1551.4883
 Red. masses --      3.3319                 1.0896                 1.7500
 Frc consts  --      4.4194                 1.4549                 2.4819
 IR Inten    --     24.6397                 2.6011               181.5227

                     67                     68                     69
                      A                      A                      A
 Frequencies --   1604.0384              1665.2787              1730.2815
 Red. masses --      4.2585                 1.0903                 7.6760
 Frc consts  --      6.4556                 1.7815                13.5400
 IR Inten    --      7.9266                25.8203               166.6319

                     70                     71                     72
                      A                      A                      A
 Frequencies --   1856.3123              3020.6433              3022.6144
 Red. masses --     10.8302                 1.0715                 1.0594
 Frc consts  --     21.9881                 5.7604                 5.7028
 IR Inten    --    233.8095                34.3969                 4.7293

                     73                     74                     75
                      A                      A                      A
 Frequencies --   3034.6810              3035.0061              3060.9498
 Red. masses --      1.0709                 1.0791                 1.0983
 Frc consts  --      5.8105                 5.8567                 6.0629
 IR Inten    --     35.4566                17.7211                 9.9712

                     76                     77                     78
                      A                      A                      A
 Frequencies --   3097.2334              3109.9850              3225.1850
 Red. masses --      1.0997                 1.0929                 1.0959
 Frc consts  --      6.2153                 6.2277                 6.7160
 IR Inten    --     18.4591                 3.1816                 8.6465

                     79                     80                     81
                      A                      A                      A
 Frequencies --   3242.4640              3490.3897              3566.3693
 Red. masses --      1.0971                 1.0485                 1.0933
 Frc consts  --      6.7958                 7.5258                 8.1933
 IR Inten    --      1.1380                 0.8198                 0.3106

                     82                     83                     84
                      A                      A                      A
 Frequencies --   3584.1542              3628.7995              3809.2488
 Red. masses --      1.0827                 1.0769                 1.0655
 Frc consts  --      8.1947                 8.3554                 9.1089
 IR Inten    --    154.6907                29.1370                52.1840

 - Thermochemistry -
 -------------------
 Temperature   298.150 Kelvin.  Pressure   1.00000 Atm.
 Atom     1 has atomic number  8 and mass  15.99491

 Molecular mass:   226.10659 amu.
 Principal axes and moments of inertia in atomic units:
                           1         2         3
     Eigenvalues --  3549.986364102.656327101.45431
           X            0.90013  -0.33872   0.27391
           Y            0.25676   0.92050   0.29453
           Z           -0.35190  -0.19479   0.91554
 This molecule is an asymmetric top.
 Rotational symmetry number  1.
 Warning -- assumption of classical behavior for rotation
           may cause significant error
 Rotational temperatures (Kelvin)      0.02440     0.02111     0.01220
 Rotational constants (GHZ):           0.50838     0.43990     0.25414
 Zero-point vibrational energy     641822.7 (Joules/Mol)
                                  153.39931 (Kcal/Mol)
 Warning -- explicit consideration of  22 degrees of freedom as
           vibrations may cause significant error
 Vibrational temperatures:     23.95    33.20    67.77    92.27   107.70
          (Kelvin)            129.07   129.19   174.68   223.93   280.48
                              310.94   408.25   419.66   471.76   488.10
                              493.09   567.66   587.19   678.35   765.43
                              784.17   868.01   912.20   951.01   978.43
                             1019.25  1054.84  1092.52  1097.39  1132.69
                             1195.55  1199.64  1216.10  1250.16  1323.63
                             1332.31  1357.81  1408.91  1476.62  1481.34
                             1498.77  1573.97  1600.78  1607.52  1648.34
                             1658.61  1684.97  1738.16  1795.70  1818.36
                             1839.95  1863.75  1867.04  1882.75  1944.97
                             1965.90  1996.91  1997.94  2006.90  2014.45
                             2065.35  2110.04  2119.82  2158.73  2165.94
                             2232.24  2307.85  2395.96  2489.49  2670.82
                             4346.03  4348.86  4366.22  4366.69  4404.02
                             4456.22  4474.57  4640.32  4665.18  5021.89
                             5131.20  5156.79  5221.03  5480.65

 Zero-point correction=                           0.244457 (Hartree/Particle)
 Thermal correction to Energy=                    0.260599
 Thermal correction to Enthalpy=                  0.261543
 Thermal correction to Gibbs Free Energy=         0.197694
 Sum of electronic and zero-point Energies=           -796.107771
 Sum of electronic and thermal Energies=              -796.091630
 Sum of electronic and thermal Enthalpies=            -796.090686
 Sum of electronic and thermal Free Energies=         -796.154535

                     E (Thermal)             CV                S
                      KCal/Mol        Cal/Mol-Kelvin    Cal/Mol-Kelvin
 Total                  163.528             58.573            134.382
 Electronic               0.000              0.000              0.000
 Translational            0.889              2.981             42.150
 Rotational               0.889              2.981             33.003
 Vibrational            161.751             52.612             59.230
 Vibration     1          0.593              1.986              6.999
 Vibration     2          0.593              1.985              6.350
 Vibration     3          0.595              1.979              4.935
 Vibration     4          0.597              1.971              4.326
 Vibration     5          0.599              1.966              4.021
 Vibration     6          0.602              1.956              3.666
 Vibration     7          0.602              1.956              3.665
 Vibration     8          0.609              1.931              3.078
 Vibration     9          0.620              1.896              2.602
 Vibration    10          0.636              1.847              2.180
 Vibration    11          0.645              1.816              1.991
 Vibration    12          0.682              1.704              1.511
 Vibration    13          0.687              1.689              1.464
 Vibration    14          0.711              1.620              1.270
 Vibration    15          0.719              1.597              1.216
 Vibration    16          0.722              1.590              1.199
 Vibration    17          0.762              1.482              0.983
 Vibration    18          0.773              1.453              0.933
 Vibration    19          0.828              1.313              0.733
 Vibration    20          0.887              1.179              0.583
 Vibration    21          0.900              1.151              0.555
 Vibration    22          0.962              1.025              0.444

 Optimization completed.
    -- Stationary point found.
 Normal termination of Gaussian 09 at Thu Jul 29 06:54:23 2021.
