 Gaussian 09, Revision D.01,
 Gaussian 09:  ES64L-G09RevD.01 24-Apr-2013

 ----------------------------------------------------------------------
 # B3LYP/6-311G(2df,2pd) guess=read geom=checkpoint opt=readfc freq=nor
 aman nosymm integral(ultrafinegrid)
 ----------------------------------------------------------------------

 ------------------------------------------------------------
 Candidate Structure: Conf:683 OPT and FREQ calc in gas phase
 ------------------------------------------------------------
 Structure from the checkpoint file:  "conf-683.chk"
 Charge =  0 Multiplicity = 1

 SCF Done:  E(RB3LYP) =  -796.372758375     A.U. after   11 cycles
 SCF Done:  E(RB3LYP) =  -796.373464943     A.U. after   10 cycles
 SCF Done:  E(RB3LYP) =  -796.373468114     A.U. after    9 cycles
 SCF Done:  E(RB3LYP) =  -796.373468156     A.U. after    6 cycles
 Optimization completed.
    -- Stationary point found.
 Normal termination of Gaussian 09 at Thu Jul 29 02:27:12 2021.

 ----------------------------------------------------------------------
 #N Geom=AllCheck Guess=TCheck SCRF=Check GenChk RB3LYP/6-311G(2df,2pd)
  Freq
 ----------------------------------------------------------------------

 Structure from the checkpoint file:  "conf-683.chk"
 ------------------------------------------------------------
 Candidate Structure: Conf:683 OPT and FREQ calc in gas phase
 ------------------------------------------------------------
 Charge =  0 Multiplicity = 1

                          Input orientation:
 ---------------------------------------------------------------------
 Center     Atomic      Atomic             Coordinates (Angstroms)
 Number     Number       Type             X           Y           Z
 ---------------------------------------------------------------------
      1          8           0       -0.561857    0.044211   -2.147421
      2          6           0        0.381442    0.333459   -1.413402
      3          7           0        0.236417    0.621730   -0.101496
      4          6           0       -1.059647    0.787645    0.513432
      5          6           0       -1.091932    2.118804    1.252270
      6          8           0       -2.347168    2.448627    1.616074
      7          8           0       -0.134120    2.798128    1.507260
      8          6           0       -1.461718   -0.350216    1.484396
      9          6           0       -1.467759   -1.725135    0.891486
     10          6           0       -1.398920   -2.953865    1.497088
     11          7           0       -1.520610   -3.964631    0.575754
     12          6           0       -1.655214   -3.356474   -0.577918
     13          7           0       -1.647457   -2.001812   -0.446278
     14          6           0        1.807264    0.353353   -1.950772
     15          6           0        2.744702    1.417002   -1.371826
     16          7           0        3.030593    1.165082    0.047549
     17          1           0        1.078054    0.887459    0.409352
     18          1           0       -1.796548    0.838225   -0.288885
     19          1           0       -2.292198    3.284299    2.101692
     20          1           0       -0.782009   -0.344477    2.339664
     21          1           0       -2.451262   -0.098342    1.873035
     22          1           0       -1.277673   -3.161268    2.547960
     23          1           0       -1.756552   -3.836966   -1.537065
     24          1           0       -1.577032   -1.327215   -1.203533
     25          1           0        2.234083   -0.642000   -1.789511
     26          1           0        1.718619    0.478329   -3.028678
     27          1           0        2.267698    2.396020   -1.440656
     28          1           0        3.647294    1.458570   -1.991809
     29          1           0        3.648807    0.369810    0.156882
     30          1           0        3.484798    1.961636    0.475140
 ---------------------------------------------------------------------

 SCF Done:  E(RB3LYP) =  -796.373468156     A.U. after    1 cycles

 Alpha  occ. eigenvalues --  -19.18565 -19.12860 -19.09425 -14.34232 -14.33844
 Alpha  occ. eigenvalues --  -14.31994 -14.27020 -10.31938 -10.27948 -10.23883
 Alpha  occ. eigenvalues --  -10.21846 -10.20092 -10.19467 -10.19013 -10.18981
 Alpha  occ. eigenvalues --  -10.16171  -1.13021  -1.04918  -1.04052  -0.99815
 Alpha  occ. eigenvalues --   -0.94009  -0.91026  -0.85454  -0.80951  -0.77210
 Alpha  occ. eigenvalues --   -0.73975  -0.67569  -0.65835  -0.62558  -0.59897
 Alpha  occ. eigenvalues --   -0.58876  -0.57470  -0.54710  -0.52696  -0.51837
 Alpha  occ. eigenvalues --   -0.50996  -0.49381  -0.48418  -0.47379  -0.46999
 Alpha  occ. eigenvalues --   -0.45648  -0.44778  -0.43188  -0.42300  -0.41287
 Alpha  occ. eigenvalues --   -0.41002  -0.40296  -0.39594  -0.39261  -0.38542
 Alpha  occ. eigenvalues --   -0.37943  -0.35996  -0.34545  -0.30347  -0.27998
 Alpha  occ. eigenvalues --   -0.27522  -0.26873  -0.26689  -0.25360  -0.21310
 Alpha virt. eigenvalues --   -0.01242   0.00055   0.02155   0.02424   0.03840
 Alpha virt. eigenvalues --    0.05350   0.05692   0.06029   0.06856   0.07601
 Alpha virt. eigenvalues --    0.08528   0.09084   0.10507   0.10992   0.11871

 Mulliken charges:
               1
     1  O   -0.462227
     2  C    0.459254
     3  N   -0.274743
     4  C    0.011744
     5  C    0.527962
     6  O   -0.344485
     7  O   -0.369881
     8  C    0.032303
     9  C    0.090172
    10  C    0.075267
    11  N   -0.357671
    12  C    0.220917
    13  N   -0.242483
    14  C   -0.022505
    15  C    0.111616
    16  N   -0.272390
    17  H    0.111369
    18  H    0.039361
    19  H    0.221950
    20  H    0.015809
    21  H    0.027588
    22  H   -0.004568
    23  H    0.011225
    24  H    0.134132
    25  H    0.020094
    26  H    0.017358
    27  H    0.029350
    28  H    0.000448
    29  H    0.100280
    30  H    0.092755
 Sum of Mulliken charges =   0.00000

 Dipole moment (field-independent basis, Debye):
    X=              3.3560    Y=              4.9442    Z=              0.3297  Tot=              5.9847
 Quadrupole moment (field-independent basis, Debye-Ang):
   XX=            -81.6225   YY=           -109.6092   ZZ=            -91.7903
   XY=             -7.5363   XZ=             -5.4698   YZ=              6.3758

  Exact polarizability: 124.227  10.797 146.999  -8.576   9.881 134.388
 Approx polarizability: 180.331   8.365 208.402   6.754  12.024 214.264

                      1                      2                      3
                      A                      A                      A
 Frequencies --     24.3342                45.4012                53.2214
 Red. masses --      5.0718                10.1212                 3.8284
 Frc consts  --      0.0018                 0.0123                 0.0064
 IR Inten    --      3.9889                 2.2164                 1.9819

                      4                      5                      6
                      A                      A                      A
 Frequencies --     69.1696                84.9563               104.8874
 Red. masses --      4.0398                 3.9466                 5.4083
 Frc consts  --      0.0114                 0.0168                 0.0351
 IR Inten    --      0.8165                 2.0165                 1.2396

                      7                      8                      9
                      A                      A                      A
 Frequencies --    118.4618               138.1688               184.4652
 Red. masses --      3.9351                 6.1424                 6.1612
 Frc consts  --      0.0325                 0.0691                 0.1235
 IR Inten    --      6.6920                11.9229                 1.5795

                     10                     11                     12
                      A                      A                      A
 Frequencies --    201.9903               223.0773               261.8453
 Red. masses --      2.2827                 4.9944                 3.8078
 Frc consts  --      0.0549                 0.1464                 0.1538
 IR Inten    --      2.8695                 9.9556                 0.6989

                     13                     14                     15
                      A                      A                      A
 Frequencies --    297.6437               306.2354               346.2345
 Red. masses --      1.3463                 5.1399                 4.0972
 Frc consts  --      0.0703                 0.2840                 0.2894
 IR Inten    --     11.6816                 3.3149                 0.5807

                     16                     17                     18
                      A                      A                      A
 Frequencies --    352.6080               432.2654               483.4198
 Red. masses --      3.7454                 3.2692                 2.8793
 Frc consts  --      0.2744                 0.3599                 0.3964
 IR Inten    --      5.1866                14.4832                10.2385

                     19                     20                     21
                      A                      A                      A
 Frequencies --    513.7530               588.3960               598.8071
 Red. masses --      3.0020                 2.7601                 1.5307
 Frc consts  --      0.4668                 0.5630                 0.3234
 IR Inten    --     39.4958                12.3086                66.2812

                     22                     23                     24
                      A                      A                      A
 Frequencies --    638.8339               646.8325               680.2188
 Red. masses --      3.6346                 4.5933                 3.3619
 Frc consts  --      0.8740                 1.1323                 0.9165
 IR Inten    --      9.2022                36.9939                32.6762

                     25                     26                     27
                      A                      A                      A
 Frequencies --    692.1380               698.5088               764.2852
 Red. masses --      3.1593                 3.2884                 1.2641
 Frc consts  --      0.8917                 0.9453                 0.4351
 IR Inten    --     38.5102                13.7897                76.4593

                     28                     29                     30
                      A                      A                      A
 Frequencies --    781.8534               798.3445               824.4965
 Red. masses --      3.0053                 1.2131                 1.4119
 Frc consts  --      1.0824                 0.4555                 0.5655
 IR Inten    --     26.1100                50.9532                14.0970

                     31                     32                     33
                      A                      A                      A
 Frequencies --    834.7613               845.6115               877.7890
 Red. masses --      1.4687                 1.3405                 2.8430
 Frc consts  --      0.6030                 0.5647                 1.2906
 IR Inten    --     41.5465                44.1904                 2.2234

                     34                     35                     36
                      A                      A                      A
 Frequencies --    898.7487               913.3927               941.8670
 Red. masses --      2.3073                 2.0422                 5.6837
 Frc consts  --      1.0981                 1.0038                 2.9707
 IR Inten    --     18.8196                28.9703                22.9447

                     37                     38                     39
                      A                      A                      A
 Frequencies --    960.5520               991.4560              1013.1113
 Red. masses --      2.5318                 2.3173                 2.4433
 Frc consts  --      1.3763                 1.3421                 1.4776
 IR Inten    --      2.3778                 2.8117                 8.6432

                     40                     41                     42
                      A                      A                      A
 Frequencies --   1025.0936              1053.1935              1081.6612
 Red. masses --      2.5321                 3.0718                 2.6450
 Frc consts  --      1.5677                 2.0075                 1.8233
 IR Inten    --     28.4421                 9.6992                 6.8050

                     43                     44                     45
                      A                      A                      A
 Frequencies --   1127.9927              1140.4737              1155.4377
 Red. masses --      3.3339                 2.2138                 1.7847
 Frc consts  --      2.4993                 1.6966                 1.4038
 IR Inten    --    113.7867                16.2539                17.5704

                     46                     47                     48
                      A                      A                      A
 Frequencies --   1158.7621              1176.7084              1235.2547
 Red. masses --      1.3870                 2.2360                 1.4446
 Frc consts  --      1.0973                 1.8241                 1.2987
 IR Inten    --     41.0474                96.2003                 6.9808

                     49                     50                     51
                      A                      A                      A
 Frequencies --   1261.8966              1263.3933              1277.1642
 Red. masses --      2.0800                 1.4339                 1.5220
 Frc consts  --      1.9515                 1.3485                 1.4627
 IR Inten    --      5.3892                30.4325                12.7657

                     52                     53                     54
                      A                      A                      A
 Frequencies --   1290.4753              1312.9658              1316.9519
 Red. masses --      1.3516                 1.6841                 1.3555
 Frc consts  --      1.3262                 1.7105                 1.3851
 IR Inten    --      4.8894                12.2244                 2.3637

                     55                     56                     57
                      A                      A                      A
 Frequencies --   1344.8866              1367.0415              1373.7663
 Red. masses --      1.8148                 1.3605                 1.4416
 Frc consts  --      1.9339                 1.4980                 1.6030
 IR Inten    --      3.8800                11.8333                 7.4271

                     58                     59                     60
                      A                      A                      A
 Frequencies --   1394.0303              1398.8781              1422.0945
 Red. masses --      2.4367                 2.4134                 1.4014
 Frc consts  --      2.7899                 2.7825                 1.6698
 IR Inten    --     11.8179                84.7940                17.2863

                     61                     62                     63
                      A                      A                      A
 Frequencies --   1461.7815              1466.6017              1487.5848
 Red. masses --      2.1828                 1.0822                 1.2696
 Frc consts  --      2.7481                 1.3714                 1.6553
 IR Inten    --     35.9177                11.0335                19.2476

                     64                     65                     66
                      A                      A                      A
 Frequencies --   1498.7541              1513.1567              1582.2932
 Red. masses --      2.6059                 1.0850                 1.8735
 Frc consts  --      3.4488                 1.4636                 2.7636
 IR Inten    --     12.9207                 4.0952               269.7166

                     67                     68                     69
                      A                      A                      A
 Frequencies --   1608.2962              1657.9737              1708.1907
 Red. masses --      3.3585                 1.0902                 7.2558
 Frc consts  --      5.1184                 1.7657                12.4741
 IR Inten    --     15.6590                31.0090               289.1100

                     70                     71                     72
                      A                      A                      A
 Frequencies --   1824.7403              2987.2825              3024.1566
 Red. masses --     10.0267                 1.0719                 1.0706
 Frc consts  --     19.6704                 5.6360                 5.7691
 IR Inten    --    250.3712                77.0589                 4.9118

                     73                     74                     75
                      A                      A                      A
 Frequencies --   3029.4467              3056.6225              3065.8436
 Red. masses --      1.0589                 1.0996                 1.0912
 Frc consts  --      5.7258                 6.0527                 6.0429
 IR Inten    --     19.3345                 5.4700                21.1912

                     76                     77                     78
                      A                      A                      A
 Frequencies --   3079.2629              3104.0637              3226.3434
 Red. masses --      1.0861                 1.0921                 1.0955
 Frc consts  --      6.0673                 6.1996                 6.7190
 IR Inten    --     11.2879                 8.4001                10.2621

                     79                     80                     81
                      A                      A                      A
 Frequencies --   3240.4442              3393.0368              3454.5768
 Red. masses --      1.0969                 1.0816                 1.0862
 Frc consts  --      6.7859                 7.3363                 7.6372
 IR Inten    --      1.6567               374.0608               358.2547

                     82                     83                     84
                      A                      A                      A
 Frequencies --   3502.8019              3582.4649              3749.1920
 Red. masses --      1.0500                 1.0931                 1.0641
 Frc consts  --      7.5903                 8.2653                 8.8126
 IR Inten    --      0.3799                 4.7663                74.7367

 - Thermochemistry -
 -------------------
 Temperature   298.150 Kelvin.  Pressure   1.00000 Atm.
 Atom     1 has atomic number  8 and mass  15.99491

 Molecular mass:   226.10659 amu.
 Principal axes and moments of inertia in atomic units:
                           1         2         3
     Eigenvalues --  2955.727064566.680726249.75837
           X            0.52252  -0.61475   0.59081
           Y            0.84587   0.46079  -0.26865
           Z           -0.10709   0.64012   0.76077
 This molecule is an asymmetric top.
 Rotational symmetry number  1.
 Warning -- assumption of classical behavior for rotation
           may cause significant error
 Rotational temperatures (Kelvin)      0.02930     0.01897     0.01386
 Rotational constants (GHZ):           0.61059     0.39520     0.28877
 Zero-point vibrational energy     644279.8 (Joules/Mol)
                                  153.98657 (Kcal/Mol)
 Warning -- explicit consideration of  21 degrees of freedom as
           vibrations may cause significant error
 Vibrational temperatures:     35.01    65.32    76.57    99.52   122.23
          (Kelvin)            150.91   170.44   198.79   265.40   290.62
                              320.96   376.74   428.24   440.60   498.15
                              507.32   621.93   695.53   739.18   846.57
                              861.55   919.14   930.65   978.68   995.83
                             1005.00  1099.63  1124.91  1148.64  1186.27
                             1201.03  1216.64  1262.94  1293.10  1314.17
                             1355.13  1382.02  1426.48  1457.64  1474.88
                             1515.31  1556.27  1622.93  1640.89  1662.42
                             1667.20  1693.02  1777.25  1815.59  1817.74
                             1837.55  1856.70  1889.06  1894.80  1934.99
                             1966.87  1976.54  2005.70  2012.67  2046.07
                             2103.17  2110.11  2140.30  2156.37  2177.09
                             2276.56  2313.98  2385.45  2457.70  2625.39
                             4298.03  4351.08  4358.69  4397.79  4411.06
                             4430.37  4466.05  4641.98  4662.27  4881.82
                             4970.36  5039.74  5154.36  5394.24

 Zero-point correction=                           0.245393 (Hartree/Particle)
 Thermal correction to Energy=                    0.260967
 Thermal correction to Enthalpy=                  0.261911
 Thermal correction to Gibbs Free Energy=         0.200591
 Sum of electronic and zero-point Energies=           -796.128075
 Sum of electronic and thermal Energies=              -796.112501
 Sum of electronic and thermal Enthalpies=            -796.111557
 Sum of electronic and thermal Free Energies=         -796.172877

                     E (Thermal)             CV                S
                      KCal/Mol        Cal/Mol-Kelvin    Cal/Mol-Kelvin
 Total                  163.759             57.307            129.058
 Electronic               0.000              0.000              0.000
 Translational            0.889              2.981             42.150
 Rotational               0.889              2.981             32.800
 Vibrational            161.982             51.346             54.108
 Vibration     1          0.593              1.985              6.245
 Vibration     2          0.595              1.979              5.008
 Vibration     3          0.596              1.976              4.694
 Vibration     4          0.598              1.969              4.177
 Vibration     5          0.601              1.960              3.773
 Vibration     6          0.605              1.945              3.361
 Vibration     7          0.609              1.934              3.125
 Vibration     8          0.614              1.915              2.829
 Vibration     9          0.631              1.861              2.283
 Vibration    10          0.639              1.837              2.115
 Vibration    11          0.649              1.806              1.934
 Vibration    12          0.669              1.743              1.649
 Vibration    13          0.691              1.678              1.430
 Vibration    14          0.697              1.662              1.383
 Vibration    15          0.724              1.583              1.183
 Vibration    16          0.729              1.570              1.155
 Vibration    17          0.793              1.400              0.851
 Vibration    18          0.840              1.287              0.701
 Vibration    19          0.869              1.220              0.625
 Vibration    20          0.946              1.057              0.470
 Vibration    21          0.957              1.034              0.452

 Optimization completed.
    -- Stationary point found.
 Normal termination of Gaussian 09 at Thu Jul 29 05:55:20 2021.
