 Gaussian 09, Revision D.01,
 Gaussian 09:  ES64L-G09RevD.01 24-Apr-2013

 ----------------------------------------------------------------------
 # B3LYP/6-311G(2df,2pd) guess=read geom=checkpoint opt=readfc freq=nor
 aman nosymm integral(ultrafinegrid)
 ----------------------------------------------------------------------

 ------------------------------------------------------------
 Candidate Structure: Conf:801 OPT and FREQ calc in gas phase
 ------------------------------------------------------------
 Structure from the checkpoint file:  "conf-801.chk"
 Charge =  0 Multiplicity = 1

 SCF Done:  E(RB3LYP) =  -796.358446302     A.U. after   11 cycles
 SCF Done:  E(RB3LYP) =  -796.359143224     A.U. after   10 cycles
 SCF Done:  E(RB3LYP) =  -796.359157538     A.U. after   10 cycles
 SCF Done:  E(RB3LYP) =  -796.359159488     A.U. after    9 cycles
 SCF Done:  E(RB3LYP) =  -796.359159759     A.U. after    8 cycles
 SCF Done:  E(RB3LYP) =  -796.359159781     A.U. after    7 cycles
 Optimization completed.
    -- Stationary point found.
 Normal termination of Gaussian 09 at Thu Jul 29 02:53:10 2021.

 ----------------------------------------------------------------------
 #N Geom=AllCheck Guess=TCheck SCRF=Check GenChk RB3LYP/6-311G(2df,2pd)
  Freq
 ----------------------------------------------------------------------

 Structure from the checkpoint file:  "conf-801.chk"
 ------------------------------------------------------------
 Candidate Structure: Conf:801 OPT and FREQ calc in gas phase
 ------------------------------------------------------------
 Charge =  0 Multiplicity = 1

                          Input orientation:
 ---------------------------------------------------------------------
 Center     Atomic      Atomic             Coordinates (Angstroms)
 Number     Number       Type             X           Y           Z
 ---------------------------------------------------------------------
      1          8           0        1.496632    0.836183   -1.069001
      2          6           0        1.753768    0.188159   -0.066894
      3          7           0        0.786905   -0.154799    0.829896
      4          6           0       -0.553942    0.369282    0.727720
      5          6           0       -1.185201    0.315714    2.120080
      6          8           0       -2.364234    0.939630    2.258983
      7          8           0       -0.676283   -0.255805    3.046038
      8          6           0       -1.385805   -0.410434   -0.332910
      9          6           0       -2.757685    0.134177   -0.565561
     10          6           0       -3.208966    1.347603   -1.029204
     11          7           0       -4.583557    1.391572   -1.040166
     12          6           0       -4.971182    0.224790   -0.592910
     13          7           0       -3.909019   -0.572397   -0.287577
     14          6           0        3.158517   -0.275580    0.278623
     15          6           0        4.037805   -0.448974   -0.955084
     16          7           0        5.420071   -0.713873   -0.551800
     17          1           0        1.019794   -0.583226    1.713496
     18          1           0       -0.504073    1.410884    0.398571
     19          1           0       -2.660907    1.311006    1.412528
     20          1           0       -1.437240   -1.457890   -0.029545
     21          1           0       -0.802513   -0.368414   -1.252054
     22          1           0       -2.617033    2.177639   -1.378473
     23          1           0       -5.990962   -0.098918   -0.466739
     24          1           0       -3.950040   -1.504086    0.089108
     25          1           0        3.115213   -1.201875    0.857872
     26          1           0        3.615902    0.475605    0.928564
     27          1           0        4.013269    0.477902   -1.525687
     28          1           0        3.602802   -1.222867   -1.601989
     29          1           0        5.506563   -1.647203   -0.165701
     30          1           0        6.031167   -0.683903   -1.358474
 ---------------------------------------------------------------------

 SCF Done:  E(RB3LYP) =  -796.359159781     A.U. after    1 cycles

 Alpha  occ. eigenvalues --  -19.17853 -19.12338 -19.09107 -14.38514 -14.34366
 Alpha  occ. eigenvalues --  -14.30373 -14.29011 -10.31798 -10.27637 -10.24549
 Alpha  occ. eigenvalues --  -10.23655 -10.22464 -10.20903 -10.19646 -10.19398
 Alpha  occ. eigenvalues --  -10.18057  -1.12214  -1.04868  -1.04126  -1.03528
 Alpha  occ. eigenvalues --   -0.94041  -0.89067  -0.88608  -0.82073  -0.77260
 Alpha  occ. eigenvalues --   -0.74388  -0.69112  -0.64268  -0.63437  -0.62306
 Alpha  occ. eigenvalues --   -0.61209  -0.59396  -0.56876  -0.54814  -0.50772
 Alpha  occ. eigenvalues --   -0.50410  -0.49101  -0.48805  -0.47196  -0.46452
 Alpha  occ. eigenvalues --   -0.45918  -0.44868  -0.43662  -0.43076  -0.42592
 Alpha  occ. eigenvalues --   -0.42500  -0.41740  -0.39950  -0.39385  -0.39172
 Alpha  occ. eigenvalues --   -0.36085  -0.35141  -0.34087  -0.30477  -0.29971
 Alpha  occ. eigenvalues --   -0.28606  -0.27721  -0.26586  -0.24739  -0.24543
 Alpha virt. eigenvalues --   -0.01679   0.00326   0.01201   0.01702   0.02790
 Alpha virt. eigenvalues --    0.03105   0.04468   0.04823   0.06352   0.07461
 Alpha virt. eigenvalues --    0.08238   0.08357   0.08701   0.09848   0.10492

 Mulliken charges:
               1
     1  O   -0.430212
     2  C    0.442570
     3  N   -0.336292
     4  C    0.055589
     5  C    0.527378
     6  O   -0.304602
     7  O   -0.363361
     8  C    0.035983
     9  C    0.013123
    10  C    0.083662
    11  N   -0.347079
    12  C    0.239187
    13  N   -0.217488
    14  C   -0.055954
    15  C    0.203158
    16  N   -0.327362
    17  H    0.105852
    18  H    0.029496
    19  H    0.226352
    20  H    0.009536
    21  H    0.048551
    22  H    0.030502
    23  H    0.025486
    24  H    0.109820
    25  H   -0.001618
    26  H    0.021735
    27  H    0.017306
    28  H   -0.018154
    29  H    0.091877
    30  H    0.084959
 Sum of Mulliken charges =   0.00000

 Dipole moment (field-independent basis, Debye):
    X=             -0.0157    Y=             -4.2777    Z=             -0.6868  Tot=              4.3325
 Quadrupole moment (field-independent basis, Debye-Ang):
   XX=            -89.4662   YY=            -90.5960   ZZ=           -109.8809
   XY=              6.5505   XZ=             -3.6598   YZ=              4.2081

  Exact polarizability: 183.332 -10.752 111.196   1.120 -11.380 116.992
 Approx polarizability: 224.369 -10.982 193.598   4.396 -30.785 185.981

                      1                      2                      3
                      A                      A                      A
 Frequencies --     20.6265                29.4626                43.8385
 Red. masses --      3.0896                 5.0528                 4.9218
 Frc consts  --      0.0008                 0.0026                 0.0056
 IR Inten    --      0.5724                 2.2043                 3.9285

                      4                      5                      6
                      A                      A                      A
 Frequencies --     51.2256                71.0964                80.7869
 Red. masses --      2.3164                 6.5007                 5.8024
 Frc consts  --      0.0036                 0.0194                 0.0223
 IR Inten    --      2.3784                11.4608                 3.4460

                      7                      8                      9
                      A                      A                      A
 Frequencies --     92.7748                98.7463               150.7745
 Red. masses --      4.5169                 6.8677                 3.9612
 Frc consts  --      0.0229                 0.0395                 0.0531
 IR Inten    --      0.4694                 3.9989                 4.5923

                     10                     11                     12
                      A                      A                      A
 Frequencies --    181.8432               212.6821               246.4220
 Red. masses --      4.8565                 4.2858                 1.2377
 Frc consts  --      0.0946                 0.1142                 0.0443
 IR Inten    --      6.8031                14.4869                44.5208

                     13                     14                     15
                      A                      A                      A
 Frequencies --    275.8514               327.0196               332.5198
 Red. masses --      5.5743                 5.8514                 2.4875
 Frc consts  --      0.2499                 0.3687                 0.1621
 IR Inten    --      1.6318                 3.6091                 3.0867

                     16                     17                     18
                      A                      A                      A
 Frequencies --    346.4929               390.3501               401.3998
 Red. masses --      5.8205                 4.1323                 4.1696
 Frc consts  --      0.4117                 0.3710                 0.3958
 IR Inten    --      5.4010                14.2624                 2.3345

                     19                     20                     21
                      A                      A                      A
 Frequencies --    535.1579               547.0705               558.0094
 Red. masses --      1.8167                 1.3644                 2.2116
 Frc consts  --      0.3065                 0.2406                 0.4057
 IR Inten    --     59.1421                60.4848                25.3560

                     22                     23                     24
                      A                      A                      A
 Frequencies --    607.3377               636.3033               638.3867
 Red. masses --      1.5205                 2.1252                 2.5819
 Frc consts  --      0.3304                 0.5070                 0.6200
 IR Inten    --     83.1547                13.9637                 5.7393

                     25                     26                     27
                      A                      A                      A
 Frequencies --    674.9397               686.2089               733.5205
 Red. masses --      2.7714                 3.2199                 3.5602
 Frc consts  --      0.7438                 0.8933                 1.1286
 IR Inten    --     11.5068                17.6864                18.7790

                     28                     29                     30
                      A                      A                      A
 Frequencies --    746.4758               766.2498               803.2019
 Red. masses --      3.4597                 3.9676                 1.5079
 Frc consts  --      1.1359                 1.3725                 0.5732
 IR Inten    --      8.5696                 5.5425                15.3569

                     31                     32                     33
                      A                      A                      A
 Frequencies --    823.1740               834.7139               855.9409
 Red. masses --      2.3280                 1.4521                 1.3407
 Frc consts  --      0.9294                 0.5961                 0.5787
 IR Inten    --      3.7060                17.6926               101.1730

                     34                     35                     36
                      A                      A                      A
 Frequencies --    870.0319               937.4680               948.3435
 Red. masses --      1.4233                 5.8625                 3.1196
 Frc consts  --      0.6348                 3.0356                 1.6530
 IR Inten    --     29.2408                15.0696                23.4128

                     37                     38                     39
                      A                      A                      A
 Frequencies --    984.2392              1009.8909              1026.7873
 Red. masses --      2.2098                 3.4965                 4.0359
 Frc consts  --      1.2612                 2.1010                 2.5070
 IR Inten    --      4.2817                 6.1475                 7.7609

                     40                     41                     42
                      A                      A                      A
 Frequencies --   1031.0946              1061.2648              1097.3700
 Red. masses --      3.1898                 2.8074                 2.1138
 Frc consts  --      1.9981                 1.8630                 1.4997
 IR Inten    --      5.8355                22.7652                20.9363

                     43                     44                     45
                      A                      A                      A
 Frequencies --   1108.6902              1123.0666              1142.2208
 Red. masses --      1.6428                 2.3868                 2.2548
 Frc consts  --      1.1897                 1.7737                 1.7332
 IR Inten    --     14.0497                14.6326                10.3699

                     46                     47                     48
                      A                      A                      A
 Frequencies --   1164.9004              1170.2737              1207.5567
 Red. masses --      1.4132                 1.6620                 1.9250
 Frc consts  --      1.1299                 1.3411                 1.6538
 IR Inten    --      4.9796                11.1963                45.5784

                     49                     50                     51
                      A                      A                      A
 Frequencies --   1221.5587              1252.3062              1268.3232
 Red. masses --      1.7956                 1.9589                 1.4366
 Frc consts  --      1.5786                 1.8100                 1.3616
 IR Inten    --     24.6012                16.9766                 9.9922

                     52                     53                     54
                      A                      A                      A
 Frequencies --   1283.3430              1309.1379              1323.8842
 Red. masses --      1.4455                 1.4005                 1.4512
 Frc consts  --      1.4027                 1.4141                 1.4985
 IR Inten    --      1.5317                11.4084               105.9169

                     55                     56                     57
                      A                      A                      A
 Frequencies --   1337.4269              1360.2070              1361.4103
 Red. masses --      1.1088                 1.4969                 1.3685
 Frc consts  --      1.1686                 1.6318                 1.4944
 IR Inten    --     12.4287               133.6542                11.1359

                     58                     59                     60
                      A                      A                      A
 Frequencies --   1395.8640              1404.2697              1428.0994
 Red. masses --      2.5100                 1.9919                 1.5416
 Frc consts  --      2.8815                 2.3143                 1.8525
 IR Inten    --     51.0950               102.1558                27.6445

                     61                     62                     63
                      A                      A                      A
 Frequencies --   1429.5386              1469.8764              1488.0018
 Red. masses --      2.9656                 1.0894                 1.6101
 Frc consts  --      3.5707                 1.3867                 2.1004
 IR Inten    --     33.3889                 7.7796                13.3517

                     64                     65                     66
                      A                      A                      A
 Frequencies --   1494.2329              1518.2188              1518.8111
 Red. masses --      1.9091                 2.1448                 1.0887
 Frc consts  --      2.5113                 2.9127                 1.4797
 IR Inten    --     22.1643               324.7379                 4.5592

                     67                     68                     69
                      A                      A                      A
 Frequencies --   1596.0904              1665.2832              1737.9264
 Red. masses --      3.9981                 1.0892                 9.4906
 Frc consts  --      6.0010                 1.7797                16.8891
 IR Inten    --     11.2784                20.1290               198.4594

                     70                     71                     72
                      A                      A                      A
 Frequencies --   1835.4513              2957.8649              3024.9379
 Red. masses --      9.5625                 1.0745                 1.0596
 Frc consts  --     18.9805                 5.5386                 5.7123
 IR Inten    --    273.1481                64.7936                16.3252

                     73                     74                     75
                      A                      A                      A
 Frequencies --   3032.2862              3049.5269              3058.1071
 Red. masses --      1.0798                 1.0647                 1.0991
 Frc consts  --      5.8499                 5.8334                 6.0560
 IR Inten    --      8.3002                18.8820                10.5932

                     76                     77                     78
                      A                      A                      A
 Frequencies --   3094.7305              3096.9845              3235.0988
 Red. masses --      1.0899                 1.1021                 1.0957
 Frc consts  --      6.1501                 6.2280                 6.7567
 IR Inten    --     16.9913                 2.3016                 3.4405

                     79                     80                     81
                      A                      A                      A
 Frequencies --   3245.7631              3490.3382              3564.8146
 Red. masses --      1.0978                 1.0502                 1.0917
 Frc consts  --      6.8142                 7.5383                 8.1741
 IR Inten    --      0.7280                 0.7572                 0.2467

                     82                     83                     84
                      A                      A                      A
 Frequencies --   3588.3401              3646.7061              3663.2894
 Red. masses --      1.0773                 1.0811                 1.0667
 Frc consts  --      8.1731                 8.4709                 8.4336
 IR Inten    --     74.4883                49.0989               243.1406

 - Thermochemistry -
 -------------------
 Temperature   298.150 Kelvin.  Pressure   1.00000 Atm.
 Atom     1 has atomic number  8 and mass  15.99491

 Molecular mass:   226.10659 amu.
 Principal axes and moments of inertia in atomic units:
                           1         2         3
     Eigenvalues --  1658.640667910.660868972.98621
           X            0.99339   0.02170   0.11273
           Y           -0.11074  -0.07795   0.99079
           Z           -0.03029   0.99672   0.07503
 This molecule is an asymmetric top.
 Rotational symmetry number  1.
 Warning -- assumption of classical behavior for rotation
           may cause significant error
 Rotational temperatures (Kelvin)      0.05222     0.01095     0.00965
 Rotational constants (GHZ):           1.08808     0.22814     0.20113
 Zero-point vibrational energy     640790.8 (Joules/Mol)
                                  153.15267 (Kcal/Mol)
 Warning -- explicit consideration of  22 degrees of freedom as
           vibrations may cause significant error
 Vibrational temperatures:     29.68    42.39    63.07    73.70   102.29
          (Kelvin)            116.23   133.48   142.07   216.93   261.63
                              306.00   354.55   396.89   470.51   478.42
                              498.53   561.63   577.52   769.97   787.11
                              802.85   873.82   915.50   918.49   971.09
                              987.30  1055.37  1074.01  1102.46  1155.63
                             1184.36  1200.97  1231.51  1251.78  1348.81
                             1364.45  1416.10  1453.01  1477.32  1483.51
                             1526.92  1578.87  1595.16  1615.84  1643.40
                             1676.03  1683.76  1737.40  1757.55  1801.79
                             1824.83  1846.44  1883.56  1904.77  1924.26
                             1957.03  1958.76  2008.33  2020.43  2054.71
                             2056.78  2114.82  2140.90  2149.87  2184.38
                             2185.23  2296.42  2395.97  2500.49  2640.80
                             4255.70  4352.21  4362.78  4387.58  4399.93
                             4452.62  4455.86  4654.58  4669.92  5021.81
                             5128.97  5162.81  5246.79  5270.65

 Zero-point correction=                           0.244064 (Hartree/Particle)
 Thermal correction to Energy=                    0.260332
 Thermal correction to Enthalpy=                  0.261276
 Thermal correction to Gibbs Free Energy=         0.197025
 Sum of electronic and zero-point Energies=           -796.115095
 Sum of electronic and thermal Energies=              -796.098828
 Sum of electronic and thermal Enthalpies=            -796.097884
 Sum of electronic and thermal Free Energies=         -796.162135

                     E (Thermal)             CV                S
                      KCal/Mol        Cal/Mol-Kelvin    Cal/Mol-Kelvin
 Total                  163.361             58.487            135.227
 Electronic               0.000              0.000              0.000
 Translational            0.889              2.981             42.150
 Rotational               0.889              2.981             33.132
 Vibrational            161.583             52.525             59.946
 Vibration     1          0.593              1.986              6.573
 Vibration     2          0.593              1.984              5.865
 Vibration     3          0.595              1.980              5.078
 Vibration     4          0.595              1.977              4.770
 Vibration     5          0.598              1.968              4.123
 Vibration     6          0.600              1.962              3.872
 Vibration     7          0.602              1.954              3.601
 Vibration     8          0.604              1.950              3.479
 Vibration     9          0.618              1.902              2.662
 Vibration    10          0.630              1.864              2.309
 Vibration    11          0.644              1.822              2.021
 Vibration    12          0.661              1.769              1.756
 Vibration    13          0.677              1.718              1.559
 Vibration    14          0.711              1.621              1.275
 Vibration    15          0.714              1.611              1.248
 Vibration    16          0.724              1.582              1.182
 Vibration    17          0.758              1.491              0.999
 Vibration    18          0.767              1.467              0.958
 Vibration    19          0.890              1.172              0.576
 Vibration    20          0.902              1.146              0.550
 Vibration    21          0.914              1.122              0.528
 Vibration    22          0.966              1.016              0.437

 Optimization completed.
    -- Stationary point found.
 Normal termination of Gaussian 09 at Thu Jul 29 06:15:09 2021.
