 Gaussian 09, Revision D.01,
 Gaussian 09:  ES64L-G09RevD.01 24-Apr-2013

 ----------------------------------------------------------------------
 # B3LYP/6-311G(2df,2pd) guess=read geom=checkpoint opt=readfc freq=nor
 aman nosymm integral(ultrafinegrid)
 ----------------------------------------------------------------------

 ------------------------------------------------------------
 Candidate Structure: Conf:900 OPT and FREQ calc in gas phase
 ------------------------------------------------------------
 Structure from the checkpoint file:  "conf-900.chk"
 Charge =  0 Multiplicity = 1

 SCF Done:  E(RB3LYP) =  -796.369694260     A.U. after   11 cycles
 SCF Done:  E(RB3LYP) =  -796.370383169     A.U. after   10 cycles
 SCF Done:  E(RB3LYP) =  -796.370390300     A.U. after   10 cycles
 SCF Done:  E(RB3LYP) =  -796.370392423     A.U. after    9 cycles
 SCF Done:  E(RB3LYP) =  -796.370392633     A.U. after    7 cycles
 Optimization completed.
    -- Stationary point found.
 Normal termination of Gaussian 09 at Thu Jul 29 02:41:56 2021.

 ----------------------------------------------------------------------
 #N Geom=AllCheck Guess=TCheck SCRF=Check GenChk RB3LYP/6-311G(2df,2pd)
  Freq
 ----------------------------------------------------------------------

 Structure from the checkpoint file:  "conf-900.chk"
 ------------------------------------------------------------
 Candidate Structure: Conf:900 OPT and FREQ calc in gas phase
 ------------------------------------------------------------
 Charge =  0 Multiplicity = 1

                          Input orientation:
 ---------------------------------------------------------------------
 Center     Atomic      Atomic             Coordinates (Angstroms)
 Number     Number       Type             X           Y           Z
 ---------------------------------------------------------------------
      1          8           0       -0.813417    0.535901   -1.094368
      2          6           0       -1.219685   -0.543425   -0.668936
      3          7           0       -0.432575   -1.386197    0.034278
      4          6           0        0.974606   -1.147598    0.281568
      5          6           0        1.591731   -2.481452    0.658263
      6          8           0        2.928056   -2.403103    0.735919
      7          8           0        0.970032   -3.488960    0.880466
      8          6           0        1.251603   -0.064396    1.389332
      9          6           0        1.992332    1.132473    0.904768
     10          6           0        3.169719    1.714677    1.297358
     11          7           0        3.436992    2.832157    0.545618
     12          6           0        2.435394    2.923404   -0.297455
     13          7           0        1.531011    1.924292   -0.122684
     14          6           0       -2.640982   -1.029483   -0.910644
     15          6           0       -3.555628    0.062312   -1.453612
     16          7           0       -3.744904    1.113892   -0.453042
     17          1           0       -0.782494   -2.286642    0.326961
     18          1           0        1.450487   -0.812510   -0.640993
     19          1           0        3.254961   -3.274407    1.002659
     20          1           0        0.278465    0.214295    1.798319
     21          1           0        1.821228   -0.502890    2.207182
     22          1           0        3.833949    1.388426    2.080920
     23          1           0        2.314364    3.685139   -1.050047
     24          1           0        0.688040    1.723380   -0.649785
     25          1           0       -3.048438   -1.414271    0.026488
     26          1           0       -2.592762   -1.866594   -1.613727
     27          1           0       -4.527480   -0.385182   -1.666984
     28          1           0       -3.147714    0.425138   -2.404313
     29          1           0       -2.911215    1.688457   -0.417571
     30          1           0       -4.505541    1.723459   -0.725810
 ---------------------------------------------------------------------

 SCF Done:  E(RB3LYP) =  -796.370392633     A.U. after    1 cycles

 Alpha  occ. eigenvalues --  -19.19439 -19.13984 -19.10936 -14.35518 -14.34490
 Alpha  occ. eigenvalues --  -14.28696 -14.27345 -10.33065 -10.29114 -10.24850
 Alpha  occ. eigenvalues --  -10.20639 -10.19966 -10.19949 -10.19156 -10.18879
 Alpha  occ. eigenvalues --  -10.16702  -1.14101  -1.06235  -1.05172  -1.00239
 Alpha  occ. eigenvalues --   -0.95167  -0.88615  -0.85880  -0.81454  -0.76991
 Alpha  occ. eigenvalues --   -0.74315  -0.68457  -0.66124  -0.61624  -0.60766
 Alpha  occ. eigenvalues --   -0.59925  -0.57931  -0.54282  -0.53431  -0.51921
 Alpha  occ. eigenvalues --   -0.51071  -0.49705  -0.48877  -0.48423  -0.47727
 Alpha  occ. eigenvalues --   -0.45395  -0.44179  -0.43612  -0.42953  -0.42052
 Alpha  occ. eigenvalues --   -0.40238  -0.39844  -0.39499  -0.39358  -0.38593
 Alpha  occ. eigenvalues --   -0.37266  -0.36899  -0.35487  -0.31509  -0.28777
 Alpha  occ. eigenvalues --   -0.28430  -0.27069  -0.25760  -0.24608  -0.21895
 Alpha virt. eigenvalues --   -0.02401  -0.00161   0.01504   0.02722   0.03188
 Alpha virt. eigenvalues --    0.04858   0.06178   0.06444   0.07028   0.07440
 Alpha virt. eigenvalues --    0.07748   0.08658   0.09252   0.10620   0.11135

 Mulliken charges:
               1
     1  O   -0.485296
     2  C    0.524833
     3  N   -0.318431
     4  C    0.081699
     5  C    0.522755
     6  O   -0.334552
     7  O   -0.377587
     8  C    0.014809
     9  C    0.086845
    10  C    0.104348
    11  N   -0.357942
    12  C    0.229129
    13  N   -0.241083
    14  C   -0.057276
    15  C    0.168989
    16  N   -0.325663
    17  H    0.110031
    18  H    0.028099
    19  H    0.227517
    20  H    0.027688
    21  H    0.005016
    22  H   -0.002667
    23  H    0.011102
    24  H    0.136556
    25  H    0.013943
    26  H    0.018772
    27  H   -0.002191
    28  H   -0.006875
    29  H    0.111245
    30  H    0.086187
 Sum of Mulliken charges =   0.00000

 Dipole moment (field-independent basis, Debye):
    X=             -2.6759    Y=             -3.6612    Z=             -0.9777  Tot=              4.6390
 Quadrupole moment (field-independent basis, Debye-Ang):
   XX=            -98.8666   YY=            -97.9803   ZZ=            -91.5510
   XY=            -17.7118   XZ=              5.1074   YZ=             -4.8002

  Exact polarizability: 153.224  10.870 149.060  20.036 -13.915 107.971
 Approx polarizability: 209.808  21.371 218.631  19.230 -27.156 173.718

                      1                      2                      3
                      A                      A                      A
 Frequencies --     19.7946                32.2198                56.1303
 Red. masses --      3.5876                 6.2345                 4.6376
 Frc consts  --      0.0008                 0.0038                 0.0086
 IR Inten    --      0.8779                 1.4610                 0.9490

                      4                      5                      6
                      A                      A                      A
 Frequencies --     59.2977                77.4707                86.0877
 Red. masses --      8.1783                 5.3020                 5.8895
 Frc consts  --      0.0169                 0.0187                 0.0257
 IR Inten    --      1.0466                 0.6119                 5.4943

                      7                      8                      9
                      A                      A                      A
 Frequencies --    108.4073               136.8895               141.0361
 Red. masses --      4.4496                 5.4354                 3.8997
 Frc consts  --      0.0308                 0.0600                 0.0457
 IR Inten    --      2.7852                 3.0323                 4.3503

                     10                     11                     12
                      A                      A                      A
 Frequencies --    194.3943               249.1614               284.6204
 Red. masses --      4.6648                 2.1410                 5.6920
 Frc consts  --      0.1039                 0.0783                 0.2717
 IR Inten    --      1.8253                38.2196                 1.1520

                     13                     14                     15
                      A                      A                      A
 Frequencies --    289.2261               301.8725               324.3493
 Red. masses --      2.0296                 1.5703                 3.9751
 Frc consts  --      0.1000                 0.0843                 0.2464
 IR Inten    --     22.0454                13.8563                 5.0785

                     16                     17                     18
                      A                      A                      A
 Frequencies --    351.1715               407.7434               434.2305
 Red. masses --      4.9221                 3.6432                 2.5378
 Frc consts  --      0.3576                 0.3569                 0.2819
 IR Inten    --      2.5939                10.9179                26.5236

                     19                     20                     21
                      A                      A                      A
 Frequencies --    544.9885               566.3999               594.0048
 Red. masses --      1.5753                 3.1393                 1.4840
 Frc consts  --      0.2757                 0.5934                 0.3085
 IR Inten    --     58.3192                25.3281                65.9885

                     22                     23                     24
                      A                      A                      A
 Frequencies --    629.7445               634.0824               649.2801
 Red. masses --      2.6019                 2.5503                 2.7928
 Frc consts  --      0.6079                 0.6041                 0.6937
 IR Inten    --     23.0207                14.8303                 0.1334

                     25                     26                     27
                      A                      A                      A
 Frequencies --    676.9642               681.6455               719.4329
 Red. masses --      3.1843                 3.3966                 3.3481
 Frc consts  --      0.8598                 0.9299                 1.0210
 IR Inten    --      3.1967                52.4850                17.5471

                     28                     29                     30
                      A                      A                      A
 Frequencies --    769.4677               771.4663               831.2121
 Red. masses --      1.1354                 3.9048                 1.4230
 Frc consts  --      0.3961                 1.3693                 0.5793
 IR Inten    --     25.1892                20.3912                15.4519

                     31                     32                     33
                      A                      A                      A
 Frequencies --    845.5211               859.8535               867.3875
 Red. masses --      1.8025                 1.7331                 1.8350
 Frc consts  --      0.7592                 0.7550                 0.8134
 IR Inten    --     19.1575                18.5477                76.6063

                     34                     35                     36
                      A                      A                      A
 Frequencies --    893.3153               903.5939               941.4793
 Red. masses --      1.9800                 1.9323                 5.8698
 Frc consts  --      0.9309                 0.9296                 3.0655
 IR Inten    --     11.5242                27.1587                19.9583

                     37                     38                     39
                      A                      A                      A
 Frequencies --    954.0860               981.5169              1017.9130
 Red. masses --      2.7319                 4.0335                 2.9040
 Frc consts  --      1.4652                 2.2894                 1.7729
 IR Inten    --      8.2115                 6.1927                22.6886

                     40                     41                     42
                      A                      A                      A
 Frequencies --   1024.3831              1061.8269              1099.5073
 Red. masses --      3.8525                 2.5247                 3.1383
 Frc consts  --      2.3819                 1.6772                 2.2353
 IR Inten    --      1.4646                15.0540                36.6143

                     43                     44                     45
                      A                      A                      A
 Frequencies --   1124.8251              1129.1066              1146.4469
 Red. masses --      1.8217                 1.8166                 2.0013
 Frc consts  --      1.3580                 1.3646                 1.5498
 IR Inten    --     23.8142                39.4652                 2.2884

                     46                     47                     48
                      A                      A                      A
 Frequencies --   1170.8731              1184.9616              1210.9358
 Red. masses --      1.6958                 2.0344                 1.3098
 Frc consts  --      1.3698                 1.6831                 1.1317
 IR Inten    --    137.5122                65.5028                 9.3666

                     49                     50                     51
                      A                      A                      A
 Frequencies --   1238.2861              1255.7974              1262.9288
 Red. masses --      1.2197                 1.6108                 2.2834
 Frc consts  --      1.1019                 1.4967                 2.1458
 IR Inten    --      4.6963                30.9447                 5.6818

                     52                     53                     54
                      A                      A                      A
 Frequencies --   1280.5195              1289.7697              1330.5913
 Red. masses --      1.4326                 1.2943                 1.3937
 Frc consts  --      1.3840                 1.2685                 1.4538
 IR Inten    --     10.2616                15.2551                 0.4779

                     55                     56                     57
                      A                      A                      A
 Frequencies --   1354.0800              1357.8714              1382.3530
 Red. masses --      1.2448                 1.4335                 1.5628
 Frc consts  --      1.3448                 1.5573                 1.7595
 IR Inten    --      5.8744                34.1988                26.3085

                     58                     59                     60
                      A                      A                      A
 Frequencies --   1386.9653              1417.2013              1426.7663
 Red. masses --      3.7537                 2.3292                 1.3913
 Frc consts  --      4.2544                 2.7562                 1.6686
 IR Inten    --     11.8438                90.2576                11.1903

                     61                     62                     63
                      A                      A                      A
 Frequencies --   1443.2472              1450.7056              1479.2788
 Red. masses --      2.4295                 1.1091                 1.1462
 Frc consts  --      2.9817                 1.3752                 1.4778
 IR Inten    --     66.4332                17.6991                13.2847

                     64                     65                     66
                      A                      A                      A
 Frequencies --   1502.0151              1504.0436              1540.6340
 Red. masses --      1.0931                 3.2173                 2.3147
 Frc consts  --      1.4530                 4.2881                 3.2370
 IR Inten    --      2.7836                22.7002               325.6269

                     67                     68                     69
                      A                      A                      A
 Frequencies --   1609.7477              1656.0172              1715.7083
 Red. masses --      4.1123                 1.1536                 5.7922
 Frc consts  --      6.2785                 1.8639                10.0458
 IR Inten    --     17.6180                78.5381               162.2405

                     70                     71                     72
                      A                      A                      A
 Frequencies --   1813.2206              2985.3019              3026.1033
 Red. masses --      9.7234                 1.0708                 1.0624
 Frc consts  --     18.8352                 5.6223                 5.7320
 IR Inten    --    280.0392                52.4375                13.9062

                     73                     74                     75
                      A                      A                      A
 Frequencies --   3040.6648              3062.9459              3063.8186
 Red. masses --      1.0665                 1.0912                 1.0835
 Frc consts  --      5.8096                 6.0316                 5.9924
 IR Inten    --     16.6363                35.0285                 9.9416

                     76                     77                     78
                      A                      A                      A
 Frequencies --   3072.7035              3096.9362              3229.8782
 Red. masses --      1.0991                 1.0966                 1.0956
 Frc consts  --      6.1138                 6.1967                 6.7337
 IR Inten    --     16.4215                 9.5243                 9.9415

                     79                     80                     81
                      A                      A                      A
 Frequencies --   3239.7328              3500.5343              3507.4530
 Red. masses --      1.0972                 1.0497                 1.0843
 Frc consts  --      6.7853                 7.5782                 7.8595
 IR Inten    --      1.5187                 8.7754               390.0544

                     82                     83                     84
                      A                      A                      A
 Frequencies --   3573.4014              3585.5223              3752.0837
 Red. masses --      1.0925                 1.0774                 1.0641
 Frc consts  --      8.2193                 8.1608                 8.8266
 IR Inten    --      3.2688                85.6327                89.6950

 - Thermochemistry -
 -------------------
 Temperature   298.150 Kelvin.  Pressure   1.00000 Atm.
 Atom     1 has atomic number  8 and mass  15.99491

 Molecular mass:   226.10659 amu.
 Principal axes and moments of inertia in atomic units:
                           1         2         3
     Eigenvalues --  3073.535804864.020347502.05157
           X            0.94430  -0.14309  -0.29635
           Y            0.18683   0.97443   0.12484
           Z            0.27090  -0.17325   0.94689
 This molecule is an asymmetric top.
 Rotational symmetry number  1.
 Warning -- assumption of classical behavior for rotation
           may cause significant error
 Rotational temperatures (Kelvin)      0.02818     0.01781     0.01155
 Rotational constants (GHZ):           0.58719     0.37104     0.24057
 Zero-point vibrational energy     642844.2 (Joules/Mol)
                                  153.64344 (Kcal/Mol)
 Warning -- explicit consideration of  21 degrees of freedom as
           vibrations may cause significant error
 Vibrational temperatures:     28.48    46.36    80.76    85.32   111.46
          (Kelvin)            123.86   155.97   196.95   202.92   279.69
                              358.49   409.50   416.13   434.33   466.67
                              505.26   586.65   624.76   784.12   814.92
                              854.64   906.06   912.30   934.17   974.00
                              980.73  1035.10  1107.09  1109.97  1195.93
                             1216.51  1237.14  1247.98  1285.28  1300.07
                             1354.58  1372.72  1412.18  1464.55  1473.86
                             1527.73  1581.94  1618.37  1624.53  1649.48
                             1684.62  1704.89  1742.26  1781.62  1806.81
                             1817.07  1842.38  1855.69  1914.42  1948.22
                             1953.67  1988.90  1995.53  2039.03  2052.80
                             2076.51  2087.24  2128.35  2161.06  2163.98
                             2216.63  2316.06  2382.64  2468.52  2608.82
                             4295.18  4353.88  4374.83  4406.89  4408.15
                             4420.93  4455.79  4647.07  4661.25  5036.48
                             5046.44  5141.32  5158.76  5398.40

 Zero-point correction=                           0.244846 (Hartree/Particle)
 Thermal correction to Energy=                    0.260732
 Thermal correction to Enthalpy=                  0.261676
 Thermal correction to Gibbs Free Energy=         0.198857
 Sum of electronic and zero-point Energies=           -796.125546
 Sum of electronic and thermal Energies=              -796.109661
 Sum of electronic and thermal Enthalpies=            -796.108717
 Sum of electronic and thermal Free Energies=         -796.171536

                     E (Thermal)             CV                S
                      KCal/Mol        Cal/Mol-Kelvin    Cal/Mol-Kelvin
 Total                  163.612             57.908            132.213
 Electronic               0.000              0.000              0.000
 Translational            0.889              2.981             42.150
 Rotational               0.889              2.981             33.083
 Vibrational            161.834             51.947             56.980
 Vibration     1          0.593              1.986              6.655
 Vibration     2          0.594              1.983              5.688
 Vibration     3          0.596              1.975              4.589
 Vibration     4          0.597              1.974              4.480
 Vibration     5          0.599              1.964              3.954
 Vibration     6          0.601              1.959              3.747
 Vibration     7          0.606              1.942              3.297
 Vibration     8          0.614              1.916              2.847
 Vibration     9          0.615              1.912              2.790
 Vibration    10          0.635              1.848              2.186
 Vibration    11          0.662              1.764              1.737
 Vibration    12          0.683              1.702              1.506
 Vibration    13          0.686              1.694              1.478
 Vibration    14          0.694              1.670              1.407
 Vibration    15          0.709              1.627              1.288
 Vibration    16          0.728              1.573              1.161
 Vibration    17          0.772              1.453              0.935
 Vibration    18          0.795              1.396              0.845
 Vibration    19          0.900              1.151              0.555
 Vibration    20          0.922              1.104              0.511
 Vibration    21          0.952              1.045              0.460

 Optimization completed.
    -- Stationary point found.
 Normal termination of Gaussian 09 at Thu Jul 29 06:10:44 2021.
