 Gaussian 09, Revision D.01,
 Gaussian 09:  ES64L-G09RevD.01 24-Apr-2013

 ----------------------------------------------------------------------
 # B3LYP/6-311G(2df,2pd) guess=read geom=checkpoint opt=readfc freq=nor
 aman nosymm integral(ultrafinegrid)
 ----------------------------------------------------------------------

 ------------------------------------------------------------
 Candidate Structure: Conf:599 OPT and FREQ calc in gas phase
 ------------------------------------------------------------
 Structure from the checkpoint file:  "conf-599.chk"
 Charge =  0 Multiplicity = 1

 SCF Done:  E(RB3LYP) =  -796.356583672     A.U. after   11 cycles
 SCF Done:  E(RB3LYP) =  -796.357325085     A.U. after   11 cycles
 SCF Done:  E(RB3LYP) =  -796.357331137     A.U. after   10 cycles
 SCF Done:  E(RB3LYP) =  -796.357331319     A.U. after    8 cycles
 Optimization completed.
    -- Stationary point found.
 Normal termination of Gaussian 09 at Thu Jul 29 02:30:59 2021.

 ----------------------------------------------------------------------
 #N Geom=AllCheck Guess=TCheck SCRF=Check GenChk RB3LYP/6-311G(2df,2pd)
  Freq
 ----------------------------------------------------------------------

 Structure from the checkpoint file:  "conf-599.chk"
 ------------------------------------------------------------
 Candidate Structure: Conf:599 OPT and FREQ calc in gas phase
 ------------------------------------------------------------
 Charge =  0 Multiplicity = 1

                          Input orientation:
 ---------------------------------------------------------------------
 Center     Atomic      Atomic             Coordinates (Angstroms)
 Number     Number       Type             X           Y           Z
 ---------------------------------------------------------------------
      1          8           0        2.711935    1.625238    0.803949
      2          6           0        1.906965    0.809974    0.406585
      3          7           0        1.029989    1.163802   -0.615459
      4          6           0       -0.223500    0.498735   -0.958401
      5          6           0       -0.345348    0.352908   -2.488387
      6          8           0        0.810913    0.379460   -3.157833
      7          8           0       -1.392407    0.196232   -3.059015
      8          6           0       -1.467456    1.180023   -0.329954
      9          6           0       -2.634020    0.283675   -0.080189
     10          6           0       -3.250064   -0.087314    1.088556
     11          7           0       -4.311273   -0.920787    0.840299
     12          6           0       -4.340561   -1.057004   -0.464086
     13          7           0       -3.352749   -0.346971   -1.069899
     14          6           0        1.835222   -0.609636    0.942373
     15          6           0        2.965207   -0.921275    1.936566
     16          7           0        4.319693   -0.909405    1.405858
     17          1           0        1.061799    2.162119   -0.785781
     18          1           0       -0.168908   -0.522035   -0.580440
     19          1           0        1.517674    0.581564   -2.522288
     20          1           0       -1.753877    2.032161   -0.953097
     21          1           0       -1.160388    1.583002    0.634791
     22          1           0       -2.991009    0.213752    2.090788
     23          1           0       -5.046093   -1.652358   -1.019790
     24          1           0       -3.108318   -0.305974   -2.048808
     25          1           0        0.863711   -0.753206    1.427231
     26          1           0        1.865126   -1.315431    0.106396
     27          1           0        2.919682   -0.200490    2.752901
     28          1           0        2.770205   -1.903493    2.371032
     29          1           0        4.425032   -1.569709    0.645171
     30          1           0        4.542744    0.012501    1.053223
 ---------------------------------------------------------------------

 SCF Done:  E(RB3LYP) =  -796.357331319     A.U. after    1 cycles

 Alpha  occ. eigenvalues --  -19.19308 -19.13803 -19.11986 -14.37450 -14.36005
 Alpha  occ. eigenvalues --  -14.29069 -14.28605 -10.33296 -10.30467 -10.26473
 Alpha  occ. eigenvalues --  -10.21908 -10.21384 -10.20658 -10.20567 -10.20275
 Alpha  occ. eigenvalues --  -10.18063  -1.13874  -1.07658  -1.05668  -1.01624
 Alpha  occ. eigenvalues --   -0.96442  -0.89143  -0.87178  -0.81900  -0.78072
 Alpha  occ. eigenvalues --   -0.75199  -0.69180  -0.66470  -0.64436  -0.61220
 Alpha  occ. eigenvalues --   -0.59944  -0.59395  -0.57680  -0.54948  -0.53943
 Alpha  occ. eigenvalues --   -0.51639  -0.49452  -0.49004  -0.48581  -0.47604
 Alpha  occ. eigenvalues --   -0.46271  -0.44713  -0.44351  -0.43844  -0.43507
 Alpha  occ. eigenvalues --   -0.42310  -0.41363  -0.40990  -0.40320  -0.39216
 Alpha  occ. eigenvalues --   -0.38611  -0.36986  -0.35418  -0.32735  -0.30561
 Alpha  occ. eigenvalues --   -0.28793  -0.28379  -0.26953  -0.24754  -0.23243
 Alpha virt. eigenvalues --   -0.03077  -0.02158   0.00499   0.01666   0.02674
 Alpha virt. eigenvalues --    0.03786   0.04720   0.05473   0.06136   0.07000
 Alpha virt. eigenvalues --    0.07527   0.07830   0.08673   0.09980   0.10312

 Mulliken charges:
               1
     1  O   -0.381924
     2  C    0.465902
     3  N   -0.402801
     4  C    0.037848
     5  C    0.544527
     6  O   -0.297921
     7  O   -0.382022
     8  C    0.004047
     9  C    0.091169
    10  C    0.096568
    11  N   -0.351863
    12  C    0.231872
    13  N   -0.236277
    14  C   -0.093979
    15  C    0.139717
    16  N   -0.324496
    17  H    0.122747
    18  H    0.053066
    19  H    0.212459
    20  H    0.025422
    21  H    0.023253
    22  H    0.004921
    23  H    0.016707
    24  H    0.125841
    25  H    0.031538
    26  H    0.014729
    27  H    0.017423
    28  H    0.008307
    29  H    0.089100
    30  H    0.114123
 Sum of Mulliken charges =   0.00000

 Dipole moment (field-independent basis, Debye):
    X=              1.4652    Y=              0.3736    Z=             -1.8407  Tot=              2.3822
 Quadrupole moment (field-independent basis, Debye-Ang):
   XX=           -118.4288   YY=            -92.6528   ZZ=           -105.6866
   XY=             -6.1150   XZ=             -1.3816   YZ=              1.2040

  Exact polarizability: 165.746  17.350 109.794   9.941  -1.786 133.560
 Approx polarizability: 222.241  32.664 175.856  10.588   3.886 209.735

                      1                      2                      3
                      A                      A                      A
 Frequencies --     18.4363                38.1220                50.7971
 Red. masses --      5.6758                 4.7871                 3.5232
 Frc consts  --      0.0011                 0.0041                 0.0054
 IR Inten    --      0.2733                 0.2824                 1.9353

                      4                      5                      6
                      A                      A                      A
 Frequencies --     64.0612                78.3305                88.1224
 Red. masses --      6.7296                 5.1683                 6.0778
 Frc consts  --      0.0163                 0.0187                 0.0278
 IR Inten    --      0.5441                 0.6607                10.1870

                      7                      8                      9
                      A                      A                      A
 Frequencies --    135.0197               141.2190               151.9381
 Red. masses --      4.6677                 5.9139                 3.2921
 Frc consts  --      0.0501                 0.0695                 0.0448
 IR Inten    --      4.4934                 9.5848                 4.4205

                     10                     11                     12
                      A                      A                      A
 Frequencies --    207.5876               248.3685               285.8372
 Red. masses --      4.4812                 2.7000                 4.4399
 Frc consts  --      0.1138                 0.0981                 0.2137
 IR Inten    --      6.6899                 7.3487                 8.7943

                     13                     14                     15
                      A                      A                      A
 Frequencies --    312.7039               341.5895               355.8961
 Red. masses --      4.3102                 2.7628                 1.1742
 Frc consts  --      0.2483                 0.1899                 0.0876
 IR Inten    --      0.9541                 2.8529                49.1936

                     16                     17                     18
                      A                      A                      A
 Frequencies --    359.1495               412.0997               442.1296
 Red. masses --      4.6985                 3.1858                 4.5780
 Frc consts  --      0.3571                 0.3188                 0.5273
 IR Inten    --     11.5534                 9.9164                 0.8454

                     19                     20                     21
                      A                      A                      A
 Frequencies --    524.6971               553.8252               602.0663
 Red. masses --      2.1787                 2.7561                 4.1087
 Frc consts  --      0.3534                 0.4981                 0.8775
 IR Inten    --     16.7637                 3.9390                 8.5178

                     22                     23                     24
                      A                      A                      A
 Frequencies --    629.2361               650.1971               669.5729
 Red. masses --      3.1698                 3.2608                 1.5664
 Frc consts  --      0.7395                 0.8122                 0.4137
 IR Inten    --     35.1103                 5.9945                38.1281

                     25                     26                     27
                      A                      A                      A
 Frequencies --    682.4166               724.5589               732.0826
 Red. masses --      2.8204                 3.1295                 1.4096
 Frc consts  --      0.7739                 0.9680                 0.4451
 IR Inten    --     55.4303                 4.9187                44.8517

                     28                     29                     30
                      A                      A                      A
 Frequencies --    741.1539               783.0556               805.9364
 Red. masses --      3.0108                 1.1702                 2.5084
 Frc consts  --      0.9744                 0.4228                 0.9600
 IR Inten    --      5.1204                93.5136                72.0313

                     31                     32                     33
                      A                      A                      A
 Frequencies --    826.9991               835.9092               851.5685
 Red. masses --      2.7667                 1.4203                 1.6174
 Frc consts  --      1.1148                 0.5847                 0.6910
 IR Inten    --     60.0829                17.3024               140.7654

                     34                     35                     36
                      A                      A                      A
 Frequencies --    860.6607               885.3847               926.2027
 Red. masses --      1.4587                 2.5671                 1.6124
 Frc consts  --      0.6366                 1.1856                 0.8150
 IR Inten    --     32.4735                 4.2335                 9.7318

                     37                     38                     39
                      A                      A                      A
 Frequencies --    940.5945               981.7280              1021.7343
 Red. masses --      5.7610                 2.7855                 2.2272
 Frc consts  --      3.0030                 1.5817                 1.3699
 IR Inten    --     16.8670                 4.2387                53.1478

                     40                     41                     42
                      A                      A                      A
 Frequencies --   1026.5065              1045.1627              1108.3511
 Red. masses --      4.0361                 4.3696                 2.6688
 Frc consts  --      2.5058                 2.8123                 1.9316
 IR Inten    --      4.7103                18.2558                 6.6508

                     43                     44                     45
                      A                      A                      A
 Frequencies --   1117.9670              1128.6974              1146.9341
 Red. masses --      1.5979                 3.6691                 2.1216
 Frc consts  --      1.1767                 2.7540                 1.6444
 IR Inten    --     60.2057                25.7157                 8.0555

                     46                     47                     48
                      A                      A                      A
 Frequencies --   1164.0387              1199.3945              1203.2715
 Red. masses --      1.4018                 1.4341                 1.9362
 Frc consts  --      1.1191                 1.2155                 1.6517
 IR Inten    --     38.6207                 3.8982                19.0791

                     49                     50                     51
                      A                      A                      A
 Frequencies --   1239.1813              1261.0116              1268.9035
 Red. masses --      1.7327                 2.2985                 1.5950
 Frc consts  --      1.5677                 2.1535                 1.5131
 IR Inten    --     88.8377                15.1723               128.0351

                     52                     53                     54
                      A                      A                      A
 Frequencies --   1278.4432              1304.6596              1320.9341
 Red. masses --      1.5150                 1.2739                 1.3381
 Frc consts  --      1.4589                 1.2775                 1.3756
 IR Inten    --     27.0911                 2.0950                30.0192

                     55                     56                     57
                      A                      A                      A
 Frequencies --   1362.1285              1365.8340              1382.0025
 Red. masses --      1.8162                 1.5155                 1.6389
 Frc consts  --      1.9854                 1.6657                 1.8443
 IR Inten    --    255.5939                 6.2810               213.6014

                     58                     59                     60
                      A                      A                      A
 Frequencies --   1389.4286              1397.1828              1407.3138
 Red. masses --      3.7570                 1.2388                 1.4071
 Frc consts  --      4.2733                 1.4248                 1.6420
 IR Inten    --     23.4991                 1.0258                44.4693

                     61                     62                     63
                      A                      A                      A
 Frequencies --   1430.8735              1452.7093              1476.1598
 Red. masses --      2.7932                 1.1256                 1.3910
 Frc consts  --      3.3694                 1.3996                 1.7859
 IR Inten    --     32.9015                 8.7902                32.9889

                     64                     65                     66
                      A                      A                      A
 Frequencies --   1479.2091              1487.9795              1502.6051
 Red. masses --      1.1498                 1.0905                 3.2571
 Frc consts  --      1.4823                 1.4225                 4.3328
 IR Inten    --      8.8321                 6.9034                18.3988

                     67                     68                     69
                      A                      A                      A
 Frequencies --   1601.6337              1659.0703              1770.6400
 Red. masses --      4.2637                 1.0931                 8.1284
 Frc consts  --      6.4442                 1.7727                15.0147
 IR Inten    --     14.8445                25.0587               382.4062

                     70                     71                     72
                      A                      A                      A
 Frequencies --   1831.3086              3010.0549              3023.1561
 Red. masses --      9.8725                 1.0602                 1.0677
 Frc consts  --     19.5075                 5.6598                 5.7493
 IR Inten    --    237.2128                20.7079                22.3901

                     73                     74                     75
                      A                      A                      A
 Frequencies --   3039.1912              3047.5807              3084.2545
 Red. masses --      1.0811                 1.0815                 1.0832
 Frc consts  --      5.8836                 5.9183                 6.0711
 IR Inten    --     10.5131                32.9911                 7.7094

                     76                     77                     78
                      A                      A                      A
 Frequencies --   3087.8490              3090.7339              3227.3751
 Red. masses --      1.1018                 1.0937                 1.0959
 Frc consts  --      6.1896                 6.1554                 6.7253
 IR Inten    --     19.4581                 3.0191                 7.9013

                     79                     80                     81
                      A                      A                      A
 Frequencies --   3242.3010              3497.6761              3536.7980
 Red. masses --      1.0972                 1.0486                 1.0748
 Frc consts  --      6.7960                 7.5585                 7.9213
 IR Inten    --      1.5289                 2.1710                21.3587

                     82                     83                     84
                      A                      A                      A
 Frequencies --   3582.3459              3587.1999              3657.8656
 Red. masses --      1.0931                 1.0822                 1.0643
 Frc consts  --      8.2649                 8.2048                 8.3904
 IR Inten    --      4.0972               188.4205               174.9563

 - Thermochemistry -
 -------------------
 Temperature   298.150 Kelvin.  Pressure   1.00000 Atm.
 Atom     1 has atomic number  8 and mass  15.99491

 Molecular mass:   226.10659 amu.
 Principal axes and moments of inertia in atomic units:
                           1         2         3
     Eigenvalues --  2355.200956421.471817812.24127
           X            0.97595  -0.18937  -0.10797
           Y            0.05364  -0.27145   0.96096
           Z            0.21129   0.94364   0.25477
 This molecule is an asymmetric top.
 Rotational symmetry number  1.
 Warning -- assumption of classical behavior for rotation
           may cause significant error
 Rotational temperatures (Kelvin)      0.03678     0.01349     0.01109
 Rotational constants (GHZ):           0.76628     0.28105     0.23101
 Zero-point vibrational energy     642902.5 (Joules/Mol)
                                  153.65739 (Kcal/Mol)
 Warning -- explicit consideration of  21 degrees of freedom as
           vibrations may cause significant error
 Vibrational temperatures:     26.53    54.85    73.09    92.17   112.70
          (Kelvin)            126.79   194.26   203.18   218.60   298.67
                              357.35   411.26   449.91   491.47   512.05
                              516.74   592.92   636.13   754.92   796.83
                              866.24   905.33   935.49   963.36   981.84
                             1042.48  1053.30  1066.35  1126.64  1159.56
                             1189.87  1202.69  1225.22  1238.30  1273.87
                             1332.60  1353.30  1412.49  1470.05  1476.91
                             1503.75  1594.67  1608.50  1623.94  1650.18
                             1674.79  1725.66  1731.24  1782.90  1814.31
                             1825.67  1839.39  1877.11  1900.53  1959.80
                             1965.13  1988.39  1999.08  2010.23  2024.81
                             2058.71  2090.12  2123.86  2128.25  2140.87
                             2161.91  2304.39  2387.03  2547.55  2634.84
                             4330.79  4349.64  4372.71  4384.78  4437.55
                             4442.72  4446.87  4643.47  4664.94  5032.37
                             5088.66  5154.19  5161.17  5262.85

 Zero-point correction=                           0.244869 (Hartree/Particle)
 Thermal correction to Energy=                    0.260532
 Thermal correction to Enthalpy=                  0.261476
 Thermal correction to Gibbs Free Energy=         0.199327
 Sum of electronic and zero-point Energies=           -796.112463
 Sum of electronic and thermal Energies=              -796.096799
 Sum of electronic and thermal Enthalpies=            -796.095855
 Sum of electronic and thermal Free Energies=         -796.158005

                     E (Thermal)             CV                S
                      KCal/Mol        Cal/Mol-Kelvin    Cal/Mol-Kelvin
 Total                  163.486             57.772            130.805
 Electronic               0.000              0.000              0.000
 Translational            0.889              2.981             42.150
 Rotational               0.889              2.981             33.135
 Vibrational            161.709             51.811             55.520
 Vibration     1          0.593              1.986              6.796
 Vibration     2          0.594              1.982              5.354
 Vibration     3          0.595              1.977              4.786
 Vibration     4          0.597              1.971              4.328
 Vibration     5          0.600              1.964              3.932
 Vibration     6          0.601              1.958              3.701
 Vibration     7          0.613              1.918              2.873
 Vibration     8          0.615              1.912              2.787
 Vibration     9          0.619              1.901              2.648
 Vibration    10          0.641              1.829              2.065
 Vibration    11          0.662              1.765              1.742
 Vibration    12          0.684              1.700              1.498
 Vibration    13          0.701              1.649              1.348
 Vibration    14          0.721              1.592              1.205
 Vibration    15          0.731              1.563              1.140
 Vibration    16          0.734              1.556              1.126
 Vibration    17          0.776              1.444              0.919
 Vibration    18          0.802              1.378              0.820
 Vibration    19          0.880              1.195              0.599
 Vibration    20          0.909              1.131              0.536
 Vibration    21          0.960              1.027              0.446

 Optimization completed.
    -- Stationary point found.
 Normal termination of Gaussian 09 at Thu Jul 29 06:04:22 2021.
