 Gaussian 09, Revision D.01,
 Gaussian 09:  ES64L-G09RevD.01 24-Apr-2013

 ----------------------------------------------------------------------
 # B3LYP/6-311G(2df,2pd) guess=read geom=checkpoint opt=readfc freq=nor
 aman nosymm integral(ultrafinegrid)
 ----------------------------------------------------------------------

 ------------------------------------------------------------
 Candidate Structure: Conf:150 OPT and FREQ calc in gas phase
 ------------------------------------------------------------
 Structure from the checkpoint file:  "conf-150.chk"
 Charge =  0 Multiplicity = 1

 SCF Done:  E(RB3LYP) =  -796.364607533     A.U. after   11 cycles
 SCF Done:  E(RB3LYP) =  -796.365283356     A.U. after   10 cycles
 SCF Done:  E(RB3LYP) =  -796.365287201     A.U. after    9 cycles
 SCF Done:  E(RB3LYP) =  -796.365287645     A.U. after    9 cycles
 SCF Done:  E(RB3LYP) =  -796.365287767     A.U. after    8 cycles
 SCF Done:  E(RB3LYP) =  -796.365287773     A.U. after    6 cycles
 Optimization completed.
    -- Stationary point found.
 Normal termination of Gaussian 09 at Thu Jul 29 02:54:30 2021.

 ----------------------------------------------------------------------
 #N Geom=AllCheck Guess=TCheck SCRF=Check GenChk RB3LYP/6-311G(2df,2pd)
  Freq
 ----------------------------------------------------------------------

 Structure from the checkpoint file:  "conf-150.chk"
 ------------------------------------------------------------
 Candidate Structure: Conf:150 OPT and FREQ calc in gas phase
 ------------------------------------------------------------
 Charge =  0 Multiplicity = 1

                          Input orientation:
 ---------------------------------------------------------------------
 Center     Atomic      Atomic             Coordinates (Angstroms)
 Number     Number       Type             X           Y           Z
 ---------------------------------------------------------------------
      1          8           0       -1.162594   -1.889941   -0.741870
      2          6           0       -1.306443   -0.750244   -0.334399
      3          7           0       -0.375788   -0.149165    0.466169
      4          6           0        0.728795   -0.905773    1.023220
      5          6           0        1.114017   -0.260020    2.342180
      6          8           0        2.103005   -0.929903    2.954930
      7          8           0        0.602858    0.730107    2.796972
      8          6           0        1.940022   -1.022242    0.060826
      9          6           0        2.632006    0.263609   -0.235646
     10          6           0        3.858783    0.749531    0.135968
     11          7           0        4.073826    2.003855   -0.381352
     12          6           0        2.991292    2.285473   -1.061306
     13          7           0        2.086600    1.268070   -1.009258
     14          6           0       -2.492218    0.119191   -0.721994
     15          6           0       -3.739904   -0.701862   -1.031647
     16          7           0       -4.783015    0.163528   -1.585065
     17          1           0       -0.608407    0.700470    0.958631
     18          1           0        0.387994   -1.924128    1.228273
     19          1           0        2.313391   -0.449549    3.768655
     20          1           0        1.563988   -1.494980   -0.847936
     21          1           0        2.660523   -1.707943    0.503486
     22          1           0        4.599084    0.254759    0.742715
     23          1           0        2.804542    3.195939   -1.606567
     24          1           0        1.175132    1.249234   -1.432079
     25          1           0       -2.225357    0.686708   -1.617947
     26          1           0       -2.695817    0.855060    0.060757
     27          1           0       -3.478390   -1.452168   -1.775852
     28          1           0       -4.043377   -1.250891   -0.130217
     29          1           0       -5.173568    0.758492   -0.863165
     30          1           0       -5.550667   -0.395608   -1.935945
 ---------------------------------------------------------------------

 SCF Done:  E(RB3LYP) =  -796.365287773     A.U. after    1 cycles

 Alpha  occ. eigenvalues --  -19.18972 -19.13397 -19.09558 -14.36545 -14.34751
 Alpha  occ. eigenvalues --  -14.29355 -14.28521 -10.32463 -10.28031 -10.24188
 Alpha  occ. eigenvalues --  -10.21911 -10.20282 -10.19776 -10.19639 -10.18575
 Alpha  occ. eigenvalues --  -10.17686  -1.13535  -1.05303  -1.04561  -1.01626
 Alpha  occ. eigenvalues --   -0.94262  -0.88965  -0.87181  -0.81494  -0.76977
 Alpha  occ. eigenvalues --   -0.74402  -0.68830  -0.65388  -0.61733  -0.61151
 Alpha  occ. eigenvalues --   -0.60030  -0.59137  -0.53988  -0.53727  -0.51552
 Alpha  occ. eigenvalues --   -0.50573  -0.49981  -0.48947  -0.47489  -0.46147
 Alpha  occ. eigenvalues --   -0.45658  -0.44539  -0.43945  -0.42852  -0.42373
 Alpha  occ. eigenvalues --   -0.40880  -0.40767  -0.40250  -0.39261  -0.38845
 Alpha  occ. eigenvalues --   -0.36621  -0.35522  -0.34964  -0.30867  -0.28534
 Alpha  occ. eigenvalues --   -0.28123  -0.27016  -0.26850  -0.24946  -0.22912
 Alpha virt. eigenvalues --   -0.01692   0.00381   0.01255   0.02085   0.02484
 Alpha virt. eigenvalues --    0.03077   0.05264   0.05394   0.07626   0.07766
 Alpha virt. eigenvalues --    0.08224   0.08768   0.09448   0.10151   0.10503

 Mulliken charges:
               1
     1  O   -0.422666
     2  C    0.444016
     3  N   -0.313766
     4  C    0.034462
     5  C    0.588838
     6  O   -0.344867
     7  O   -0.379816
     8  C    0.009623
     9  C    0.063858
    10  C    0.115740
    11  N   -0.352970
    12  C    0.236214
    13  N   -0.227397
    14  C   -0.056437
    15  C    0.204345
    16  N   -0.328529
    17  H    0.104815
    18  H    0.023249
    19  H    0.225564
    20  H    0.035747
    21  H    0.020715
    22  H    0.004192
    23  H    0.016075
    24  H    0.101013
    25  H    0.014602
    26  H    0.000636
    27  H    0.017882
    28  H   -0.014709
    29  H    0.093160
    30  H    0.086411
 Sum of Mulliken charges =   0.00000

 Dipole moment (field-independent basis, Debye):
    X=             -3.0729    Y=             -0.3671    Z=              1.3455  Tot=              3.3746
 Quadrupole moment (field-independent basis, Debye-Ang):
   XX=            -98.2707   YY=           -101.0549   ZZ=            -89.4646
   XY=            -10.6159   XZ=              3.0628   YZ=             -6.5629

  Exact polarizability: 159.131   7.797 129.219  19.630  -7.297 118.434
 Approx polarizability: 208.729   2.937 216.276  24.468  -2.421 176.465

                      1                      2                      3
                      A                      A                      A
 Frequencies --     17.4504                31.8187                46.9845
 Red. masses --      2.9843                 4.1355                 3.9247
 Frc consts  --      0.0005                 0.0025                 0.0051
 IR Inten    --      0.9979                 1.0280                 9.2295

                      4                      5                      6
                      A                      A                      A
 Frequencies --     51.5681                62.3699                69.9375
 Red. masses --      4.2576                 6.0330                 6.0074
 Frc consts  --      0.0067                 0.0138                 0.0173
 IR Inten    --      2.7816                 0.4216                 2.3119

                      7                      8                      9
                      A                      A                      A
 Frequencies --     75.4588               123.2483               126.3004
 Red. masses --      5.4266                 4.2342                 4.4459
 Frc consts  --      0.0182                 0.0379                 0.0418
 IR Inten    --      0.8833                 4.2483                 4.0587

                     10                     11                     12
                      A                      A                      A
 Frequencies --    188.4456               218.3380               245.7156
 Red. masses --      5.0271                 2.8148                 1.7811
 Frc consts  --      0.1052                 0.0791                 0.0634
 IR Inten    --      1.7684                11.9064                31.3836

                     13                     14                     15
                      A                      A                      A
 Frequencies --    261.3622               309.0184               330.5157
 Red. masses --      3.0034                 4.7939                 6.0733
 Frc consts  --      0.1209                 0.2697                 0.3909
 IR Inten    --     20.4307                 1.6044                 2.7210

                     16                     17                     18
                      A                      A                      A
 Frequencies --    367.7200               397.3771               476.6169
 Red. masses --      2.3201                 3.7039                 3.1366
 Frc consts  --      0.1848                 0.3446                 0.4198
 IR Inten    --      2.3822                 5.2811                12.7742

                     19                     20                     21
                      A                      A                      A
 Frequencies --    507.3233               542.2794               579.2748
 Red. masses --      1.3284                 3.3370                 1.5950
 Frc consts  --      0.2014                 0.5782                 0.3153
 IR Inten    --    111.5456                18.6262                13.9495

                     22                     23                     24
                      A                      A                      A
 Frequencies --    595.6061               614.5684               642.2120
 Red. masses --      3.0866                 2.0139                 1.8895
 Frc consts  --      0.6451                 0.4482                 0.4591
 IR Inten    --     39.7330                78.8017                 2.4623

                     25                     26                     27
                      A                      A                      A
 Frequencies --    657.5245               686.4116               709.5472
 Red. masses --      2.2667                 2.7792                 3.3638
 Frc consts  --      0.5774                 0.7715                 0.9978
 IR Inten    --     15.8898                 4.2324                44.6065

                     28                     29                     30
                      A                      A                      A
 Frequencies --    733.9666               778.7109               807.8862
 Red. masses --      3.9533                 2.6984                 1.5161
 Frc consts  --      1.2548                 0.9641                 0.5830
 IR Inten    --     12.5768                26.5843                 9.7107

                     31                     32                     33
                      A                      A                      A
 Frequencies --    824.7147               853.8208               859.7933
 Red. masses --      1.4176                 1.5669                 1.4178
 Frc consts  --      0.5681                 0.6730                 0.6175
 IR Inten    --     17.2913                87.2935                35.6722

                     34                     35                     36
                      A                      A                      A
 Frequencies --    872.2792               921.3558               937.5496
 Red. masses --      2.3003                 3.6975                 5.1785
 Frc consts  --      1.0312                 1.8493                 2.6819
 IR Inten    --      6.1662                10.2730                18.2744

                     37                     38                     39
                      A                      A                      A
 Frequencies --    968.7850               985.5832              1019.7465
 Red. masses --      3.0835                 2.1316                 2.8335
 Frc consts  --      1.7051                 1.2200                 1.7360
 IR Inten    --      6.3337                 5.5551                23.8822

                     40                     41                     42
                      A                      A                      A
 Frequencies --   1028.2834              1061.1108              1094.7964
 Red. masses --      3.2009                 2.8652                 2.0401
 Frc consts  --      1.9941                 1.9007                 1.4407
 IR Inten    --      1.0796                18.3526                26.9508

                     43                     44                     45
                      A                      A                      A
 Frequencies --   1107.3027              1112.0269              1143.2350
 Red. masses --      1.6025                 2.4782                 2.1811
 Frc consts  --      1.1576                 1.8056                 1.6795
 IR Inten    --     13.8712                50.4451                10.5010

                     46                     47                     48
                      A                      A                      A
 Frequencies --   1159.5580              1179.0570              1210.5816
 Red. masses --      1.5236                 2.3111                 1.3636
 Frc consts  --      1.2070                 1.8929                 1.1774
 IR Inten    --     50.5647               169.1737                 1.4826

                     49                     50                     51
                      A                      A                      A
 Frequencies --   1231.2779              1249.7907              1262.7077
 Red. masses --      1.8194                 2.0206                 1.5757
 Frc consts  --      1.6252                 1.8595                 1.4803
 IR Inten    --     50.9000                 8.0178                 0.3445

                     52                     53                     54
                      A                      A                      A
 Frequencies --   1269.3944              1292.8056              1316.7513
 Red. masses --      1.4991                 1.3246                 1.4106
 Frc consts  --      1.4233                 1.3044                 1.4410
 IR Inten    --     24.3861                 4.1693                 3.9997

                     55                     56                     57
                      A                      A                      A
 Frequencies --   1338.7561              1364.3052              1378.3653
 Red. masses --      1.1151                 1.5027                 2.0316
 Frc consts  --      1.1775                 1.6480                 2.2742
 IR Inten    --      5.5472                 4.8040                 7.8578

                     58                     59                     60
                      A                      A                      A
 Frequencies --   1393.1786              1410.6732              1425.6449
 Red. masses --      1.9322                 2.3955                 2.4909
 Frc consts  --      2.2096                 2.8087                 2.9829
 IR Inten    --     22.9680               141.8595                14.9404

                     61                     62                     63
                      A                      A                      A
 Frequencies --   1427.9771              1469.8733              1486.1640
 Red. masses --      1.6482                 1.0903                 1.1557
 Frc consts  --      1.9801                 1.3879                 1.5039
 IR Inten    --     45.9637                 9.1906                12.1831

                     64                     65                     66
                      A                      A                      A
 Frequencies --   1500.6385              1517.5540              1518.9374
 Red. masses --      3.3341                 2.0253                 1.0900
 Frc consts  --      4.4236                 2.7481                 1.4817
 IR Inten    --     84.5896               242.4014                 2.8515

                     67                     68                     69
                      A                      A                      A
 Frequencies --   1607.9077              1665.9463              1745.9355
 Red. masses --      4.4042                 1.0890                 9.3780
 Frc consts  --      6.7087                 1.7807                16.8428
 IR Inten    --      8.0580                20.6407               213.4995

                     70                     71                     72
                      A                      A                      A
 Frequencies --   1817.4360              2961.0673              3023.2496
 Red. masses --      9.8999                 1.0744                 1.0594
 Frc consts  --     19.2663                 5.5501                 5.7049
 IR Inten    --    204.4556                60.4632                17.9867

                     73                     74                     75
                      A                      A                      A
 Frequencies --   3040.3084              3055.7064              3055.9506
 Red. masses --      1.0808                 1.0995                 1.0662
 Frc consts  --      5.8860                 6.0488                 5.8665
 IR Inten    --     11.6243                12.9765                 9.7030

                     76                     77                     78
                      A                      A                      A
 Frequencies --   3095.4992              3108.0685              3234.3864
 Red. masses --      1.0899                 1.0989                 1.0953
 Frc consts  --      6.1534                 6.2542                 6.7507
 IR Inten    --     16.2275                 6.9303                 7.3790

                     79                     80                     81
                      A                      A                      A
 Frequencies --   3241.3335              3490.9228              3565.1614
 Red. masses --      1.0978                 1.0503                 1.0917
 Frc consts  --      6.7958                 7.5412                 8.1755
 IR Inten    --      0.5647                 0.5796                 0.3223

                     82                     83                     84
                      A                      A                      A
 Frequencies --   3587.1213              3657.3859              3752.6373
 Red. masses --      1.0770                 1.0810                 1.0641
 Frc consts  --      8.1651                 8.5193                 8.8292
 IR Inten    --     65.5436                49.4626                84.6493

 - Thermochemistry -
 -------------------
 Temperature   298.150 Kelvin.  Pressure   1.00000 Atm.
 Atom     1 has atomic number  8 and mass  15.99491

 Molecular mass:   226.10659 amu.
 Principal axes and moments of inertia in atomic units:
                           1         2         3
     Eigenvalues --  2275.192126426.282467526.71431
           X            0.95689  -0.09974  -0.27277
           Y            0.19177  -0.48837   0.85130
           Z            0.21812   0.86692   0.44820
 This molecule is an asymmetric top.
 Rotational symmetry number  1.
 Warning -- assumption of classical behavior for rotation
           may cause significant error
 Rotational temperatures (Kelvin)      0.03807     0.01348     0.01151
 Rotational constants (GHZ):           0.79323     0.28084     0.23978
 Zero-point vibrational energy     640934.9 (Joules/Mol)
                                  153.18713 (Kcal/Mol)
 Warning -- explicit consideration of  23 degrees of freedom as
           vibrations may cause significant error
 Vibrational temperatures:     25.11    45.78    67.60    74.19    89.74
          (Kelvin)            100.62   108.57   177.33   181.72   271.13
                              314.14   353.53   376.04   444.61   475.54
                              529.07   571.74   685.74   729.92   780.22
                              833.45   856.94   884.23   924.00   946.03
                              987.59  1020.88  1056.01  1120.39  1162.37
                             1186.58  1228.46  1237.05  1255.01  1325.62
                             1348.92  1393.86  1418.03  1467.19  1479.47
                             1526.70  1575.17  1593.16  1599.96  1644.86
                             1668.34  1696.40  1741.75  1771.53  1798.17
                             1816.75  1826.37  1860.06  1894.51  1926.17
                             1962.93  1983.16  2004.47  2029.64  2051.18
                             2054.54  2114.82  2138.26  2159.08  2183.42
                             2185.41  2313.42  2396.92  2512.01  2614.88
                             4260.31  4349.78  4374.32  4396.47  4396.83
                             4453.73  4471.81  4653.55  4663.55  5022.65
                             5129.47  5161.06  5262.16  5399.20

 Zero-point correction=                           0.244119 (Hartree/Particle)
 Thermal correction to Energy=                    0.260429
 Thermal correction to Enthalpy=                  0.261374
 Thermal correction to Gibbs Free Energy=         0.196793
 Sum of electronic and zero-point Energies=           -796.121169
 Sum of electronic and thermal Energies=              -796.104858
 Sum of electronic and thermal Enthalpies=            -796.103914
 Sum of electronic and thermal Free Energies=         -796.168494

                     E (Thermal)             CV                S
                      KCal/Mol        Cal/Mol-Kelvin    Cal/Mol-Kelvin
 Total                  163.422             58.558            135.921
 Electronic               0.000              0.000              0.000
 Translational            0.889              2.981             42.150
 Rotational               0.889              2.981             33.064
 Vibrational            161.644             52.597             60.706
 Vibration     1          0.593              1.986              6.905
 Vibration     2          0.594              1.983              5.713
 Vibration     3          0.595              1.979              4.940
 Vibration     4          0.596              1.977              4.756
 Vibration     5          0.597              1.972              4.381
 Vibration     6          0.598              1.968              4.155
 Vibration     7          0.599              1.965              4.006
 Vibration     8          0.610              1.930              3.049
 Vibration     9          0.611              1.927              3.002
 Vibration    10          0.633              1.856              2.243
 Vibration    11          0.646              1.813              1.973
 Vibration    12          0.660              1.770              1.761
 Vibration    13          0.669              1.743              1.653
 Vibration    14          0.698              1.657              1.368
 Vibration    15          0.713              1.615              1.258
 Vibration    16          0.740              1.539              1.089
 Vibration    17          0.764              1.476              0.972
 Vibration    18          0.833              1.302              0.719
 Vibration    19          0.863              1.234              0.640
 Vibration    20          0.897              1.157              0.560
 Vibration    21          0.936              1.076              0.487
 Vibration    22          0.953              1.041              0.457
 Vibration    23          0.974              1.001              0.425

 Optimization completed.
    -- Stationary point found.
 Normal termination of Gaussian 09 at Thu Jul 29 06:23:29 2021.
