 Gaussian 09, Revision D.01,
 Gaussian 09:  ES64L-G09RevD.01 24-Apr-2013

 ----------------------------------------------------------------------
 # B3LYP/6-311G(2df,2pd) guess=read geom=checkpoint opt=readfc freq=nor
 aman nosymm integral(ultrafinegrid)
 ----------------------------------------------------------------------

 ------------------------------------------------------------
 Candidate Structure: Conf:338 OPT and FREQ calc in gas phase
 ------------------------------------------------------------
 Structure from the checkpoint file:  "conf-338.chk"
 Charge =  0 Multiplicity = 1

 SCF Done:  E(RB3LYP) =  -796.372410448     A.U. after   11 cycles
 SCF Done:  E(RB3LYP) =  -796.373120962     A.U. after   10 cycles
 SCF Done:  E(RB3LYP) =  -796.373124132     A.U. after    9 cycles
 SCF Done:  E(RB3LYP) =  -796.373124227     A.U. after    7 cycles
 Optimization completed.
    -- Stationary point found.
 Normal termination of Gaussian 09 at Thu Jul 29 02:24:51 2021.

 ----------------------------------------------------------------------
 #N Geom=AllCheck Guess=TCheck SCRF=Check GenChk RB3LYP/6-311G(2df,2pd)
  Freq
 ----------------------------------------------------------------------

 Structure from the checkpoint file:  "conf-338.chk"
 ------------------------------------------------------------
 Candidate Structure: Conf:338 OPT and FREQ calc in gas phase
 ------------------------------------------------------------
 Charge =  0 Multiplicity = 1

                          Input orientation:
 ---------------------------------------------------------------------
 Center     Atomic      Atomic             Coordinates (Angstroms)
 Number     Number       Type             X           Y           Z
 ---------------------------------------------------------------------
      1          8           0        0.577153    0.487178    1.767829
      2          6           0        1.283024    0.047625    0.861984
      3          7           0        0.787346   -0.567563   -0.229749
      4          6           0       -0.628505   -0.810633   -0.405151
      5          6           0       -0.789665   -1.956560   -1.384935
      6          8           0       -2.063952   -2.386066   -1.425130
      7          8           0        0.086160   -2.423292   -2.064578
      8          6           0       -1.436532    0.450614   -0.892502
      9          6           0       -2.455114    0.945799    0.074461
     10          6           0       -3.796561    1.202315   -0.048339
     11          7           0       -4.313627    1.677334    1.131562
     12          6           0       -3.297066    1.702809    1.961963
     13          7           0       -2.148741    1.275986    1.374930
     14          6           0        2.802025    0.158713    0.951382
     15          6           0        3.561787    0.395038   -0.356343
     16          7           0        3.455876   -0.762036   -1.253113
     17          1           0        1.444998   -0.937448   -0.915789
     18          1           0       -1.053306   -1.128773    0.547423
     19          1           0       -2.106619   -3.091971   -2.085823
     20          1           0       -1.946386    0.230438   -1.829288
     21          1           0       -0.695803    1.222389   -1.113294
     22          1           0       -4.412410    1.071174   -0.923182
     23          1           0       -3.334750    2.016955    2.992104
     24          1           0       -1.227654    1.147042    1.784780
     25          1           0        3.000921    0.970118    1.649406
     26          1           0        3.171050   -0.755646    1.427857
     27          1           0        3.133274    1.254940   -0.874526
     28          1           0        4.596945    0.658894   -0.110152
     29          1           0        3.989509   -1.546809   -0.898064
     30          1           0        3.816559   -0.548520   -2.173943
 ---------------------------------------------------------------------

 SCF Done:  E(RB3LYP) =  -796.373124227     A.U. after    1 cycles

 Alpha  occ. eigenvalues --  -19.18324 -19.12785 -19.09512 -14.33842 -14.33704
 Alpha  occ. eigenvalues --  -14.32028 -14.26708 -10.31892 -10.28018 -10.23746
 Alpha  occ. eigenvalues --  -10.22025 -10.19955 -10.19247 -10.19128 -10.18483
 Alpha  occ. eigenvalues --  -10.16050  -1.12919  -1.04920  -1.03974  -0.99533
 Alpha  occ. eigenvalues --   -0.93922  -0.91125  -0.85168  -0.80586  -0.77228
 Alpha  occ. eigenvalues --   -0.73712  -0.67614  -0.65860  -0.62604  -0.59423
 Alpha  occ. eigenvalues --   -0.58906  -0.57190  -0.54119  -0.53263  -0.52238
 Alpha  occ. eigenvalues --   -0.50660  -0.49173  -0.47884  -0.47588  -0.47216
 Alpha  occ. eigenvalues --   -0.45893  -0.43963  -0.42691  -0.42514  -0.41670
 Alpha  occ. eigenvalues --   -0.41044  -0.39628  -0.39219  -0.38896  -0.38606
 Alpha  occ. eigenvalues --   -0.38067  -0.36161  -0.34392  -0.30283  -0.27969
 Alpha  occ. eigenvalues --   -0.27577  -0.26803  -0.26349  -0.25093  -0.21203
 Alpha virt. eigenvalues --   -0.01312   0.00288   0.01906   0.02603   0.03462
 Alpha virt. eigenvalues --    0.05176   0.05328   0.06742   0.07354   0.07912
 Alpha virt. eigenvalues --    0.08534   0.08704   0.09766   0.11110   0.11727

 Mulliken charges:
               1
     1  O   -0.471839
     2  C    0.459928
     3  N   -0.318684
     4  C    0.097386
     5  C    0.506430
     6  O   -0.341387
     7  O   -0.367886
     8  C    0.014702
     9  C    0.091129
    10  C    0.099559
    11  N   -0.359859
    12  C    0.226963
    13  N   -0.241437
    14  C   -0.022883
    15  C    0.118603
    16  N   -0.266726
    17  H    0.118795
    18  H    0.024100
    19  H    0.223146
    20  H    0.001101
    21  H    0.019353
    22  H   -0.005256
    23  H    0.009325
    24  H    0.139035
    25  H    0.017020
    26  H    0.017215
    27  H    0.023843
    28  H   -0.000156
    29  H    0.102259
    30  H    0.086221
 Sum of Mulliken charges =   0.00000

 Dipole moment (field-independent basis, Debye):
    X=              6.5538    Y=             -2.1862    Z=             -2.4932  Tot=              7.3449
 Quadrupole moment (field-independent basis, Debye-Ang):
   XX=            -99.1225   YY=            -93.8867   ZZ=            -91.6655
   XY=             11.1063   XZ=              5.8646   YZ=             -0.9557

  Exact polarizability: 167.522 -10.810 111.899  -6.231  24.541 132.356
 Approx polarizability: 226.611 -13.931 166.057  -7.932  30.924 212.061

                      1                      2                      3
                      A                      A                      A
 Frequencies --     19.0153                45.4141                54.3789
 Red. masses --      5.0783                 5.5358                 8.3722
 Frc consts  --      0.0011                 0.0067                 0.0146
 IR Inten    --      0.4417                 2.1258                 2.2448

                      4                      5                      6
                      A                      A                      A
 Frequencies --     71.2639                78.2677                97.8622
 Red. masses --      3.5252                 4.5564                 4.5146
 Frc consts  --      0.0105                 0.0164                 0.0255
 IR Inten    --      0.4003                 0.4632                 5.9188

                      7                      8                      9
                      A                      A                      A
 Frequencies --    110.6973               125.0634               179.0138
 Red. masses --      6.2513                 6.1246                 2.5741
 Frc consts  --      0.0451                 0.0564                 0.0486
 IR Inten    --      5.2672                 4.8351                 5.9863

                     10                     11                     12
                      A                      A                      A
 Frequencies --    196.0938               235.8195               283.3142
 Red. masses --      5.5943                 3.6798                 3.2872
 Frc consts  --      0.1267                 0.1206                 0.1555
 IR Inten    --      2.3078                 5.5667                 4.0947

                     13                     14                     15
                      A                      A                      A
 Frequencies --    296.1787               304.4505               328.2222
 Red. masses --      1.3037                 3.8432                 4.1847
 Frc consts  --      0.0674                 0.2099                 0.2656
 IR Inten    --      9.3173                 5.6815                 0.6284

                     16                     17                     18
                      A                      A                      A
 Frequencies --    354.4328               419.8978               462.8739
 Red. masses --      4.5336                 3.4331                 2.5808
 Frc consts  --      0.3356                 0.3566                 0.3258
 IR Inten    --      4.2142                 7.5511                22.5545

                     19                     20                     21
                      A                      A                      A
 Frequencies --    516.1452               589.2968               608.7940
 Red. masses --      3.2160                 1.4591                 3.4491
 Frc consts  --      0.5048                 0.2985                 0.7532
 IR Inten    --     38.4750                76.9682                 4.4828

                     22                     23                     24
                      A                      A                      A
 Frequencies --    637.6206               650.7896               681.7830
 Red. masses --      3.7039                 3.5142                 3.4224
 Frc consts  --      0.8872                 0.8769                 0.9373
 IR Inten    --     30.7272                 4.2953                46.7676

                     25                     26                     27
                      A                      A                      A
 Frequencies --    699.1134               718.8861               771.5531
 Red. masses --      3.4422                 3.3220                 3.7209
 Frc consts  --      0.9912                 1.0115                 1.3051
 IR Inten    --     15.6104                11.9593                 2.8514

                     28                     29                     30
                      A                      A                      A
 Frequencies --    782.9549               799.6895               830.7649
 Red. masses --      1.1100                 1.2036                 1.4233
 Frc consts  --      0.4009                 0.4535                 0.5787
 IR Inten    --     40.9223                33.1767                17.1509

                     31                     32                     33
                      A                      A                      A
 Frequencies --    842.1737               844.1264               862.0250
 Red. masses --      1.4201                 1.6386                 2.0319
 Frc consts  --      0.5934                 0.6879                 0.8896
 IR Inten    --     80.3671                16.1117                25.9272

                     34                     35                     36
                      A                      A                      A
 Frequencies --    899.2556               913.1150               942.1549
 Red. masses --      2.4503                 1.9806                 5.8796
 Frc consts  --      1.1674                 0.9730                 3.0750
 IR Inten    --     14.6534                10.6655                22.5639

                     37                     38                     39
                      A                      A                      A
 Frequencies --    964.3018               986.1172              1009.5100
 Red. masses --      3.0407                 3.0450                 1.8379
 Frc consts  --      1.6659                 1.7446                 1.1036
 IR Inten    --      9.4439                 3.4795                 4.2116

                     40                     41                     42
                      A                      A                      A
 Frequencies --   1022.7593              1027.6810              1084.7561
 Red. masses --      3.5715                 2.6909                 2.6391
 Frc consts  --      2.2011                 1.6744                 1.8296
 IR Inten    --      1.3874                35.3239                 6.7384

                     43                     44                     45
                      A                      A                      A
 Frequencies --   1125.6901              1133.1845              1148.6556
 Red. masses --      3.1860                 1.9587                 1.8878
 Frc consts  --      2.3787                 1.4819                 1.4675
 IR Inten    --     50.9441                50.3286                 4.6090

                     46                     47                     48
                      A                      A                      A
 Frequencies --   1157.1036              1172.6616              1214.1740
 Red. masses --      1.3724                 2.5495                 1.2870
 Frc consts  --      1.0826                 2.0656                 1.1179
 IR Inten    --     22.3223               159.4835                 9.6978

                     49                     50                     51
                      A                      A                      A
 Frequencies --   1259.9209              1264.0216              1279.7003
 Red. masses --      1.4801                 2.2344                 1.3961
 Frc consts  --      1.3843                 2.1034                 1.3471
 IR Inten    --     21.2379                10.8905                 9.1630

                     52                     53                     54
                      A                      A                      A
 Frequencies --   1287.3350              1306.5994              1314.2190
 Red. masses --      1.2939                 1.4533                 1.3436
 Frc consts  --      1.2634                 1.4618                 1.3672
 IR Inten    --     14.7641                 2.7331                 2.2208

                     55                     56                     57
                      A                      A                      A
 Frequencies --   1331.6474              1356.7660              1371.6254
 Red. masses --      1.4859                 1.4393                 1.4113
 Frc consts  --      1.5525                 1.5611                 1.5643
 IR Inten    --      5.7208                26.2155                 3.2981

                     58                     59                     60
                      A                      A                      A
 Frequencies --   1387.2733              1407.7250              1422.4448
 Red. masses --      3.7539                 2.1550                 1.4583
 Frc consts  --      4.2566                 2.5161                 1.7384
 IR Inten    --     14.1128                62.9300                24.9063

                     61                     62                     63
                      A                      A                      A
 Frequencies --   1446.9767              1468.0017              1478.6931
 Red. masses --      2.3214                 1.0827                 1.1533
 Frc consts  --      2.8637                 1.3747                 1.4857
 IR Inten    --     73.1926                12.7842                14.7151

                     64                     65                     66
                      A                      A                      A
 Frequencies --   1504.1124              1514.5854              1565.8513
 Red. masses --      3.2839                 1.0919                 2.0646
 Frc consts  --      4.3772                 1.4758                 2.9825
 IR Inten    --     21.1659                 7.7764               324.4451

                     67                     68                     69
                      A                      A                      A
 Frequencies --   1609.5522              1659.7079              1711.6546
 Red. masses --      3.9799                 1.0896                 8.1564
 Frc consts  --      6.0749                 1.7683                14.0793
 IR Inten    --     26.2577                30.1885               303.6253

                     70                     71                     72
                      A                      A                      A
 Frequencies --   1821.0187              2981.8273              3021.1096
 Red. masses --      9.8574                 1.0723                 1.0709
 Frc consts  --     19.2593                 5.6174                 5.7586
 IR Inten    --    264.4016                78.7006                 6.5160

                     73                     74                     75
                      A                      A                      A
 Frequencies --   3033.5603              3059.9575              3067.8625
 Red. masses --      1.0674                 1.0904                 1.0836
 Frc consts  --      5.7876                 6.0156                 6.0090
 IR Inten    --     21.8435                26.8836                11.6538

                     76                     77                     78
                      A                      A                      A
 Frequencies --   3093.3123              3103.8778              3228.1932
 Red. masses --      1.0951                 1.0918                 1.0955
 Frc consts  --      6.1738                 6.1974                 6.7267
 IR Inten    --     10.0790                 8.8207                10.7437

                     79                     80                     81
                      A                      A                      A
 Frequencies --   3239.2985              3401.2048              3469.4558
 Red. masses --      1.0971                 1.0811                 1.0857
 Frc consts  --      6.7824                 7.3684                 7.7002
 IR Inten    --      2.0398               361.6411               430.2563

                     82                     83                     84
                      A                      A                      A
 Frequencies --   3502.7396              3581.1286              3754.4954
 Red. masses --      1.0501                 1.0928                 1.0641
 Frc consts  --      7.5911                 8.2572                 8.8376
 IR Inten    --      0.3133                 4.0978                80.1074

 - Thermochemistry -
 -------------------
 Temperature   298.150 Kelvin.  Pressure   1.00000 Atm.
 Atom     1 has atomic number  8 and mass  15.99491

 Molecular mass:   226.10659 amu.
 Principal axes and moments of inertia in atomic units:
                           1         2         3
     Eigenvalues --  2385.363825378.167097209.95001
           X            0.94200   0.33235  -0.04675
           Y           -0.27155   0.67287  -0.68812
           Z           -0.19724   0.66091   0.72409
 This molecule is an asymmetric top.
 Rotational symmetry number  1.
 Warning -- assumption of classical behavior for rotation
           may cause significant error
 Rotational temperatures (Kelvin)      0.03631     0.01610     0.01201
 Rotational constants (GHZ):           0.75659     0.33557     0.25031
 Zero-point vibrational energy     643630.1 (Joules/Mol)
                                  153.83129 (Kcal/Mol)
 Warning -- explicit consideration of  21 degrees of freedom as
           vibrations may cause significant error
 Vibrational temperatures:     27.36    65.34    78.24   102.53   112.61
          (Kelvin)            140.80   159.27   179.94   257.56   282.13
                              339.29   407.63   426.13   438.04   472.24
                              509.95   604.14   665.97   742.62   847.87
                              875.92   917.39   936.34   980.93  1005.87
                             1034.32  1110.09  1126.50  1150.57  1195.28
                             1211.70  1214.51  1240.26  1293.83  1313.77
                             1355.55  1387.41  1418.80  1452.46  1471.52
                             1478.60  1560.72  1619.61  1630.40  1652.66
                             1664.81  1687.20  1746.92  1812.74  1818.64
                             1841.20  1852.19  1879.90  1890.87  1915.94
                             1952.08  1973.46  1995.97  2025.40  2046.58
                             2081.87  2112.12  2127.51  2164.08  2179.15
                             2252.91  2315.78  2387.95  2462.69  2620.04
                             4290.18  4346.70  4364.61  4402.59  4413.96
                             4450.58  4465.78  4644.64  4660.62  4893.57
                             4991.77  5039.65  5152.44  5401.87

 Zero-point correction=                           0.245146 (Hartree/Particle)
 Thermal correction to Energy=                    0.260796
 Thermal correction to Enthalpy=                  0.261740
 Thermal correction to Gibbs Free Energy=         0.199889
 Sum of electronic and zero-point Energies=           -796.127978
 Sum of electronic and thermal Energies=              -796.112328
 Sum of electronic and thermal Enthalpies=            -796.111384
 Sum of electronic and thermal Free Energies=         -796.173236

                     E (Thermal)             CV                S
                      KCal/Mol        Cal/Mol-Kelvin    Cal/Mol-Kelvin
 Total                  163.652             57.384            130.178
 Electronic               0.000              0.000              0.000
 Translational            0.889              2.981             42.150
 Rotational               0.889              2.981             32.892
 Vibrational            161.875             51.422             55.136
 Vibration     1          0.593              1.986              6.734
 Vibration     2          0.595              1.979              5.008
 Vibration     3          0.596              1.976              4.651
 Vibration     4          0.598              1.968              4.118
 Vibration     5          0.600              1.964              3.934
 Vibration     6          0.603              1.951              3.496
 Vibration     7          0.607              1.941              3.257
 Vibration     8          0.610              1.928              3.021
 Vibration     9          0.629              1.868              2.339
 Vibration    10          0.636              1.845              2.169
 Vibration    11          0.655              1.786              1.834
 Vibration    12          0.682              1.705              1.514
 Vibration    13          0.690              1.681              1.438
 Vibration    14          0.695              1.665              1.392
 Vibration    15          0.711              1.619              1.269
 Vibration    16          0.730              1.566              1.146
 Vibration    17          0.783              1.427              0.892
 Vibration    18          0.821              1.332              0.758
 Vibration    19          0.871              1.214              0.619
 Vibration    20          0.947              1.055              0.468
 Vibration    21          0.968              1.013              0.435

 Optimization completed.
    -- Stationary point found.
 Normal termination of Gaussian 09 at Thu Jul 29 05:47:45 2021.
