 Gaussian 09, Revision D.01,
 Gaussian 09:  ES64L-G09RevD.01 24-Apr-2013

 ----------------------------------------------------------------------
 # B3LYP/6-311G(2df,2pd) guess=read geom=checkpoint opt=readfc freq=nor
 aman nosymm integral(ultrafinegrid)
 ----------------------------------------------------------------------

 ------------------------------------------------------------
 Candidate Structure: Conf:422 OPT and FREQ calc in gas phase
 ------------------------------------------------------------
 Structure from the checkpoint file:  "conf-422.chk"
 Charge =  0 Multiplicity = 1

 SCF Done:  E(RB3LYP) =  -796.359192173     A.U. after   11 cycles
 SCF Done:  E(RB3LYP) =  -796.359886104     A.U. after   10 cycles
 SCF Done:  E(RB3LYP) =  -796.359916884     A.U. after   10 cycles
 SCF Done:  E(RB3LYP) =  -796.359930778     A.U. after   11 cycles
 SCF Done:  E(RB3LYP) =  -796.359934202     A.U. after    9 cycles
 SCF Done:  E(RB3LYP) =  -796.359935073     A.U. after    9 cycles
 SCF Done:  E(RB3LYP) =  -796.359935224     A.U. after    9 cycles
 SCF Done:  E(RB3LYP) =  -796.359935256     A.U. after    8 cycles
 Optimization completed.
    -- Stationary point found.
 Normal termination of Gaussian 09 at Thu Jul 29 03:21:48 2021.

 ----------------------------------------------------------------------
 #N Geom=AllCheck Guess=TCheck SCRF=Check GenChk RB3LYP/6-311G(2df,2pd)
  Freq
 ----------------------------------------------------------------------

 Structure from the checkpoint file:  "conf-422.chk"
 ------------------------------------------------------------
 Candidate Structure: Conf:422 OPT and FREQ calc in gas phase
 ------------------------------------------------------------
 Charge =  0 Multiplicity = 1

                          Input orientation:
 ---------------------------------------------------------------------
 Center     Atomic      Atomic             Coordinates (Angstroms)
 Number     Number       Type             X           Y           Z
 ---------------------------------------------------------------------
      1          8           0        0.831230    0.545111    1.562864
      2          6           0        1.163434   -0.021158    0.536821
      3          7           0        0.314475   -0.842722   -0.156690
      4          6           0       -0.964090   -1.249912    0.375699
      5          6           0       -0.965028   -2.760198    0.579989
      6          8           0       -1.972838   -3.157144    1.379757
      7          8           0       -0.187098   -3.523268    0.071624
      8          6           0       -2.156339   -0.868103   -0.529158
      9          6           0       -2.379051    0.604380   -0.654533
     10          6           0       -1.930364    1.698279    0.037865
     11          7           0       -2.483405    2.855775   -0.463300
     12          6           0       -3.258148    2.476873   -1.444883
     13          7           0       -3.232987    1.122861   -1.608207
     14          6           0        2.531052    0.156645   -0.100455
     15          6           0        3.490422    0.959879    0.768613
     16          7           0        4.746019    1.182225    0.046019
     17          1           0        0.708598   -1.436472   -0.869179
     18          1           0       -1.076783   -0.768551    1.346584
     19          1           0       -1.927643   -4.122540    1.439664
     20          1           0       -3.049924   -1.351767   -0.124788
     21          1           0       -1.987344   -1.306684   -1.518965
     22          1           0       -1.227703    1.716794    0.853428
     23          1           0       -3.854326    3.121200   -2.070080
     24          1           0       -3.747476    0.596270   -2.292585
     25          1           0        2.951389   -0.829635   -0.323224
     26          1           0        2.409899    0.660071   -1.062800
     27          1           0        3.609266    0.456302    1.735377
     28          1           0        3.039644    1.927959    0.983010
     29          1           0        5.277423    0.320715   -0.012869
     30          1           0        5.327716    1.836726    0.554401
 ---------------------------------------------------------------------

 SCF Done:  E(RB3LYP) =  -796.359935257     A.U. after    1 cycles

 Alpha  occ. eigenvalues --  -19.18791 -19.13082 -19.08903 -14.36349 -14.34004
 Alpha  occ. eigenvalues --  -14.28535 -14.28047 -10.32063 -10.27344 -10.23868
 Alpha  occ. eigenvalues --  -10.21543 -10.20368 -10.20146 -10.18821 -10.17658
 Alpha  occ. eigenvalues --  -10.16886  -1.13231  -1.04654  -1.04158  -1.01280
 Alpha  occ. eigenvalues --   -0.93790  -0.88113  -0.86846  -0.81438  -0.76291
 Alpha  occ. eigenvalues --   -0.74009  -0.68483  -0.64957  -0.61361  -0.60931
 Alpha  occ. eigenvalues --   -0.59321  -0.58186  -0.54746  -0.52455  -0.51315
 Alpha  occ. eigenvalues --   -0.50184  -0.48793  -0.48490  -0.47767  -0.45774
 Alpha  occ. eigenvalues --   -0.45167  -0.44283  -0.43598  -0.42493  -0.41648
 Alpha  occ. eigenvalues --   -0.40964  -0.40160  -0.39809  -0.38775  -0.37944
 Alpha  occ. eigenvalues --   -0.36374  -0.34776  -0.34678  -0.30525  -0.28041
 Alpha  occ. eigenvalues --   -0.27285  -0.26445  -0.26217  -0.24027  -0.22500
 Alpha virt. eigenvalues --   -0.01440   0.00987   0.02113   0.02282   0.02893
 Alpha virt. eigenvalues --    0.03486   0.04408   0.06252   0.06815   0.07998
 Alpha virt. eigenvalues --    0.08656   0.08937   0.09886   0.10471   0.11240

 Mulliken charges:
               1
     1  O   -0.424594
     2  C    0.504703
     3  N   -0.305201
     4  C    0.047883
     5  C    0.525233
     6  O   -0.343287
     7  O   -0.378061
     8  C   -0.002901
     9  C    0.113564
    10  C    0.085832
    11  N   -0.356148
    12  C    0.224357
    13  N   -0.237775
    14  C   -0.071638
    15  C    0.199992
    16  N   -0.331144
    17  H    0.096664
    18  H    0.045640
    19  H    0.221999
    20  H    0.021662
    21  H    0.009954
    22  H    0.035959
    23  H    0.014569
    24  H    0.098193
    25  H    0.003203
    26  H    0.019448
    27  H   -0.012471
    28  H    0.017377
    29  H    0.092379
    30  H    0.084611
 Sum of Mulliken charges =   0.00000

 Dipole moment (field-independent basis, Debye):
    X=             -1.2903    Y=             -4.5546    Z=             -2.4584  Tot=              5.3341
 Quadrupole moment (field-independent basis, Debye-Ang):
   XX=            -74.7408   YY=           -100.9585   ZZ=            -90.6348
   XY=              8.7304   XZ=             12.5786   YZ=             -4.7312

  Exact polarizability: 146.787   1.005 147.658  11.846  -2.526 112.076
 Approx polarizability: 190.582  -1.404 217.165  11.796  15.992 191.070

                      1                      2                      3
                      A                      A                      A
 Frequencies --     13.4939                28.9855                47.7308
 Red. masses --      2.2178                 3.4290                 8.8114
 Frc consts  --      0.0002                 0.0017                 0.0118
 IR Inten    --      1.8719                 1.2388                 2.1670

                      4                      5                      6
                      A                      A                      A
 Frequencies --     51.0561                61.2550                69.4685
 Red. masses --      4.3437                 4.8063                 7.8616
 Frc consts  --      0.0067                 0.0106                 0.0224
 IR Inten    --      3.0542                 2.5555                 7.6592

                      7                      8                      9
                      A                      A                      A
 Frequencies --     91.9403               108.7588               124.3387
 Red. masses --      5.3084                 3.3115                 4.2352
 Frc consts  --      0.0264                 0.0231                 0.0386
 IR Inten    --      2.5935                 6.4419                 1.6534

                     10                     11                     12
                      A                      A                      A
 Frequencies --    182.0067               219.2933               240.5385
 Red. masses --      6.2260                 2.9324                 2.2570
 Frc consts  --      0.1215                 0.0831                 0.0769
 IR Inten    --      1.8547                 9.0351                19.2823

                     13                     14                     15
                      A                      A                      A
 Frequencies --    249.1774               280.2482               311.6302
 Red. masses --      1.8575                 3.3392                 4.1106
 Frc consts  --      0.0680                 0.1545                 0.2352
 IR Inten    --     28.1376                 0.6662                 5.3136

                     16                     17                     18
                      A                      A                      A
 Frequencies --    347.6767               397.5483               448.0085
 Red. masses --      4.6915                 4.0935                 3.3853
 Frc consts  --      0.3341                 0.3812                 0.4003
 IR Inten    --      3.9076                13.3178                11.5782

                     19                     20                     21
                      A                      A                      A
 Frequencies --    496.4062               503.1584               533.9095
 Red. masses --      1.4009                 1.4883                 3.5195
 Frc consts  --      0.2034                 0.2220                 0.5911
 IR Inten    --     64.1696                68.0084                13.4829

                     22                     23                     24
                      A                      A                      A
 Frequencies --    598.0379               603.2443               650.9393
 Red. masses --      1.5016                 1.8739                 4.4135
 Frc consts  --      0.3164                 0.4018                 1.1018
 IR Inten    --     60.2950                26.7772                53.4892

                     25                     26                     27
                      A                      A                      A
 Frequencies --    655.0599               685.1608               694.7514
 Red. masses --      2.5361                 3.4039                 3.2895
 Frc consts  --      0.6412                 0.9415                 0.9355
 IR Inten    --     12.9285                11.4333                22.5399

                     28                     29                     30
                      A                      A                      A
 Frequencies --    724.5551               785.6643               804.3002
 Red. masses --      4.4264                 4.2596                 1.3219
 Frc consts  --      1.3691                 1.5492                 0.5038
 IR Inten    --      8.8006                18.2937                18.8030

                     31                     32                     33
                      A                      A                      A
 Frequencies --    818.5483               861.0398               880.2637
 Red. masses --      1.4030                 1.3713                 1.6444
 Frc consts  --      0.5539                 0.5990                 0.7507
 IR Inten    --     15.3957               106.1602                 8.6637

                     34                     35                     36
                      A                      A                      A
 Frequencies --    908.7609               917.9091               938.0627
 Red. masses --      1.7866                 3.2742                 5.6649
 Frc consts  --      0.8693                 1.6254                 2.9370
 IR Inten    --     13.0911                15.5358                10.8760

                     37                     38                     39
                      A                      A                      A
 Frequencies --    976.3719               997.4580              1025.1732
 Red. masses --      2.8817                 2.3985                 3.7987
 Frc consts  --      1.6186                 1.4060                 2.3522
 IR Inten    --      9.1666                 7.6078                11.4746

                     40                     41                     42
                      A                      A                      A
 Frequencies --   1057.6167              1062.3865              1099.7677
 Red. masses --      2.8576                 3.2003                 2.2432
 Frc consts  --      1.8833                 2.1282                 1.5985
 IR Inten    --     11.2883                12.9369                32.7919

                     43                     44                     45
                      A                      A                      A
 Frequencies --   1107.8104              1119.3536              1142.2865
 Red. masses --      1.6390                 2.5988                 2.5894
 Frc consts  --      1.1851                 1.9185                 1.9906
 IR Inten    --     17.6642                69.2999                17.3840

                     46                     47                     48
                      A                      A                      A
 Frequencies --   1161.1303              1174.5851              1201.7656
 Red. masses --      1.5586                 2.0704                 1.8700
 Frc consts  --      1.2381                 1.6829                 1.5912
 IR Inten    --     97.0842                85.5442                53.2514

                     49                     50                     51
                      A                      A                      A
 Frequencies --   1217.8010              1255.1702              1277.4005
 Red. masses --      1.8057                 1.3804                 1.4032
 Frc consts  --      1.5778                 1.2814                 1.3491
 IR Inten    --     39.8803                30.4672                 8.2375

                     52                     53                     54
                      A                      A                      A
 Frequencies --   1286.3958              1296.7880              1336.4732
 Red. masses --      1.3543                 1.4493                 1.1192
 Frc consts  --      1.3204                 1.4359                 1.1778
 IR Inten    --     22.5339                 2.2732                 0.8193

                     55                     56                     57
                      A                      A                      A
 Frequencies --   1340.8414              1353.5374              1367.4528
 Red. masses --      1.5333                 1.6511                 1.6647
 Frc consts  --      1.6242                 1.7823                 1.8341
 IR Inten    --      2.5993                 2.1887                11.4634

                     58                     59                     60
                      A                      A                      A
 Frequencies --   1394.7521              1409.1247              1426.9891
 Red. masses --      2.3011                 2.2346                 2.7033
 Frc consts  --      2.6374                 2.6142                 3.2433
 IR Inten    --    115.0212                19.9130                17.8161

                     61                     62                     63
                      A                      A                      A
 Frequencies --   1430.6894              1469.6042              1485.5311
 Red. masses --      1.4929                 1.0973                 1.2906
 Frc consts  --      1.8004                 1.3963                 1.6780
 IR Inten    --     35.2873                 9.5227                25.6317

                     64                     65                     66
                      A                      A                      A
 Frequencies --   1505.2968              1516.6162              1538.0590
 Red. masses --      2.7107                 1.0864                 1.7786
 Frc consts  --      3.6189                 1.4722                 2.4790
 IR Inten    --      7.6243                 1.5825               239.0555

                     67                     68                     69
                      A                      A                      A
 Frequencies --   1608.2508              1664.8378              1750.7719
 Red. masses --      4.1101                 1.0886                 8.8171
 Frc consts  --      6.2634                 1.7777                15.9234
 IR Inten    --     14.6540                20.8513               182.5944

                     70                     71                     72
                      A                      A                      A
 Frequencies --   1822.0991              2980.5150              3000.8261
 Red. masses --      9.9740                 1.0740                 1.0640
 Frc consts  --     19.5102                 5.6214                 5.6451
 IR Inten    --    247.0965                51.8222                32.3296

                     73                     74                     75
                      A                      A                      A
 Frequencies --   3016.1417              3037.4509              3058.2945
 Red. masses --      1.0650                 1.0955                 1.0922
 Frc consts  --      5.7084                 5.9550                 6.0186
 IR Inten    --     16.3170                12.6389                 8.9927

                     76                     77                     78
                      A                      A                      A
 Frequencies --   3088.6342              3094.6444              3238.1058
 Red. masses --      1.0916                 1.0835                 1.0957
 Frc consts  --      6.1356                 6.1138                 6.7687
 IR Inten    --     20.0131                10.4888                 2.5492

                     79                     80                     81
                      A                      A                      A
 Frequencies --   3249.1966              3488.1072              3562.9783
 Red. masses --      1.0988                 1.0504                 1.0914
 Frc consts  --      6.8345                 7.5301                 8.1634
 IR Inten    --      2.7676                 0.9797                 0.1807

                     82                     83                     84
                      A                      A                      A
 Frequencies --   3609.5052              3650.3420              3745.7552
 Red. masses --      1.0764                 1.0808                 1.0640
 Frc consts  --      8.2624                 8.4851                 8.7961
 IR Inten    --     33.9585                40.4574                73.1018

 - Thermochemistry -
 -------------------
 Temperature   298.150 Kelvin.  Pressure   1.00000 Atm.
 Atom     1 has atomic number  8 and mass  15.99491

 Molecular mass:   226.10659 amu.
 Principal axes and moments of inertia in atomic units:
                           1         2         3
     Eigenvalues --  3402.339835148.180857795.14516
           X            0.98237   0.07828  -0.16978
           Y           -0.03839   0.97324   0.22657
           Z            0.18297  -0.21606   0.95908
 This molecule is an asymmetric top.
 Rotational symmetry number  1.
 Warning -- assumption of classical behavior for rotation
           may cause significant error
 Rotational temperatures (Kelvin)      0.02546     0.01682     0.01111
 Rotational constants (GHZ):           0.53044     0.35056     0.23152
 Zero-point vibrational energy     640203.2 (Joules/Mol)
                                  153.01223 (Kcal/Mol)
 Warning -- explicit consideration of  23 degrees of freedom as
           vibrations may cause significant error
 Vibrational temperatures:     19.41    41.70    68.67    73.46    88.13
          (Kelvin)             99.95   132.28   156.48   178.90   261.87
                              315.51   346.08   358.51   403.21   448.37
                              500.23   571.98   644.58   714.22   723.93
                              768.18   860.44   867.93   936.56   942.48
                              985.79   999.59  1042.47  1130.39  1157.21
                             1177.71  1238.84  1266.50  1307.50  1320.66
                             1349.66  1404.78  1435.12  1474.99  1521.67
                             1528.54  1582.32  1593.89  1610.50  1643.49
                             1670.61  1689.96  1729.07  1752.14  1805.91
                             1837.89  1850.83  1865.79  1922.88  1929.17
                             1947.44  1967.46  2006.73  2027.41  2053.12
                             2058.44  2114.43  2137.35  2165.78  2182.07
                             2212.92  2313.91  2395.33  2518.97  2621.59
                             4288.29  4317.51  4339.55  4370.21  4400.20
                             4443.85  4452.50  4658.91  4674.86  5018.60
                             5126.32  5193.27  5252.02  5389.30

 Zero-point correction=                           0.243841 (Hartree/Particle)
 Thermal correction to Energy=                    0.260356
 Thermal correction to Enthalpy=                  0.261300
 Thermal correction to Gibbs Free Energy=         0.195949
 Sum of electronic and zero-point Energies=           -796.116095
 Sum of electronic and thermal Energies=              -796.099579
 Sum of electronic and thermal Enthalpies=            -796.098635
 Sum of electronic and thermal Free Energies=         -796.163986

                     E (Thermal)             CV                S
                      KCal/Mol        Cal/Mol-Kelvin    Cal/Mol-Kelvin
 Total                  163.376             58.893            137.544
 Electronic               0.000              0.000              0.000
 Translational            0.889              2.981             42.150
 Rotational               0.889              2.981             33.279
 Vibrational            161.598             52.931             62.115
 Vibration     1          0.593              1.987              7.416
 Vibration     2          0.593              1.984              5.898
 Vibration     3          0.595              1.978              4.909
 Vibration     4          0.595              1.977              4.776
 Vibration     5          0.597              1.973              4.416
 Vibration     6          0.598              1.969              4.168
 Vibration     7          0.602              1.955              3.618
 Vibration     8          0.606              1.942              3.291
 Vibration     9          0.610              1.929              3.032
 Vibration    10          0.630              1.864              2.308
 Vibration    11          0.647              1.812              1.965
 Vibration    12          0.658              1.778              1.799
 Vibration    13          0.662              1.764              1.736
 Vibration    14          0.680              1.710              1.532
 Vibration    15          0.700              1.652              1.354
 Vibration    16          0.725              1.580              1.177
 Vibration    17          0.764              1.475              0.972
 Vibration    18          0.807              1.365              0.802
 Vibration    19          0.852              1.258              0.667
 Vibration    20          0.858              1.243              0.650
 Vibration    21          0.889              1.175              0.579
 Vibration    22          0.956              1.036              0.453
 Vibration    23          0.962              1.025              0.444

 Optimization completed.
    -- Stationary point found.
 Normal termination of Gaussian 09 at Thu Jul 29 06:35:25 2021.
