 Gaussian 09, Revision D.01,
 Gaussian 09:  ES64L-G09RevD.01 24-Apr-2013

 ----------------------------------------------------------------------
 # B3LYP/6-311G(2df,2pd) guess=read geom=checkpoint opt=readfc freq=nor
 aman nosymm integral(ultrafinegrid)
 ----------------------------------------------------------------------

 ------------------------------------------------------------
 Candidate Structure: Conf:640 OPT and FREQ calc in gas phase
 ------------------------------------------------------------
 Structure from the checkpoint file:  "conf-640.chk"
 Charge =  0 Multiplicity = 1

 SCF Done:  E(RB3LYP) =  -796.366637508     A.U. after   11 cycles
 SCF Done:  E(RB3LYP) =  -796.367306050     A.U. after   10 cycles
 SCF Done:  E(RB3LYP) =  -796.367319622     A.U. after   10 cycles
 SCF Done:  E(RB3LYP) =  -796.367321122     A.U. after    9 cycles
 SCF Done:  E(RB3LYP) =  -796.367321148     A.U. after    6 cycles
 Optimization completed.
    -- Stationary point found.
 Normal termination of Gaussian 09 at Thu Jul 29 02:42:07 2021.

 ----------------------------------------------------------------------
 #N Geom=AllCheck Guess=TCheck SCRF=Check GenChk RB3LYP/6-311G(2df,2pd)
  Freq
 ----------------------------------------------------------------------

 Structure from the checkpoint file:  "conf-640.chk"
 ------------------------------------------------------------
 Candidate Structure: Conf:640 OPT and FREQ calc in gas phase
 ------------------------------------------------------------
 Charge =  0 Multiplicity = 1

                          Input orientation:
 ---------------------------------------------------------------------
 Center     Atomic      Atomic             Coordinates (Angstroms)
 Number     Number       Type             X           Y           Z
 ---------------------------------------------------------------------
      1          8           0        0.928644   -1.277673   -0.969620
      2          6           0        1.183683   -0.137022   -0.593994
      3          7           0        0.272690    0.868691   -0.658265
      4          6           0       -0.982075    0.733706   -1.369184
      5          6           0       -1.128930    1.926721   -2.302036
      6          8           0       -2.083799    1.724797   -3.225028
      7          8           0       -0.494892    2.945294   -2.213725
      8          6           0       -2.236772    0.650414   -0.463467
      9          6           0       -2.224472   -0.432676    0.568962
     10          6           0       -2.919413   -0.539301    1.746486
     11          7           0       -2.678911   -1.747471    2.352015
     12          6           0       -1.841509   -2.365666    1.555304
     13          7           0       -1.544896   -1.625642    0.451695
     14          6           0        2.529576    0.212042    0.005117
     15          6           0        2.861107   -0.682024    1.219836
     16          7           0        4.177521   -0.480249    1.807674
     17          1           0        0.575242    1.812811   -0.475710
     18          1           0       -0.919275   -0.171682   -1.973021
     19          1           0       -2.150886    2.533353   -3.753890
     20          1           0       -3.093913    0.533270   -1.131596
     21          1           0       -2.369722    1.607575    0.045968
     22          1           0       -3.586768    0.186461    2.182261
     23          1           0       -1.412310   -3.339654    1.722952
     24          1           0       -0.804185   -1.817488   -0.215463
     25          1           0        2.578286    1.265223    0.289978
     26          1           0        3.279585    0.044130   -0.771628
     27          1           0        2.112129   -0.520475    1.997827
     28          1           0        2.769754   -1.722924    0.911919
     29          1           0        4.294976    0.473383    2.128039
     30          1           0        4.909613   -0.658051    1.130544
 ---------------------------------------------------------------------

 SCF Done:  E(RB3LYP) =  -796.367321149     A.U. after    1 cycles

 Alpha  occ. eigenvalues --  -19.19695 -19.14029 -19.10636 -14.35927 -14.34865
 Alpha  occ. eigenvalues --  -14.29633 -14.27548 -10.33109 -10.29110 -10.24995
 Alpha  occ. eigenvalues --  -10.20664 -10.20354 -10.20330 -10.19634 -10.19073
 Alpha  occ. eigenvalues --  -10.16767  -1.14205  -1.06210  -1.05258  -1.00418
 Alpha  occ. eigenvalues --   -0.95329  -0.89358  -0.86071  -0.81879  -0.77151
 Alpha  occ. eigenvalues --   -0.74544  -0.68367  -0.65991  -0.62535  -0.61407
 Alpha  occ. eigenvalues --   -0.59794  -0.58153  -0.55115  -0.52632  -0.52312
 Alpha  occ. eigenvalues --   -0.51615  -0.50229  -0.49404  -0.48470  -0.46875
 Alpha  occ. eigenvalues --   -0.45270  -0.44655  -0.43495  -0.42662  -0.42477
 Alpha  occ. eigenvalues --   -0.41689  -0.40757  -0.40058  -0.39620  -0.39009
 Alpha  occ. eigenvalues --   -0.37664  -0.35684  -0.35615  -0.31639  -0.29129
 Alpha  occ. eigenvalues --   -0.28536  -0.27380  -0.25935  -0.24857  -0.21918
 Alpha virt. eigenvalues --   -0.02323  -0.00675   0.01382   0.02449   0.03133
 Alpha virt. eigenvalues --    0.04148   0.05269   0.06123   0.06552   0.06874
 Alpha virt. eigenvalues --    0.07546   0.09143   0.10114   0.11059   0.11501

 Mulliken charges:
               1
     1  O   -0.470129
     2  C    0.444318
     3  N   -0.264197
     4  C    0.023348
     5  C    0.528566
     6  O   -0.339444
     7  O   -0.374107
     8  C    0.038312
     9  C    0.081981
    10  C    0.078364
    11  N   -0.355626
    12  C    0.225366
    13  N   -0.244069
    14  C   -0.018158
    15  C    0.164747
    16  N   -0.331313
    17  H    0.103472
    18  H    0.042524
    19  H    0.225463
    20  H    0.029396
    21  H    0.016138
    22  H   -0.001881
    23  H    0.014163
    24  H    0.132831
    25  H   -0.008458
    26  H    0.014675
    27  H    0.024732
    28  H    0.025893
    29  H    0.094486
    30  H    0.098607
 Sum of Mulliken charges =   0.00000

 Dipole moment (field-independent basis, Debye):
    X=              1.7464    Y=              3.7248    Z=             -3.8807  Tot=              5.6554
 Quadrupole moment (field-independent basis, Debye-Ang):
   XX=            -92.7072   YY=            -96.1315   ZZ=            -99.9274
   XY=             -5.5749   XZ=             10.5510   YZ=              3.5100

  Exact polarizability: 143.443  -6.630 135.296   2.821 -21.892 129.649
 Approx polarizability: 192.085 -10.018 220.741  -5.562 -10.519 192.826

                      1                      2                      3
                      A                      A                      A
 Frequencies --     19.9681                30.6253                57.6657
 Red. masses --      4.6487                 3.3334                 7.3787
 Frc consts  --      0.0011                 0.0018                 0.0145
 IR Inten    --      0.5288                 2.5256                 2.9857

                      4                      5                      6
                      A                      A                      A
 Frequencies --     63.4378                72.3493                84.9944
 Red. masses --      5.2116                 4.5160                 2.0149
 Frc consts  --      0.0124                 0.0139                 0.0086
 IR Inten    --      2.4813                 2.4359                 1.4362

                      7                      8                      9
                      A                      A                      A
 Frequencies --    102.4075               132.8290               168.0024
 Red. masses --      6.3490                 5.7679                 5.8909
 Frc consts  --      0.0392                 0.0600                 0.0980
 IR Inten    --      0.9452                10.8584                10.2521

                     10                     11                     12
                      A                      A                      A
 Frequencies --    184.4995               207.4193               256.2517
 Red. masses --      4.3151                 5.2616                 4.6867
 Frc consts  --      0.0865                 0.1334                 0.1813
 IR Inten    --      8.5839                 7.8029                 0.6048

                     13                     14                     15
                      A                      A                      A
 Frequencies --    288.3552               295.8713               322.7502
 Red. masses --      2.6074                 1.2517                 6.5218
 Frc consts  --      0.1277                 0.0646                 0.4003
 IR Inten    --      6.3255                29.5549                 2.9528

                     16                     17                     18
                      A                      A                      A
 Frequencies --    341.9166               393.5675               452.6945
 Red. masses --      3.6136                 3.6815                 3.6890
 Frc consts  --      0.2489                 0.3360                 0.4454
 IR Inten    --      6.3032                 3.2170                 8.8893

                     19                     20                     21
                      A                      A                      A
 Frequencies --    524.2576               552.1459               600.8829
 Red. masses --      3.2296                 1.2919                 1.3362
 Frc consts  --      0.5230                 0.2320                 0.2843
 IR Inten    --     33.3593                58.8438                84.1553

                     22                     23                     24
                      A                      A                      A
 Frequencies --    631.1293               635.6629               655.8443
 Red. masses --      3.5192                 3.6520                 3.7578
 Frc consts  --      0.8259                 0.8694                 0.9523
 IR Inten    --     13.5160                17.7189                40.9495

                     25                     26                     27
                      A                      A                      A
 Frequencies --    680.8684               699.2156               747.8004
 Red. masses --      3.3941                 3.1948                 1.3445
 Frc consts  --      0.9270                 0.9203                 0.4430
 IR Inten    --     33.5109                26.4693                85.6807

                     28                     29                     30
                      A                      A                      A
 Frequencies --    755.8754               773.7852               786.9625
 Red. masses --      2.6779                 1.3574                 4.0733
 Frc consts  --      0.9015                 0.4788                 1.4863
 IR Inten    --     13.6763                 1.4594                17.3279

                     31                     32                     33
                      A                      A                      A
 Frequencies --    826.9976               828.6209               846.5429
 Red. masses --      1.4133                 1.4831                 1.3654
 Frc consts  --      0.5695                 0.6000                 0.5765
 IR Inten    --     29.3018               200.6673                25.6705

                     34                     35                     36
                      A                      A                      A
 Frequencies --    893.3577               928.8174               941.2390
 Red. masses --      2.0749                 4.7623                 5.7227
 Frc consts  --      0.9756                 2.4206                 2.9871
 IR Inten    --      4.1231                 0.7192                21.9819

                     37                     38                     39
                      A                      A                      A
 Frequencies --    978.0624               993.6379              1012.9464
 Red. masses --      1.4126                 3.3515                 4.6402
 Frc consts  --      0.7961                 1.9496                 2.8051
 IR Inten    --      6.0934                10.0841                77.9596

                     40                     41                     42
                      A                      A                      A
 Frequencies --   1019.6770              1050.6388              1098.7440
 Red. masses --      3.7556                 3.1504                 2.7979
 Frc consts  --      2.3007                 2.0489                 1.9901
 IR Inten    --     14.1490                 5.3586                 7.9920

                     43                     44                     45
                      A                      A                      A
 Frequencies --   1111.5024              1139.2681              1147.6960
 Red. masses --      2.4509                 2.0628                 1.7630
 Frc consts  --      1.7840                 1.5775                 1.3682
 IR Inten    --     42.9751                18.8269                95.1565

                     46                     47                     48
                      A                      A                      A
 Frequencies --   1152.9451              1178.8447              1231.2362
 Red. masses --      1.7941                 2.2639                 1.4362
 Frc consts  --      1.4051                 1.8537                 1.2828
 IR Inten    --      8.9594               117.5607                18.5726

                     49                     50                     51
                      A                      A                      A
 Frequencies --   1249.0699              1262.6376              1278.4048
 Red. masses --      1.5918                 2.0786                 1.4975
 Frc consts  --      1.4632                 1.9525                 1.4420
 IR Inten    --     20.0067                 4.9819                19.0934

                     52                     53                     54
                      A                      A                      A
 Frequencies --   1283.9508              1295.8060              1336.0008
 Red. masses --      1.3742                 1.3094                 1.3919
 Frc consts  --      1.3348                 1.2954                 1.4638
 IR Inten    --     15.4716                 6.9139                 8.3246

                     55                     56                     57
                      A                      A                      A
 Frequencies --   1352.2236              1371.8841              1384.6299
 Red. masses --      1.8940                 1.3807                 1.2499
 Frc consts  --      2.0405                 1.5310                 1.4119
 IR Inten    --      1.3266                12.7805                 7.0808

                     58                     59                     60
                      A                      A                      A
 Frequencies --   1392.8623              1394.7371              1402.1686
 Red. masses --      1.2234                 2.4391                 2.5563
 Frc consts  --      1.3984                 2.7955                 2.9612
 IR Inten    --      5.7000                15.3151               167.6929

                     61                     62                     63
                      A                      A                      A
 Frequencies --   1458.4820              1475.7404              1486.2543
 Red. masses --      2.2231                 1.1223                 1.2481
 Frc consts  --      2.7861                 1.4400                 1.6243
 IR Inten    --     32.8584                 5.6367                26.6292

                     64                     65                     66
                      A                      A                      A
 Frequencies --   1498.4164              1505.2016              1539.2541
 Red. masses --      2.7416                 1.0906                 2.0120
 Frc consts  --      3.6268                 1.4559                 2.8087
 IR Inten    --     13.4799                 4.1818               243.6414

                     67                     68                     69
                      A                      A                      A
 Frequencies --   1606.9247              1665.0692              1712.0929
 Red. masses --      3.4601                 1.0920                 7.8707
 Frc consts  --      5.2641                 1.7838                13.5931
 IR Inten    --     11.4752                27.0772               190.4064

                     70                     71                     72
                      A                      A                      A
 Frequencies --   1819.6170              3026.3472              3028.8152
 Red. masses --      9.9150                 1.0601                 1.0581
 Frc consts  --     19.3420                 5.7204                 5.7190
 IR Inten    --    251.3507                19.5554                 6.8614

                     73                     74                     75
                      A                      A                      A
 Frequencies --   3042.8147              3056.5252              3068.5847
 Red. masses --      1.0666                 1.0996                 1.0994
 Frc consts  --      5.8187                 6.0527                 6.0996
 IR Inten    --     29.1227                 7.4304                 7.1532

                     76                     77                     78
                      A                      A                      A
 Frequencies --   3084.1135              3097.8655              3227.2350
 Red. masses --      1.0853                 1.1036                 1.0957
 Frc consts  --      6.0820                 6.2400                 6.7234
 IR Inten    --      7.6915                21.8815                 9.3425

                     79                     80                     81
                      A                      A                      A
 Frequencies --   3241.8541              3480.9098              3492.0669
 Red. masses --      1.0970                 1.0851                 1.0484
 Frc consts  --      6.7925                 7.7467                 7.5325
 IR Inten    --      1.2305               332.8284                 1.1634

                     82                     83                     84
                      A                      A                      A
 Frequencies --   3568.7402              3607.1274              3745.1189
 Red. masses --      1.0935                 1.0769                 1.0641
 Frc consts  --      8.2053                 8.2559                 8.7934
 IR Inten    --      0.3080                55.2912                83.1451

 - Thermochemistry -
 -------------------
 Temperature   298.150 Kelvin.  Pressure   1.00000 Atm.
 Atom     1 has atomic number  8 and mass  15.99491

 Molecular mass:   226.10659 amu.
 Principal axes and moments of inertia in atomic units:
                           1         2         3
     Eigenvalues --  3612.837784338.088497123.09422
           X            0.83003  -0.55429  -0.06177
           Y           -0.32518  -0.57094   0.75385
           Z            0.45312   0.60563   0.65414
 This molecule is an asymmetric top.
 Rotational symmetry number  1.
 Warning -- assumption of classical behavior for rotation
           may cause significant error
 Rotational temperatures (Kelvin)      0.02397     0.01997     0.01216
 Rotational constants (GHZ):           0.49954     0.41602     0.25336
 Zero-point vibrational energy     642636.0 (Joules/Mol)
                                  153.59370 (Kcal/Mol)
 Warning -- explicit consideration of  21 degrees of freedom as
           vibrations may cause significant error
 Vibrational temperatures:     28.73    44.06    82.97    91.27   104.09
          (Kelvin)            122.29   147.34   191.11   241.72   265.45
                              298.43   368.69   414.88   425.69   464.37
                              491.94   566.26   651.33   754.29   794.41
                              864.54   908.05   914.58   943.61   979.62
                             1006.01  1075.92  1087.53  1113.30  1132.26
                             1189.86  1192.20  1217.98  1285.34  1336.36
                             1354.23  1407.21  1429.62  1457.40  1467.09
                             1511.63  1580.85  1599.20  1639.15  1651.28
                             1658.83  1696.09  1771.47  1797.13  1816.65
                             1839.34  1847.32  1864.37  1922.20  1945.55
                             1973.83  1992.17  2004.02  2006.71  2017.41
                             2098.43  2123.26  2138.39  2155.88  2165.65
                             2214.64  2312.00  2395.66  2463.32  2618.02
                             4354.23  4357.78  4377.93  4397.65  4415.00
                             4437.35  4457.13  4643.27  4664.30  5008.25
                             5024.30  5134.61  5189.85  5388.38

 Zero-point correction=                           0.244767 (Hartree/Particle)
 Thermal correction to Energy=                    0.260781
 Thermal correction to Enthalpy=                  0.261725
 Thermal correction to Gibbs Free Energy=         0.198603
 Sum of electronic and zero-point Energies=           -796.122554
 Sum of electronic and thermal Energies=              -796.106540
 Sum of electronic and thermal Enthalpies=            -796.105596
 Sum of electronic and thermal Free Energies=         -796.168718

                     E (Thermal)             CV                S
                      KCal/Mol        Cal/Mol-Kelvin    Cal/Mol-Kelvin
 Total                  163.643             58.111            132.853
 Electronic               0.000              0.000              0.000
 Translational            0.889              2.981             42.150
 Rotational               0.889              2.981             33.079
 Vibrational            161.865             52.150             57.625
 Vibration     1          0.593              1.986              6.637
 Vibration     2          0.594              1.984              5.789
 Vibration     3          0.596              1.974              4.536
 Vibration     4          0.597              1.972              4.347
 Vibration     5          0.598              1.967              4.088
 Vibration     6          0.601              1.960              3.772
 Vibration     7          0.604              1.947              3.408
 Vibration     8          0.613              1.921              2.905
 Vibration     9          0.625              1.882              2.458
 Vibration    10          0.631              1.861              2.282
 Vibration    11          0.641              1.829              2.066
 Vibration    12          0.666              1.752              1.687
 Vibration    13          0.685              1.695              1.484
 Vibration    14          0.690              1.681              1.440
 Vibration    15          0.708              1.630              1.296
 Vibration    16          0.721              1.592              1.203
 Vibration    17          0.761              1.484              0.987
 Vibration    18          0.811              1.355              0.788
 Vibration    19          0.879              1.196              0.600
 Vibration    20          0.907              1.135              0.540
 Vibration    21          0.959              1.030              0.448

 Optimization completed.
    -- Stationary point found.
 Normal termination of Gaussian 09 at Thu Jul 29 06:19:43 2021.
