 Gaussian 09, Revision D.01,
 Gaussian 09:  ES64L-G09RevD.01 24-Apr-2013

 ----------------------------------------------------------------------
 # B3LYP/6-311G(2df,2pd) guess=read geom=checkpoint opt=readfc freq=nor
 aman nosymm integral(ultrafinegrid)
 ----------------------------------------------------------------------

 ------------------------------------------------------------
 Candidate Structure: Conf:591 OPT and FREQ calc in gas phase
 ------------------------------------------------------------
 Structure from the checkpoint file:  "conf-591.chk"
 Charge =  0 Multiplicity = 1

 SCF Done:  E(RB3LYP) =  -796.367633154     A.U. after   11 cycles
 SCF Done:  E(RB3LYP) =  -796.368296281     A.U. after   10 cycles
 SCF Done:  E(RB3LYP) =  -796.368307177     A.U. after   10 cycles
 SCF Done:  E(RB3LYP) =  -796.368308477     A.U. after    9 cycles
 SCF Done:  E(RB3LYP) =  -796.368308497     A.U. after    6 cycles
 Optimization completed.
    -- Stationary point found.
 Normal termination of Gaussian 09 at Thu Jul 29 02:40:11 2021.

 ----------------------------------------------------------------------
 #N Geom=AllCheck Guess=TCheck SCRF=Check GenChk RB3LYP/6-311G(2df,2pd)
  Freq
 ----------------------------------------------------------------------

 Structure from the checkpoint file:  "conf-591.chk"
 ------------------------------------------------------------
 Candidate Structure: Conf:591 OPT and FREQ calc in gas phase
 ------------------------------------------------------------
 Charge =  0 Multiplicity = 1

                          Input orientation:
 ---------------------------------------------------------------------
 Center     Atomic      Atomic             Coordinates (Angstroms)
 Number     Number       Type             X           Y           Z
 ---------------------------------------------------------------------
      1          8           0       -0.836186    0.190327   -1.026338
      2          6           0       -1.268938    0.078568    0.117712
      3          7           0       -0.473708   -0.222144    1.168701
      4          6           0        0.942483   -0.500193    1.040952
      5          6           0        1.360777   -1.254671    2.288938
      6          8           0        2.611502   -1.727073    2.184850
      7          8           0        0.673013   -1.402058    3.266746
      8          6           0        1.828436    0.784820    0.838044
      9          6           0        2.549651    0.838626   -0.463288
     10          6           0        3.877541    0.972822   -0.777509
     11          7           0        4.058216    0.991605   -2.138220
     12          6           0        2.853255    0.864657   -2.643304
     13          7           0        1.903132    0.772268   -1.676658
     14          6           0       -2.738666    0.275330    0.430673
     15          6           0       -3.635132   -0.586441   -0.463062
     16          7           0       -5.040659   -0.333729   -0.141739
     17          1           0       -0.870481   -0.373197    2.083833
     18          1           0        1.102576   -1.156865    0.184982
     19          1           0        2.824072   -2.171558    3.018186
     20          1           0        2.569348    0.856171    1.632814
     21          1           0        1.160785    1.641151    0.954366
     22          1           0        4.707886    1.058846   -0.095692
     23          1           0        2.611824    0.832854   -3.693042
     24          1           0        0.903084    0.626376   -1.772609
     25          1           0       -2.964250    0.071689    1.477555
     26          1           0       -2.963816    1.330183    0.249036
     27          1           0       -3.431091   -1.640411   -0.261676
     28          1           0       -3.364103   -0.402166   -1.507489
     29          1           0       -5.633986   -0.999226   -0.621748
     30          1           0       -5.316543    0.583574   -0.474373
 ---------------------------------------------------------------------

 SCF Done:  E(RB3LYP) =  -796.368308497     A.U. after    1 cycles

 Alpha  occ. eigenvalues --  -19.19401 -19.13939 -19.10463 -14.35615 -14.34309
 Alpha  occ. eigenvalues --  -14.29713 -14.27224 -10.33022 -10.28936 -10.24779
 Alpha  occ. eigenvalues --  -10.20500 -10.20468 -10.19960 -10.19054 -10.18887
 Alpha  occ. eigenvalues --  -10.16604  -1.14058  -1.05971  -1.05106  -1.00102
 Alpha  occ. eigenvalues --   -0.95077  -0.89399  -0.85744  -0.81401  -0.77131
 Alpha  occ. eigenvalues --   -0.74284  -0.68378  -0.65912  -0.62063  -0.60768
 Alpha  occ. eigenvalues --   -0.59783  -0.57816  -0.54336  -0.54091  -0.51896
 Alpha  occ. eigenvalues --   -0.50455  -0.50133  -0.49067  -0.48340  -0.46539
 Alpha  occ. eigenvalues --   -0.45726  -0.44804  -0.43451  -0.42980  -0.41756
 Alpha  occ. eigenvalues --   -0.40875  -0.39826  -0.39558  -0.39387  -0.38832
 Alpha  occ. eigenvalues --   -0.38088  -0.35710  -0.35425  -0.31478  -0.28821
 Alpha  occ. eigenvalues --   -0.28307  -0.26934  -0.25681  -0.25058  -0.21788
 Alpha virt. eigenvalues --   -0.02360  -0.00118   0.01657   0.02859   0.03053
 Alpha virt. eigenvalues --    0.04038   0.05977   0.06511   0.06920   0.07413
 Alpha virt. eigenvalues --    0.08060   0.08561   0.09395   0.10664   0.11415

 Mulliken charges:
               1
     1  O   -0.482688
     2  C    0.443781
     3  N   -0.292093
     4  C    0.088283
     5  C    0.520817
     6  O   -0.334811
     7  O   -0.376925
     8  C    0.015148
     9  C    0.086586
    10  C    0.102979
    11  N   -0.358287
    12  C    0.228817
    13  N   -0.240529
    14  C   -0.013982
    15  C    0.191427
    16  N   -0.329863
    17  H    0.109896
    18  H    0.028158
    19  H    0.227238
    20  H    0.004663
    21  H    0.022755
    22  H   -0.003105
    23  H    0.010932
    24  H    0.139010
    25  H    0.003730
    26  H    0.015103
    27  H    0.007417
    28  H    0.001273
    29  H    0.085318
    30  H    0.098950
 Sum of Mulliken charges =   0.00000

 Dipole moment (field-independent basis, Debye):
    X=             -3.6671    Y=             -1.2144    Z=              2.3980  Tot=              4.5468
 Quadrupole moment (field-independent basis, Debye-Ang):
   XX=           -102.9381   YY=            -91.3876   ZZ=            -95.9306
   XY=             -8.0780   XZ=             22.2042   YZ=              1.5657

  Exact polarizability: 170.119   3.412  97.856  -4.239 -12.394 145.308
 Approx polarizability: 224.638   1.071 150.187  -8.847 -10.395 227.682

                      1                      2                      3
                      A                      A                      A
 Frequencies --     22.2981                31.2678                54.9821
 Red. masses --      3.3146                 5.8797                 4.3800
 Frc consts  --      0.0010                 0.0034                 0.0078
 IR Inten    --      1.2409                 1.4258                 1.0718

                      4                      5                      6
                      A                      A                      A
 Frequencies --     60.7477                75.8340                79.2260
 Red. masses --      8.8705                 2.4990                 4.7186
 Frc consts  --      0.0193                 0.0085                 0.0175
 IR Inten    --      1.1595                 1.3688                 0.6027

                      7                      8                      9
                      A                      A                      A
 Frequencies --     89.1021               128.4988               139.5781
 Red. masses --      6.4656                 5.6468                 4.3066
 Frc consts  --      0.0302                 0.0549                 0.0494
 IR Inten    --      8.3128                 3.9401                 8.3136

                     10                     11                     12
                      A                      A                      A
 Frequencies --    191.0302               226.2752               238.7719
 Red. masses --      4.8748                 2.0749                 1.8709
 Frc consts  --      0.1048                 0.0626                 0.0628
 IR Inten    --      1.7001                 7.2782                44.4298

                     13                     14                     15
                      A                      A                      A
 Frequencies --    280.9816               290.7081               316.6363
 Red. masses --      3.3655                 3.1755                 3.9348
 Frc consts  --      0.1566                 0.1581                 0.2324
 IR Inten    --      8.9141                 5.1956                 4.0509

                     16                     17                     18
                      A                      A                      A
 Frequencies --    356.3331               393.9205               427.4822
 Red. masses --      6.5040                 4.2542                 3.4500
 Frc consts  --      0.4866                 0.3889                 0.3715
 IR Inten    --      0.5094                 4.5240                 4.7101

                     19                     20                     21
                      A                      A                      A
 Frequencies --    535.3289               569.2039               591.7747
 Red. masses --      2.7399                 1.4464                 1.4183
 Frc consts  --      0.4626                 0.2761                 0.2926
 IR Inten    --     59.4321                32.5009                70.9806

                     22                     23                     24
                      A                      A                      A
 Frequencies --    635.9163               648.7278               654.4095
 Red. masses --      4.2329                 3.4883                 2.1825
 Frc consts  --      1.0085                 0.8649                 0.5507
 IR Inten    --     28.2404                 4.7672                 4.3421

                     25                     26                     27
                      A                      A                      A
 Frequencies --    681.1002               718.7475               757.4618
 Red. masses --      3.3588                 3.3668                 4.8698
 Frc consts  --      0.9180                 1.0248                 1.6462
 IR Inten    --     49.1299                15.8424                10.3302

                     28                     29                     30
                      A                      A                      A
 Frequencies --    772.6671               780.3913               799.6817
 Red. masses --      1.1637                 3.2404                 1.3027
 Frc consts  --      0.4093                 1.1627                 0.4908
 IR Inten    --     44.5995                11.7536                11.0655

                     31                     32                     33
                      A                      A                      A
 Frequencies --    832.3448               848.8331               857.8450
 Red. masses --      1.4175                 1.5054                 1.3458
 Frc consts  --      0.5786                 0.6391                 0.5835
 IR Inten    --     16.9696                14.5150               129.3598

                     34                     35                     36
                      A                      A                      A
 Frequencies --    870.3862               941.7904               943.4662
 Red. masses --      2.2256                 5.8645                 3.7011
 Frc consts  --      0.9934                 3.0647                 1.9410
 IR Inten    --     20.2980                21.3723                 7.0461

                     37                     38                     39
                      A                      A                      A
 Frequencies --    976.6219               986.4641              1021.9837
 Red. masses --      2.7014                 3.1176                 3.3128
 Frc consts  --      1.5181                 1.7874                 2.0386
 IR Inten    --      0.8086                 5.3361                13.0732

                     40                     41                     42
                      A                      A                      A
 Frequencies --   1024.1026              1048.8357              1086.6918
 Red. masses --      3.7122                 2.3003                 2.5535
 Frc consts  --      2.2939                 1.4909                 1.7767
 IR Inten    --     13.7542                 4.1459                41.2084

                     43                     44                     45
                      A                      A                      A
 Frequencies --   1129.1974              1131.7367              1147.9085
 Red. masses --      2.4716                 2.0825                 1.9474
 Frc consts  --      1.8568                 1.5715                 1.5119
 IR Inten    --     46.6239                36.1254                 2.2470

                     46                     47                     48
                      A                      A                      A
 Frequencies --   1158.2178              1179.3264              1211.3224
 Red. masses --      1.3490                 2.5007                 1.2770
 Frc consts  --      1.0662                 2.0492                 1.1039
 IR Inten    --     32.6858               159.4035                 8.7232

                     49                     50                     51
                      A                      A                      A
 Frequencies --   1238.5236              1263.9027              1278.0727
 Red. masses --      1.5529                 2.2648                 1.4152
 Frc consts  --      1.4035                 2.1316                 1.3620
 IR Inten    --     21.1011                 7.3310                10.6682

                     52                     53                     54
                      A                      A                      A
 Frequencies --   1287.7922              1302.6241              1317.3229
 Red. masses --      1.2941                 1.3473                 1.2226
 Frc consts  --      1.2645                 1.3469                 1.2500
 IR Inten    --     11.9817                 6.6359                 0.7985

                     55                     56                     57
                      A                      A                      A
 Frequencies --   1333.2457              1357.6072              1364.1645
 Red. masses --      1.3706                 1.4317                 1.4396
 Frc consts  --      1.4354                 1.5547                 1.5785
 IR Inten    --      1.8915                33.8401                 5.8741

                     58                     59                     60
                      A                      A                      A
 Frequencies --   1387.3985              1413.8448              1424.6588
 Red. masses --      3.7653                 2.3973                 1.4040
 Frc consts  --      4.2702                 2.8235                 1.6790
 IR Inten    --     15.6302               103.9816                31.8073

                     61                     62                     63
                      A                      A                      A
 Frequencies --   1444.8514              1478.2473              1481.5564
 Red. masses --      2.3905                 1.1462                 1.1110
 Frc consts  --      2.9402                 1.4757                 1.4368
 IR Inten    --     68.2221                14.0325                 8.8607

                     64                     65                     66
                      A                      A                      A
 Frequencies --   1504.1258              1522.3832              1537.9108
 Red. masses --      3.2792                 1.0871                 2.3542
 Frc consts  --      4.3710                 1.4844                 3.2806
 IR Inten    --     21.2707                 1.8741               322.3499

                     67                     68                     69
                      A                      A                      A
 Frequencies --   1609.4192              1663.0282              1714.9426
 Red. masses --      4.0461                 1.0884                 8.4774
 Frc consts  --      6.1749                 1.7736                14.6897
 IR Inten    --     18.5524                24.0733               219.4483

                     70                     71                     72
                      A                      A                      A
 Frequencies --   1813.4679              3002.3739              3029.3626
 Red. masses --      9.7195                 1.0648                 1.0684
 Frc consts  --     18.8327                 5.6551                 5.7765
 IR Inten    --    274.7162                30.9329                 6.8699

                     73                     74                     75
                      A                      A                      A
 Frequencies --   3037.1234              3050.1944              3066.2405
 Red. masses --      1.0671                 1.0910                 1.0836
 Frc consts  --      5.7995                 5.9803                 6.0027
 IR Inten    --     19.5258                23.5901                 9.7320

                     76                     77                     78
                      A                      A                      A
 Frequencies --   3088.3449              3095.8990              3229.0547
 Red. masses --      1.1008                 1.0957                 1.0956
 Frc consts  --      6.1859                 6.1872                 6.7306
 IR Inten    --     25.4475                 9.8565                10.0883

                     79                     80                     81
                      A                      A                      A
 Frequencies --   3239.9319              3488.7454              3491.8494
 Red. masses --      1.0972                 1.0503                 1.0850
 Frc consts  --      6.7856                 7.5319                 7.7943
 IR Inten    --      1.6684                 0.3072               437.1651

                     82                     83                     84
                      A                      A                      A
 Frequencies --   3564.4864              3593.9838              3751.9848
 Red. masses --      1.0917                 1.0775                 1.0641
 Frc consts  --      8.1725                 8.2004                 8.8261
 IR Inten    --      0.4770                81.1875                89.1289

 - Thermochemistry -
 -------------------
 Temperature   298.150 Kelvin.  Pressure   1.00000 Atm.
 Atom     1 has atomic number  8 and mass  15.99491

 Molecular mass:   226.10659 amu.
 Principal axes and moments of inertia in atomic units:
                           1         2         3
     Eigenvalues --  2703.602575890.641038204.55448
           X            0.98390   0.17097  -0.05211
           Y            0.11894  -0.40862   0.90492
           Z           -0.13342   0.89655   0.42238
 This molecule is an asymmetric top.
 Rotational symmetry number  1.
 Warning -- assumption of classical behavior for rotation
           may cause significant error
 Rotational temperatures (Kelvin)      0.03204     0.01470     0.01056
 Rotational constants (GHZ):           0.66753     0.30637     0.21997
 Zero-point vibrational energy     642483.3 (Joules/Mol)
                                  153.55720 (Kcal/Mol)
 Warning -- explicit consideration of  21 degrees of freedom as
           vibrations may cause significant error
 Vibrational temperatures:     32.08    44.99    79.11    87.40   109.11
          (Kelvin)            113.99   128.20   184.88   200.82   274.85
                              325.56   343.54   404.27   418.26   455.57
                              512.68   566.76   615.05   770.22   818.96
                              851.43   914.94   933.37   941.55   979.95
                             1034.12  1089.82  1111.69  1122.81  1150.56
                             1197.56  1221.28  1234.25  1252.29  1355.02
                             1357.44  1405.14  1419.30  1470.40  1473.45
                             1509.04  1563.51  1624.66  1628.31  1651.58
                             1666.41  1696.79  1742.82  1781.96  1818.47
                             1838.86  1852.84  1874.18  1895.33  1918.24
                             1953.29  1962.73  1996.15  2034.20  2049.76
                             2078.82  2126.87  2131.63  2164.10  2190.37
                             2212.71  2315.59  2392.72  2467.42  2609.17
                             4319.74  4358.57  4369.74  4388.54  4411.63
                             4443.43  4454.30  4645.88  4661.53  5019.52
                             5023.99  5128.49  5170.93  5398.26

 Zero-point correction=                           0.244709 (Hartree/Particle)
 Thermal correction to Energy=                    0.260782
 Thermal correction to Enthalpy=                  0.261726
 Thermal correction to Gibbs Free Energy=         0.198278
 Sum of electronic and zero-point Energies=           -796.123600
 Sum of electronic and thermal Energies=              -796.107527
 Sum of electronic and thermal Enthalpies=            -796.106583
 Sum of electronic and thermal Free Energies=         -796.170030

                     E (Thermal)             CV                S
                      KCal/Mol        Cal/Mol-Kelvin    Cal/Mol-Kelvin
 Total                  163.643             58.002            133.537
 Electronic               0.000              0.000              0.000
 Translational            0.889              2.981             42.150
 Rotational               0.889              2.981             33.235
 Vibrational            161.865             52.040             58.152
 Vibration     1          0.593              1.985              6.418
 Vibration     2          0.594              1.983              5.747
 Vibration     3          0.596              1.976              4.630
 Vibration     4          0.597              1.973              4.433
 Vibration     5          0.599              1.965              3.996
 Vibration     6          0.600              1.963              3.910
 Vibration     7          0.602              1.957              3.680
 Vibration     8          0.611              1.925              2.968
 Vibration     9          0.615              1.914              2.810
 Vibration    10          0.634              1.852              2.218
 Vibration    11          0.650              1.801              1.908
 Vibration    12          0.657              1.781              1.812
 Vibration    13          0.681              1.709              1.528
 Vibration    14          0.687              1.691              1.470
 Vibration    15          0.704              1.642              1.327
 Vibration    16          0.732              1.562              1.138
 Vibration    17          0.761              1.483              0.985
 Vibration    18          0.789              1.410              0.867
 Vibration    19          0.890              1.172              0.575
 Vibration    20          0.925              1.098              0.506
 Vibration    21          0.949              1.049              0.464

 Optimization completed.
    -- Stationary point found.
 Normal termination of Gaussian 09 at Thu Jul 29 06:04:39 2021.
