 Gaussian 09, Revision D.01,
 Gaussian 09:  ES64L-G09RevD.01 24-Apr-2013

 ----------------------------------------------------------------------
 # B3LYP/6-311G(2df,2pd) guess=read geom=checkpoint opt=readfc freq=nor
 aman nosymm integral(ultrafinegrid)
 ----------------------------------------------------------------------

 ------------------------------------------------------------
 Candidate Structure: Conf:490 OPT and FREQ calc in gas phase
 ------------------------------------------------------------
 Structure from the checkpoint file:  "conf-490.chk"
 Charge =  0 Multiplicity = 1

 SCF Done:  E(RB3LYP) =  -796.362651982     A.U. after   11 cycles
 SCF Done:  E(RB3LYP) =  -796.363397226     A.U. after   11 cycles
 SCF Done:  E(RB3LYP) =  -796.363407080     A.U. after   10 cycles
 SCF Done:  E(RB3LYP) =  -796.363407418     A.U. after    7 cycles
 SCF Done:  E(RB3LYP) =  -796.363407428     A.U. after    6 cycles
 Optimization completed.
    -- Stationary point found.
 Normal termination of Gaussian 09 at Thu Jul 29 02:43:11 2021.

 ----------------------------------------------------------------------
 #N Geom=AllCheck Guess=TCheck SCRF=Check GenChk RB3LYP/6-311G(2df,2pd)
  Freq
 ----------------------------------------------------------------------

 Structure from the checkpoint file:  "conf-490.chk"
 ------------------------------------------------------------
 Candidate Structure: Conf:490 OPT and FREQ calc in gas phase
 ------------------------------------------------------------
 Charge =  0 Multiplicity = 1

                          Input orientation:
 ---------------------------------------------------------------------
 Center     Atomic      Atomic             Coordinates (Angstroms)
 Number     Number       Type             X           Y           Z
 ---------------------------------------------------------------------
      1          8           0        0.903149    0.593821   -2.318030
      2          6           0        1.576493    0.191024   -1.380533
      3          7           0        1.067914    0.033232   -0.132308
      4          6           0       -0.285747    0.425904    0.166423
      5          6           0       -0.395864    0.717151    1.662168
      6          8           0       -1.525833    1.334840    2.055157
      7          8           0        0.445577    0.414005    2.461354
      8          6           0       -1.305911   -0.658344   -0.299056
      9          6           0       -2.740324   -0.284108   -0.117394
     10          6           0       -3.525823    0.685609   -0.694141
     11          7           0       -4.796780    0.669470   -0.168565
     12          6           0       -4.793344   -0.294970    0.715821
     13          7           0       -3.575943   -0.902374    0.789390
     14          6           0        3.045943   -0.182026   -1.561027
     15          6           0        3.989826    0.170145   -0.407779
     16          7           0        3.705280   -0.642509    0.781775
     17          1           0        1.684877   -0.260045    0.622759
     18          1           0       -0.514618    1.337291   -0.392087
     19          1           0       -2.124966    1.467424    1.304477
     20          1           0       -1.094032   -0.823079   -1.354801
     21          1           0       -1.083935   -1.589234    0.226401
     22          1           0       -3.247819    1.374685   -1.474630
     23          1           0       -5.627492   -0.597859    1.326690
     24          1           0       -3.318579   -1.651795    1.408742
     25          1           0        3.098090   -1.257901   -1.758477
     26          1           0        3.367100    0.315599   -2.474638
     27          1           0        5.023131    0.071619   -0.760734
     28          1           0        3.850224    1.217090   -0.132750
     29          1           0        4.178467   -0.278415    1.598513
     30          1           0        4.020752   -1.596367    0.651887
 ---------------------------------------------------------------------

 SCF Done:  E(RB3LYP) =  -796.363407428     A.U. after    1 cycles

 Alpha  occ. eigenvalues --  -19.16932 -19.11276 -19.07896 -14.37870 -14.32714
 Alpha  occ. eigenvalues --  -14.31278 -14.29772 -10.30750 -10.26569 -10.23513
 Alpha  occ. eigenvalues --  -10.23053 -10.21747 -10.21236 -10.20129 -10.18974
 Alpha  occ. eigenvalues --  -10.18194  -1.11168  -1.03661  -1.03139  -1.02823
 Alpha  occ. eigenvalues --   -0.92891  -0.90363  -0.88430  -0.81207  -0.77114
 Alpha  occ. eigenvalues --   -0.74019  -0.68317  -0.64349  -0.62816  -0.62303
 Alpha  occ. eigenvalues --   -0.60488  -0.58087  -0.56614  -0.54390  -0.51943
 Alpha  occ. eigenvalues --   -0.49960  -0.48217  -0.47763  -0.46536  -0.46339
 Alpha  occ. eigenvalues --   -0.45283  -0.44444  -0.43681  -0.43362  -0.41965
 Alpha  occ. eigenvalues --   -0.41585  -0.40489  -0.39877  -0.39476  -0.38299
 Alpha  occ. eigenvalues --   -0.37572  -0.35269  -0.33154  -0.29806  -0.28904
 Alpha  occ. eigenvalues --   -0.28027  -0.26987  -0.26483  -0.25249  -0.23928
 Alpha virt. eigenvalues --   -0.00817   0.00935   0.01195   0.02342   0.02940
 Alpha virt. eigenvalues --    0.03604   0.05247   0.06017   0.06210   0.06786
 Alpha virt. eigenvalues --    0.08126   0.08981   0.09392   0.10361   0.11298

 Mulliken charges:
               1
     1  O   -0.429635
     2  C    0.418186
     3  N   -0.344348
     4  C    0.075643
     5  C    0.512989
     6  O   -0.312914
     7  O   -0.354947
     8  C    0.032716
     9  C    0.005812
    10  C    0.085276
    11  N   -0.348781
    12  C    0.237398
    13  N   -0.211757
    14  C   -0.020688
    15  C    0.111105
    16  N   -0.267011
    17  H    0.111885
    18  H    0.024419
    19  H    0.225491
    20  H    0.046060
    21  H    0.009603
    22  H    0.029006
    23  H    0.023116
    24  H    0.108652
    25  H    0.009582
    26  H    0.014425
    27  H   -0.002933
    28  H    0.025204
    29  H    0.091607
    30  H    0.094840
 Sum of Mulliken charges =   0.00000

 Dipole moment (field-independent basis, Debye):
    X=              3.0722    Y=             -3.6778    Z=              1.3228  Tot=              4.9714
 Quadrupole moment (field-independent basis, Debye-Ang):
   XX=            -83.9366   YY=            -88.8567   ZZ=           -108.8007
   XY=              7.2770   XZ=             -6.6873   YZ=             -3.3582

  Exact polarizability: 179.317  -7.159 104.942  -7.593  -9.336 125.995
 Approx polarizability: 226.769 -17.676 177.460   0.187 -25.433 202.676

                      1                      2                      3
                      A                      A                      A
 Frequencies --     24.8955                38.4211                45.5987
 Red. masses --      4.6114                 5.0709                 4.7312
 Frc consts  --      0.0017                 0.0044                 0.0058
 IR Inten    --      0.6304                 6.6263                 3.1320

                      4                      5                      6
                      A                      A                      A
 Frequencies --     59.0482                79.9234                86.2523
 Red. masses --      4.1714                 5.5143                 5.7103
 Frc consts  --      0.0086                 0.0208                 0.0250
 IR Inten    --      5.8289                 2.5386                 4.3598

                      7                      8                      9
                      A                      A                      A
 Frequencies --    100.4701               119.3692               172.5601
 Red. masses --      6.7150                 4.2386                 5.0786
 Frc consts  --      0.0399                 0.0356                 0.0891
 IR Inten    --      5.1029                 4.9220                 8.2959

                     10                     11                     12
                      A                      A                      A
 Frequencies --    196.6577               225.4967               286.4697
 Red. masses --      2.2705                 5.1881                 1.2410
 Frc consts  --      0.0517                 0.1554                 0.0600
 IR Inten    --      6.8523                 5.2913                10.9355

                     13                     14                     15
                      A                      A                      A
 Frequencies --    289.6745               334.1313               343.0214
 Red. masses --      7.7558                 2.2044                 4.0477
 Frc consts  --      0.3834                 0.1450                 0.2806
 IR Inten    --      0.7185                 5.3256                 7.4165

                     16                     17                     18
                      A                      A                      A
 Frequencies --    345.6203               391.4446               471.3969
 Red. masses --      6.4375                 4.4248                 2.6782
 Frc consts  --      0.4531                 0.3995                 0.3506
 IR Inten    --      6.8991                16.8094                10.6828

                     19                     20                     21
                      A                      A                      A
 Frequencies --    509.0271               545.8730               596.8403
 Red. masses --      3.2052                 1.3650                 1.4026
 Frc consts  --      0.4893                 0.2396                 0.2944
 IR Inten    --     27.5803                80.1170                85.0840

                     22                     23                     24
                      A                      A                      A
 Frequencies --    601.5744               643.4672               673.3573
 Red. masses --      3.3259                 3.3367                 3.0362
 Frc consts  --      0.7092                 0.8140                 0.8111
 IR Inten    --      1.9729                 3.8831                12.8449

                     25                     26                     27
                      A                      A                      A
 Frequencies --    685.1821               695.5219               736.6456
 Red. masses --      3.0069                 3.0066                 3.2012
 Frc consts  --      0.8317                 0.8569                 1.0235
 IR Inten    --      8.4890                35.0276                 7.4879

                     28                     29                     30
                      A                      A                      A
 Frequencies --    762.6947               791.5530               815.0812
 Red. masses --      2.7680                 1.4681                 2.5004
 Frc consts  --      0.9487                 0.5420                 0.9787
 IR Inten    --      3.0809                26.4488                10.5121

                     31                     32                     33
                      A                      A                      A
 Frequencies --    831.3267               835.1841               868.8969
 Red. masses --      1.4195                 1.4687                 1.4440
 Frc consts  --      0.5780                 0.6036                 0.6423
 IR Inten    --     21.2743                79.0160                23.1718

                     34                     35                     36
                      A                      A                      A
 Frequencies --    890.1696               918.5699               937.6333
 Red. masses --      2.6658                 2.0471                 5.7960
 Frc consts  --      1.2446                 1.0177                 3.0022
 IR Inten    --     10.4586                11.4479                13.4906

                     37                     38                     39
                      A                      A                      A
 Frequencies --    973.7517              1003.6037              1010.6380
 Red. masses --      2.1986                 1.8748                 2.8627
 Frc consts  --      1.2283                 1.1126                 1.7227
 IR Inten    --     13.6472                18.7349                 0.6704

                     40                     41                     42
                      A                      A                      A
 Frequencies --   1026.0996              1034.4033              1082.2058
 Red. masses --      4.3455                 2.8455                 2.6020
 Frc consts  --      2.6957                 1.7939                 1.7955
 IR Inten    --      7.4054                 7.4316                 6.5032

                     43                     44                     45
                      A                      A                      A
 Frequencies --   1109.0633              1140.5597              1141.5491
 Red. masses --      1.6363                 2.4911                 2.2637
 Frc consts  --      1.1859                 1.9093                 1.7380
 IR Inten    --     14.3872                17.0334                 5.3973

                     46                     47                     48
                      A                      A                      A
 Frequencies --   1159.0882              1163.0575              1201.1765
 Red. masses --      1.5910                 1.4984                 2.3283
 Frc consts  --      1.2594                 1.1942                 1.9793
 IR Inten    --     16.1506                 7.8544                16.4134

                     49                     50                     51
                      A                      A                      A
 Frequencies --   1242.6837              1254.2313              1282.6332
 Red. masses --      1.6215                 1.9502                 1.4169
 Frc consts  --      1.4754                 1.8076                 1.3733
 IR Inten    --     32.0300                22.0547                 1.0305

                     52                     53                     54
                      A                      A                      A
 Frequencies --   1293.4601              1313.4581              1316.1600
 Red. masses --      1.3218                 1.4352                 1.3619
 Frc consts  --      1.3029                 1.4588                 1.3900
 IR Inten    --      1.1475                38.7357                 6.7163

                     55                     56                     57
                      A                      A                      A
 Frequencies --   1319.3812              1360.0714              1368.6002
 Red. masses --      1.4806                 1.3420                 1.3691
 Frc consts  --      1.5186                 1.4626                 1.5109
 IR Inten    --    111.2006                89.3428                12.3040

                     58                     59                     60
                      A                      A                      A
 Frequencies --   1394.2979              1400.7207              1419.6872
 Red. masses --      2.4454                 1.9680                 1.4037
 Frc consts  --      2.8010                 2.2750                 1.6669
 IR Inten    --     47.6390                69.2336                17.8566

                     61                     62                     63
                      A                      A                      A
 Frequencies --   1429.4559              1467.1993              1488.5658
 Red. masses --      3.0844                 1.0836                 1.4034
 Frc consts  --      3.7133                 1.3743                 1.8322
 IR Inten    --     21.6419                13.2904                10.4873

                     64                     65                     66
                      A                      A                      A
 Frequencies --   1494.0131              1512.4272              1543.6320
 Red. masses --      2.2567                 1.1077                 1.9917
 Frc consts  --      2.9678                 1.4929                 2.7962
 IR Inten    --     14.0753                18.1710               360.3245

                     67                     68                     69
                      A                      A                      A
 Frequencies --   1596.8038              1659.0589              1731.5400
 Red. masses --      4.0319                 1.0898                 9.2989
 Frc consts  --      6.0570                 1.7674                16.4266
 IR Inten    --      9.5010                30.4569               273.2710

                     70                     71                     72
                      A                      A                      A
 Frequencies --   1842.7922              2979.9039              3020.3221
 Red. masses --      9.8315                 1.0725                 1.0706
 Frc consts  --     19.6708                 5.6113                 5.7544
 IR Inten    --    253.3237                85.2874                 8.2382

                     73                     74                     75
                      A                      A                      A
 Frequencies --   3034.8421              3049.6400              3061.8817
 Red. masses --      1.0783                 1.0664                 1.0903
 Frc consts  --      5.8514                 5.8434                 6.0227
 IR Inten    --      7.9776                22.0309                26.1615

                     76                     77                     78
                      A                      A                      A
 Frequencies --   3097.8402              3102.6274              3235.3170
 Red. masses --      1.1020                 1.0920                 1.0957
 Frc consts  --      6.2308                 6.1932                 6.7572
 IR Inten    --      2.2249                10.6669                 3.5640

                     79                     80                     81
                      A                      A                      A
 Frequencies --   3244.9546              3427.3162              3503.6080
 Red. masses --      1.0978                 1.0810                 1.0499
 Frc consts  --      6.8106                 7.4814                 7.5936
 IR Inten    --      0.8071               295.7812                 0.1450

                     82                     83                     84
                      A                      A                      A
 Frequencies --   3582.6547              3647.6679              3687.6250
 Red. masses --      1.0930                 1.0811                 1.0664
 Frc consts  --      8.2658                 8.4755                 8.5442
 IR Inten    --      3.9123                48.3728               193.4855

 - Thermochemistry -
 -------------------
 Temperature   298.150 Kelvin.  Pressure   1.00000 Atm.
 Atom     1 has atomic number  8 and mass  15.99491

 Molecular mass:   226.10659 amu.
 Principal axes and moments of inertia in atomic units:
                           1         2         3
     Eigenvalues --  1649.359446667.143757642.64247
           X            0.99189   0.12630   0.01404
           Y           -0.02185   0.06062   0.99792
           Z           -0.12519   0.99014  -0.06289
 This molecule is an asymmetric top.
 Rotational symmetry number  1.
 Warning -- assumption of classical behavior for rotation
           may cause significant error
 Rotational temperatures (Kelvin)      0.05251     0.01299     0.01133
 Rotational constants (GHZ):           1.09421     0.27069     0.23614
 Zero-point vibrational energy     642402.6 (Joules/Mol)
                                  153.53789 (Kcal/Mol)
 Warning -- explicit consideration of  22 degrees of freedom as
           vibrations may cause significant error
 Vibrational temperatures:     35.82    55.28    65.61    84.96   114.99
          (Kelvin)            124.10   144.55   171.75   248.28   282.95
                              324.44   412.17   416.78   480.74   493.53
                              497.27   563.20   678.23   732.38   785.39
                              858.72   865.53   925.80   968.81   985.82
                             1000.70  1059.87  1097.35  1138.87  1172.72
                             1196.09  1201.64  1250.15  1280.75  1321.62
                             1349.04  1401.01  1443.96  1454.08  1476.33
                             1488.27  1557.05  1595.69  1641.01  1642.43
                             1667.67  1673.38  1728.22  1787.94  1804.56
                             1845.42  1861.00  1889.77  1893.66  1898.29
                             1956.84  1969.11  2006.08  2015.32  2042.61
                             2056.67  2110.97  2141.71  2149.55  2176.04
                             2220.94  2297.44  2387.01  2491.30  2651.36
                             4287.41  4345.56  4366.46  4387.75  4405.36
                             4457.10  4463.98  4654.89  4668.76  4931.14
                             5040.90  5154.63  5248.17  5305.66

 Zero-point correction=                           0.244678 (Hartree/Particle)
 Thermal correction to Energy=                    0.260538
 Thermal correction to Enthalpy=                  0.261482
 Thermal correction to Gibbs Free Energy=         0.199018
 Sum of electronic and zero-point Energies=           -796.118729
 Sum of electronic and thermal Energies=              -796.102870
 Sum of electronic and thermal Enthalpies=            -796.101925
 Sum of electronic and thermal Free Energies=         -796.164389

                     E (Thermal)             CV                S
                      KCal/Mol        Cal/Mol-Kelvin    Cal/Mol-Kelvin
 Total                  163.490             57.907            131.467
 Electronic               0.000              0.000              0.000
 Translational            0.889              2.981             42.150
 Rotational               0.889              2.981             32.797
 Vibrational            161.712             51.946             56.520
 Vibration     1          0.593              1.985              6.200
 Vibration     2          0.594              1.982              5.339
 Vibration     3          0.595              1.979              5.000
 Vibration     4          0.596              1.974              4.489
 Vibration     5          0.600              1.963              3.893
 Vibration     6          0.601              1.959              3.743
 Vibration     7          0.604              1.949              3.445
 Vibration     8          0.609              1.933              3.111
 Vibration     9          0.626              1.876              2.407
 Vibration    10          0.636              1.845              2.164
 Vibration    11          0.650              1.802              1.915
 Vibration    12          0.684              1.699              1.495
 Vibration    13          0.686              1.693              1.476
 Vibration    14          0.716              1.607              1.240
 Vibration    15          0.722              1.589              1.198
 Vibration    16          0.724              1.584              1.186
 Vibration    17          0.759              1.488              0.995
 Vibration    18          0.828              1.314              0.734
 Vibration    19          0.864              1.230              0.636
 Vibration    20          0.901              1.149              0.553
 Vibration    21          0.955              1.039              0.455
 Vibration    22          0.960              1.028              0.447

 Optimization completed.
    -- Stationary point found.
 Normal termination of Gaussian 09 at Thu Jul 29 06:16:39 2021.
