 Gaussian 09, Revision D.01,
 Gaussian 09:  ES64L-G09RevD.01 24-Apr-2013

 ----------------------------------------------------------------------
 # B3LYP/6-311G(2df,2pd) guess=read geom=checkpoint opt=readfc freq=nor
 aman nosymm integral(ultrafinegrid)
 ----------------------------------------------------------------------

 ------------------------------------------------------------
 Candidate Structure: Conf:295 OPT and FREQ calc in gas phase
 ------------------------------------------------------------
 Structure from the checkpoint file:  "conf-295.chk"
 Charge =  0 Multiplicity = 1

 SCF Done:  E(RB3LYP) =  -796.363219251     A.U. after   11 cycles
 SCF Done:  E(RB3LYP) =  -796.363968276     A.U. after   11 cycles
 SCF Done:  E(RB3LYP) =  -796.363994302     A.U. after   11 cycles
 SCF Done:  E(RB3LYP) =  -796.363999275     A.U. after   10 cycles
 SCF Done:  E(RB3LYP) =  -796.363999661     A.U. after    7 cycles
 SCF Done:  E(RB3LYP) =  -796.363999706     A.U. after    7 cycles
 Optimization completed.
    -- Stationary point found.
 Normal termination of Gaussian 09 at Thu Jul 29 02:55:27 2021.

 ----------------------------------------------------------------------
 #N Geom=AllCheck Guess=TCheck SCRF=Check GenChk RB3LYP/6-311G(2df,2pd)
  Freq
 ----------------------------------------------------------------------

 Structure from the checkpoint file:  "conf-295.chk"
 ------------------------------------------------------------
 Candidate Structure: Conf:295 OPT and FREQ calc in gas phase
 ------------------------------------------------------------
 Charge =  0 Multiplicity = 1

                          Input orientation:
 ---------------------------------------------------------------------
 Center     Atomic      Atomic             Coordinates (Angstroms)
 Number     Number       Type             X           Y           Z
 ---------------------------------------------------------------------
      1          8           0        1.354080    0.956359   -0.689736
      2          6           0        1.753402    0.056971    0.033767
      3          7           0        0.915175   -0.604306    0.878243
      4          6           0       -0.466305   -0.206429    1.043492
      5          6           0       -0.917991   -0.748426    2.386961
      6          8           0       -2.178414   -0.382548    2.711766
      7          8           0       -0.254439   -1.445874    3.107953
      8          6           0       -1.362973   -0.697529   -0.141216
      9          6           0       -2.538038    0.152246   -0.486840
     10          6           0       -2.772232    0.937463   -1.586143
     11          7           0       -4.011450    1.524652   -1.521359
     12          6           0       -4.529763    1.106933   -0.393387
     13          7           0       -3.687036    0.267289    0.268216
     14          6           0        3.200433   -0.415987    0.059154
     15          6           0        4.078873    0.322882   -0.944076
     16          7           0        3.685719   -0.014225   -2.312957
     17          1           0        1.276756   -1.266162    1.546974
     18          1           0       -0.528144    0.884307    1.066569
     19          1           0       -2.361927   -0.775229    3.578167
     20          1           0       -0.712291   -0.700141   -1.012021
     21          1           0       -1.655793   -1.736341    0.037213
     22          1           0       -2.108432    1.105061   -2.417939
     23          1           0       -5.499467    1.373179   -0.005761
     24          1           0       -3.812941   -0.117143    1.187853
     25          1           0        3.588089   -0.285601    1.073942
     26          1           0        3.220767   -1.486056   -0.160846
     27          1           0        5.111043    0.001056   -0.795193
     28          1           0        4.037373    1.396996   -0.724538
     29          1           0        2.808509    0.450169   -2.518129
     30          1           0        4.367436    0.346435   -2.968887
 ---------------------------------------------------------------------

 SCF Done:  E(RB3LYP) =  -796.363999706     A.U. after    1 cycles

 Alpha  occ. eigenvalues --  -19.20541 -19.14604 -19.09266 -14.35952 -14.34392
 Alpha  occ. eigenvalues --  -14.28069 -14.27648 -10.33648 -10.27615 -10.24675
 Alpha  occ. eigenvalues --  -10.21496 -10.19919 -10.19867 -10.19107 -10.17978
 Alpha  occ. eigenvalues --  -10.17173  -1.14885  -1.05939  -1.04787  -1.01174
 Alpha  occ. eigenvalues --   -0.94146  -0.87628  -0.86757  -0.81341  -0.76516
 Alpha  occ. eigenvalues --   -0.74221  -0.68956  -0.65628  -0.61436  -0.60931
 Alpha  occ. eigenvalues --   -0.59901  -0.58672  -0.54708  -0.52882  -0.52479
 Alpha  occ. eigenvalues --   -0.50219  -0.50061  -0.48549  -0.48172  -0.46437
 Alpha  occ. eigenvalues --   -0.46025  -0.44521  -0.43345  -0.42557  -0.41816
 Alpha  occ. eigenvalues --   -0.40562  -0.40323  -0.39575  -0.39394  -0.37620
 Alpha  occ. eigenvalues --   -0.36457  -0.36259  -0.35912  -0.31908  -0.28118
 Alpha  occ. eigenvalues --   -0.27562  -0.26632  -0.26440  -0.23628  -0.22510
 Alpha virt. eigenvalues --   -0.02929   0.00351   0.01113   0.02060   0.03539
 Alpha virt. eigenvalues --    0.05462   0.05735   0.06011   0.07141   0.07682
 Alpha virt. eigenvalues --    0.08111   0.08480   0.09874   0.10364   0.11284

 Mulliken charges:
               1
     1  O   -0.436088
     2  C    0.493266
     3  N   -0.340401
     4  C    0.127797
     5  C    0.546949
     6  O   -0.368490
     7  O   -0.368989
     8  C   -0.014734
     9  C    0.089772
    10  C    0.120666
    11  N   -0.352364
    12  C    0.229964
    13  N   -0.228189
    14  C   -0.067826
    15  C    0.171246
    16  N   -0.326324
    17  H    0.103220
    18  H    0.025460
    19  H    0.232560
    20  H    0.027929
    21  H    0.012054
    22  H    0.009818
    23  H    0.012666
    24  H    0.095685
    25  H    0.009494
    26  H    0.013428
    27  H   -0.005982
    28  H   -0.009729
    29  H    0.115257
    30  H    0.081883
 Sum of Mulliken charges =   0.00000

 Dipole moment (field-independent basis, Debye):
    X=              0.3349    Y=             -2.3166    Z=              4.7345  Tot=              5.2815
 Quadrupole moment (field-independent basis, Debye-Ang):
   XX=            -86.7561   YY=           -100.8714   ZZ=            -92.0454
   XY=             10.2571   XZ=            -17.7117   YZ=              2.5186

  Exact polarizability: 168.859 -14.862 106.380  -8.459 -21.065 135.509
 Approx polarizability: 215.647 -23.888 179.722  -5.986 -37.480 207.116

                      1                      2                      3
                      A                      A                      A
 Frequencies --     21.8149                25.1897                33.4405
 Red. masses --      3.5798                 4.6162                 7.1711
 Frc consts  --      0.0010                 0.0017                 0.0047
 IR Inten    --      2.0173                 1.0977                 1.6316

                      4                      5                      6
                      A                      A                      A
 Frequencies --     50.3782                65.4795                72.3219
 Red. masses --      4.6484                 7.0780                 5.1372
 Frc consts  --      0.0070                 0.0179                 0.0158
 IR Inten    --      1.0836                 2.2405                 3.1908

                      7                      8                      9
                      A                      A                      A
 Frequencies --    122.6918               130.2355               153.7146
 Red. masses --      5.0749                 5.3046                 3.6378
 Frc consts  --      0.0450                 0.0530                 0.0506
 IR Inten    --      5.6984                 2.3183                 4.4853

                     10                     11                     12
                      A                      A                      A
 Frequencies --    191.2445               247.2197               273.1653
 Red. masses --      4.7464                 2.5381                 5.3839
 Frc consts  --      0.1023                 0.0914                 0.2367
 IR Inten    --      0.9094                32.9443                 1.0788

                     13                     14                     15
                      A                      A                      A
 Frequencies --    306.9575               315.4355               328.8838
 Red. masses --      2.0871                 1.4246                 4.4013
 Frc consts  --      0.1159                 0.0835                 0.2805
 IR Inten    --     11.3623                27.5625                 0.9900

                     16                     17                     18
                      A                      A                      A
 Frequencies --    343.7918               380.9318               427.9355
 Red. masses --      4.1611                 4.0999                 2.5781
 Frc consts  --      0.2898                 0.3505                 0.2782
 IR Inten    --      9.6597                 5.6131                34.8107

                     19                     20                     21
                      A                      A                      A
 Frequencies --    500.1551               551.3835               562.8052
 Red. masses --      1.3599                 1.4940                 2.7433
 Frc consts  --      0.2004                 0.2676                 0.5120
 IR Inten    --     61.8579                52.6683                21.2745

                     22                     23                     24
                      A                      A                      A
 Frequencies --    597.5908               616.0257               634.7963
 Red. masses --      1.7655                 2.1483                 3.0233
 Frc consts  --      0.3715                 0.4803                 0.7178
 IR Inten    --     38.6640                 3.8015                34.9063

                     25                     26                     27
                      A                      A                      A
 Frequencies --    668.7777               680.5616               686.6719
 Red. masses --      2.1515                 3.3401                 2.8030
 Frc consts  --      0.5670                 0.9115                 0.7787
 IR Inten    --     70.1434                 9.4833                 5.1249

                     28                     29                     30
                      A                      A                      A
 Frequencies --    742.6847               771.1795               809.5280
 Red. masses --      3.2250                 4.0910                 2.6920
 Frc consts  --      1.0481                 1.4335                 1.0394
 IR Inten    --     20.1221                 4.4306                12.6211

                     31                     32                     33
                      A                      A                      A
 Frequencies --    823.2760               866.4538               869.8604
 Red. masses --      1.4180                 1.4684                 1.8142
 Frc consts  --      0.5663                 0.6495                 0.8088
 IR Inten    --     15.6853                25.6502                58.1015

                     34                     35                     36
                      A                      A                      A
 Frequencies --    889.5057               910.3298               937.2198
 Red. masses --      1.9631                 1.7913                 5.6714
 Frc consts  --      0.9151                 0.8746                 2.9351
 IR Inten    --     10.5689                45.7605                14.8574

                     37                     38                     39
                      A                      A                      A
 Frequencies --    956.6977              1004.2846              1013.8282
 Red. masses --      2.2633                 4.3890                 3.3745
 Frc consts  --      1.2205                 2.6081                 2.0436
 IR Inten    --     11.6102                 8.7623                 8.9917

                     40                     41                     42
                      A                      A                      A
 Frequencies --   1029.7651              1063.3346              1099.7620
 Red. masses --      3.6022                 2.5859                 3.4997
 Frc consts  --      2.2506                 1.7227                 2.4939
 IR Inten    --     10.8879                15.4764                37.8439

                     43                     44                     45
                      A                      A                      A
 Frequencies --   1115.1632              1123.7542              1144.8124
 Red. masses --      1.6011                 1.7511                 2.1215
 Frc consts  --      1.1731                 1.3029                 1.6382
 IR Inten    --     31.2628                17.9775                13.0740

                     46                     47                     48
                      A                      A                      A
 Frequencies --   1165.4098              1187.0408              1188.9237
 Red. masses --      1.7198                 2.1903                 1.3889
 Frc consts  --      1.3762                 1.8184                 1.1568
 IR Inten    --    156.4010                56.0105                22.6713

                     49                     50                     51
                      A                      A                      A
 Frequencies --   1233.4267              1241.3778              1261.6886
 Red. masses --      1.2524                 1.5900                 2.3198
 Frc consts  --      1.1226                 1.4437                 2.1757
 IR Inten    --      6.6281                29.7661                16.9529

                     52                     53                     54
                      A                      A                      A
 Frequencies --   1279.6524              1306.7971              1325.2579
 Red. masses --      1.4435                 1.4188                 1.2365
 Frc consts  --      1.3926                 1.4275                 1.2795
 IR Inten    --      7.9124                12.0041                 3.2564

                     55                     56                     57
                      A                      A                      A
 Frequencies --   1354.9429              1357.2081              1375.8946
 Red. masses --      1.2189                 1.5377                 1.5756
 Frc consts  --      1.3185                 1.6688                 1.7574
 IR Inten    --      4.6030                37.7515                13.2332

                     58                     59                     60
                      A                      A                      A
 Frequencies --   1388.9422              1412.2002              1428.5529
 Red. masses --      2.8645                 2.2848                 1.3747
 Frc consts  --      3.2559                 2.6847                 1.6529
 IR Inten    --     27.5146                74.2169                 8.8648

                     61                     62                     63
                      A                      A                      A
 Frequencies --   1429.5424              1451.4371              1474.1209
 Red. masses --      2.6932                 1.1146                 1.1524
 Frc consts  --      3.2427                 1.3834                 1.4754
 IR Inten    --     26.6037                21.9144                19.5348

                     64                     65                     66
                      A                      A                      A
 Frequencies --   1502.0930              1502.9337              1526.3424
 Red. masses --      3.1763                 1.0962                 2.1048
 Frc consts  --      4.2224                 1.4589                 2.8892
 IR Inten    --     19.4555                 3.6179               325.1509

                     67                     68                     69
                      A                      A                      A
 Frequencies --   1605.1882              1654.6094              1739.0103
 Red. masses --      4.2375                 1.1262                 7.1082
 Frc consts  --      6.4330                 1.8167                12.6653
 IR Inten    --      6.1301                70.6981               152.0971

                     70                     71                     72
                      A                      A                      A
 Frequencies --   1817.5893              2975.8786              3020.5697
 Red. masses --      9.4989                 1.0713                 1.0717
 Frc consts  --     18.4890                 5.5896                 5.7609
 IR Inten    --    274.1933                58.0174                24.1060

                     73                     74                     75
                      A                      A                      A
 Frequencies --   3023.8664              3047.7770              3057.3292
 Red. masses --      1.0615                 1.0824                 1.0900
 Frc consts  --      5.7188                 5.9238                 6.0029
 IR Inten    --     16.1994                13.0894                40.2119

                     76                     77                     78
                      A                      A                      A
 Frequencies --   3066.5779              3119.2684              3236.6399
 Red. masses --      1.1000                 1.0914                 1.0942
 Frc consts  --      6.0948                 6.2567                 6.7534
 IR Inten    --     15.5874                 1.4825                 7.5124

                     79                     80                     81
                      A                      A                      A
 Frequencies --   3240.4771              3495.8599              3569.4758
 Red. masses --      1.0991                 1.0494                 1.0924
 Frc consts  --      6.7999                 7.5563                 8.2007
 IR Inten    --      0.2939                 6.5114                 4.9620

                     82                     83                     84
                      A                      A                      A
 Frequencies --   3604.2429              3662.0198              3740.7972
 Red. masses --      1.0774                 1.0806                 1.0640
 Frc consts  --      8.2461                 8.5379                 8.7724
 IR Inten    --     70.0932                83.7781                83.6292

 - Thermochemistry -
 -------------------
 Temperature   298.150 Kelvin.  Pressure   1.00000 Atm.
 Atom     1 has atomic number  8 and mass  15.99491

 Molecular mass:   226.10659 amu.
 Principal axes and moments of inertia in atomic units:
                           1         2         3
     Eigenvalues --  2412.786846143.649108252.50634
           X            0.98943   0.08353   0.11850
           Y           -0.07603  -0.39696   0.91468
           Z           -0.12344   0.91403   0.38641
 This molecule is an asymmetric top.
 Rotational symmetry number  1.
 Warning -- assumption of classical behavior for rotation
           may cause significant error
 Rotational temperatures (Kelvin)      0.03590     0.01410     0.01050
 Rotational constants (GHZ):           0.74799     0.29376     0.21869
 Zero-point vibrational energy     641389.8 (Joules/Mol)
                                  153.29584 (Kcal/Mol)
 Warning -- explicit consideration of  23 degrees of freedom as
           vibrations may cause significant error
 Vibrational temperatures:     31.39    36.24    48.11    72.48    94.21
          (Kelvin)            104.05   176.53   187.38   221.16   275.16
                              355.69   393.02   441.64   453.84   473.19
                              494.64   548.08   615.70   719.61   793.32
                              809.75   859.80   886.32   913.33   962.22
                              979.18   987.97  1068.56  1109.55  1164.73
                             1184.51  1246.63  1251.53  1279.80  1309.76
                             1348.45  1376.47  1444.94  1458.67  1481.60
                             1529.90  1582.31  1604.47  1616.83  1647.13
                             1676.76  1707.88  1710.59  1774.62  1786.06
                             1815.29  1841.13  1880.19  1906.75  1949.46
                             1952.72  1979.60  1998.38  2031.84  2055.37
                             2056.79  2088.29  2120.93  2161.17  2162.38
                             2196.06  2309.50  2380.61  2502.04  2615.10
                             4281.62  4345.92  4350.66  4385.07  4398.81
                             4412.12  4487.93  4656.80  4662.32  5029.76
                             5135.67  5185.70  5268.82  5382.17

 Zero-point correction=                           0.244292 (Hartree/Particle)
 Thermal correction to Energy=                    0.260417
 Thermal correction to Enthalpy=                  0.261361
 Thermal correction to Gibbs Free Energy=         0.197323
 Sum of electronic and zero-point Energies=           -796.119707
 Sum of electronic and thermal Energies=              -796.103583
 Sum of electronic and thermal Enthalpies=            -796.102638
 Sum of electronic and thermal Free Energies=         -796.166676

                     E (Thermal)             CV                S
                      KCal/Mol        Cal/Mol-Kelvin    Cal/Mol-Kelvin
 Total                  163.414             58.497            134.780
 Electronic               0.000              0.000              0.000
 Translational            0.889              2.981             42.150
 Rotational               0.889              2.981             33.170
 Vibrational            161.637             52.536             59.460
 Vibration     1          0.593              1.985              6.462
 Vibration     2          0.593              1.985              6.176
 Vibration     3          0.594              1.983              5.614
 Vibration     4          0.595              1.977              4.802
 Vibration     5          0.597              1.971              4.285
 Vibration     6          0.598              1.967              4.089
 Vibration     7          0.610              1.930              3.058
 Vibration     8          0.612              1.923              2.943
 Vibration     9          0.619              1.899              2.626
 Vibration    10          0.634              1.852              2.216
 Vibration    11          0.661              1.767              1.750
 Vibration    12          0.676              1.723              1.576
 Vibration    13          0.697              1.660              1.379
 Vibration    14          0.703              1.644              1.334
 Vibration    15          0.712              1.618              1.266
 Vibration    16          0.723              1.588              1.195
 Vibration    17          0.751              1.511              1.035
 Vibration    18          0.789              1.409              0.865
 Vibration    19          0.856              1.250              0.658
 Vibration    20          0.907              1.137              0.541
 Vibration    21          0.919              1.112              0.518
 Vibration    22          0.956              1.037              0.454
 Vibration    23          0.976              0.998              0.423

 Optimization completed.
    -- Stationary point found.
 Normal termination of Gaussian 09 at Thu Jul 29 06:17:58 2021.
