 Gaussian 09, Revision D.01,
 Gaussian 09:  ES64L-G09RevD.01 24-Apr-2013

 ----------------------------------------------------------------------
 # B3LYP/6-311G(2df,2pd) guess=read geom=checkpoint opt=readfc freq=nor
 aman nosymm integral(ultrafinegrid)
 ----------------------------------------------------------------------

 ------------------------------------------------------------
 Candidate Structure: Conf:609 OPT and FREQ calc in gas phase
 ------------------------------------------------------------
 Structure from the checkpoint file:  "conf-609.chk"
 Charge =  0 Multiplicity = 1

 SCF Done:  E(RB3LYP) =  -796.357494051     A.U. after   11 cycles
 SCF Done:  E(RB3LYP) =  -796.358201829     A.U. after   11 cycles
 SCF Done:  E(RB3LYP) =  -796.358236934     A.U. after   11 cycles
 SCF Done:  E(RB3LYP) =  -796.358238606     A.U. after    9 cycles
 SCF Done:  E(RB3LYP) =  -796.358238660     A.U. after    8 cycles
 SCF Done:  E(RB3LYP) =  -796.358238674     A.U. after    7 cycles
 Optimization completed.
    -- Stationary point found.
 Normal termination of Gaussian 09 at Thu Jul 29 02:57:21 2021.

 ----------------------------------------------------------------------
 #N Geom=AllCheck Guess=TCheck SCRF=Check GenChk RB3LYP/6-311G(2df,2pd)
  Freq
 ----------------------------------------------------------------------

 Structure from the checkpoint file:  "conf-609.chk"
 ------------------------------------------------------------
 Candidate Structure: Conf:609 OPT and FREQ calc in gas phase
 ------------------------------------------------------------
 Charge =  0 Multiplicity = 1

                          Input orientation:
 ---------------------------------------------------------------------
 Center     Atomic      Atomic             Coordinates (Angstroms)
 Number     Number       Type             X           Y           Z
 ---------------------------------------------------------------------
      1          8           0        1.422074    1.133264   -0.611308
      2          6           0        1.633462    0.322164    0.274332
      3          7           0        0.633817   -0.471622    0.760390
      4          6           0       -0.677269   -0.480353    0.129357
      5          6           0       -0.497151   -0.823548   -1.358345
      6          8           0       -1.335328   -0.153237   -2.185641
      7          8           0        0.274952   -1.645359   -1.763425
      8          6           0       -1.492999    0.800792    0.441778
      9          6           0       -2.975277    0.624893    0.451604
     10          6           0       -3.872578    0.588528    1.488617
     11          7           0       -5.155767    0.418809    1.029691
     12          6           0       -5.045874    0.351501   -0.274086
     13          7           0       -3.751714    0.472943   -0.677110
     14          6           0        3.010655    0.120429    0.872267
     15          6           0        4.005516   -0.381804   -0.198015
     16          7           0        5.384152   -0.536493    0.245816
     17          1           0        0.875413   -1.240892    1.359444
     18          1           0       -1.216366   -1.330295    0.552527
     19          1           0       -1.119437   -0.450779   -3.081736
     20          1           0       -1.200075    1.112001    1.443574
     21          1           0       -1.181237    1.594020   -0.235933
     22          1           0       -3.659371    0.688775    2.540466
     23          1           0       -5.857120    0.217753   -0.970731
     24          1           0       -3.389385    0.425607   -1.613845
     25          1           0        3.349378    1.088685    1.246063
     26          1           0        2.987211   -0.571810    1.717425
     27          1           0        3.659541   -1.342256   -0.585241
     28          1           0        3.982473    0.314650   -1.035515
     29          1           0        5.449687   -1.191324    1.015913
     30          1           0        5.758686    0.344969    0.576116
 ---------------------------------------------------------------------

 SCF Done:  E(RB3LYP) =  -796.358238674     A.U. after    1 cycles

 Alpha  occ. eigenvalues --  -19.19055 -19.12460 -19.09524 -14.35933 -14.35263
 Alpha  occ. eigenvalues --  -14.29385 -14.28223 -10.32065 -10.27942 -10.24732
 Alpha  occ. eigenvalues --  -10.21556 -10.19987 -10.19982 -10.19195 -10.18540
 Alpha  occ. eigenvalues --  -10.17396  -1.13138  -1.05354  -1.03945  -1.01251
 Alpha  occ. eigenvalues --   -0.94394  -0.89051  -0.86830  -0.81184  -0.76781
 Alpha  occ. eigenvalues --   -0.73888  -0.68244  -0.65541  -0.62513  -0.61260
 Alpha  occ. eigenvalues --   -0.59454  -0.58798  -0.55092  -0.52813  -0.51657
 Alpha  occ. eigenvalues --   -0.50966  -0.50598  -0.48565  -0.46737  -0.45671
 Alpha  occ. eigenvalues --   -0.45111  -0.43860  -0.43466  -0.42493  -0.41939
 Alpha  occ. eigenvalues --   -0.41148  -0.40585  -0.39935  -0.39458  -0.38744
 Alpha  occ. eigenvalues --   -0.37674  -0.35347  -0.34301  -0.30028  -0.28491
 Alpha  occ. eigenvalues --   -0.27991  -0.27472  -0.26608  -0.24504  -0.22610
 Alpha virt. eigenvalues --   -0.01833   0.00231   0.01609   0.02008   0.02568
 Alpha virt. eigenvalues --    0.03603   0.05732   0.06134   0.06799   0.07142
 Alpha virt. eigenvalues --    0.07413   0.08359   0.09954   0.10701   0.10979

 Mulliken charges:
               1
     1  O   -0.439893
     2  C    0.411509
     3  N   -0.280488
     4  C    0.092595
     5  C    0.542344
     6  O   -0.363414
     7  O   -0.378215
     8  C    0.014448
     9  C    0.089007
    10  C    0.098579
    11  N   -0.352343
    12  C    0.227434
    13  N   -0.226516
    14  C   -0.017090
    15  C    0.172538
    16  N   -0.334975
    17  H    0.095280
    18  H    0.027627
    19  H    0.221255
    20  H    0.003761
    21  H    0.043245
    22  H    0.002449
    23  H    0.013561
    24  H    0.103193
    25  H    0.011254
    26  H   -0.016459
    27  H    0.020438
    28  H    0.027518
    29  H    0.092619
    30  H    0.098738
 Sum of Mulliken charges =   0.00000

 Dipole moment (field-independent basis, Debye):
    X=              1.7341    Y=             -1.1985    Z=              0.3026  Tot=              2.1296
 Quadrupole moment (field-independent basis, Debye-Ang):
   XX=           -114.2620   YY=            -97.6555   ZZ=            -84.4517
   XY=              3.8924   XZ=             26.4719   YZ=             -3.4440

  Exact polarizability: 185.087  -4.345 100.031   3.401   1.725 128.007
 Approx polarizability: 227.202  -1.814 167.996   0.119  -7.345 208.934

                      1                      2                      3
                      A                      A                      A
 Frequencies --     20.8711                29.3081                39.5160
 Red. masses --      4.4271                 5.0423                 5.5208
 Frc consts  --      0.0011                 0.0026                 0.0051
 IR Inten    --      0.5743                 8.9280                 5.8533

                      4                      5                      6
                      A                      A                      A
 Frequencies --     53.5291                72.1753                90.9257
 Red. masses --      4.6793                 3.0186                 7.0980
 Frc consts  --      0.0079                 0.0093                 0.0346
 IR Inten    --      2.0503                 3.1488                 2.3705

                      7                      8                      9
                      A                      A                      A
 Frequencies --     94.3845               127.0488               143.9390
 Red. masses --      2.7064                 6.0430                 6.4933
 Frc consts  --      0.0142                 0.0575                 0.0793
 IR Inten    --      2.4106                 2.0860                 4.8487

                     10                     11                     12
                      A                      A                      A
 Frequencies --    191.2136               221.3264               280.3092
 Red. masses --      4.3395                 5.2501                 3.5069
 Frc consts  --      0.0935                 0.1515                 0.1623
 IR Inten    --      9.3845                 2.5985                10.5984

                     13                     14                     15
                      A                      A                      A
 Frequencies --    295.0608               307.5977               338.1555
 Red. masses --      1.1713                 3.4915                 3.6150
 Frc consts  --      0.0601                 0.1946                 0.2436
 IR Inten    --     32.1028                 6.4488                 1.6236

                     16                     17                     18
                      A                      A                      A
 Frequencies --    365.8870               387.8060               419.2982
 Red. masses --      3.9123                 3.6663                 1.2482
 Frc consts  --      0.3086                 0.3249                 0.1293
 IR Inten    --      1.6145                11.2270                56.9111

                     19                     20                     21
                      A                      A                      A
 Frequencies --    443.0954               520.9390               548.4533
 Red. masses --      4.0307                 3.5844                 2.8753
 Frc consts  --      0.4663                 0.5731                 0.5096
 IR Inten    --      1.4505                32.6999                24.7110

                     22                     23                     24
                      A                      A                      A
 Frequencies --    587.7762               611.3999               675.7482
 Red. masses --      1.4812                 2.0076                 2.3853
 Frc consts  --      0.3015                 0.4421                 0.6417
 IR Inten    --     36.7201                77.8360                46.2639

                     25                     26                     27
                      A                      A                      A
 Frequencies --    682.7419               692.6364               733.2462
 Red. masses --      3.0002                 2.2371                 3.6874
 Frc consts  --      0.8240                 0.6323                 1.1681
 IR Inten    --     32.5884                 0.3525                26.2976

                     28                     29                     30
                      A                      A                      A
 Frequencies --    742.8070               768.2530               777.1056
 Red. masses --      5.1244                 1.5626                 2.1133
 Frc consts  --      1.6659                 0.5434                 0.7519
 IR Inten    --      4.2775                 2.8799                 2.2078

                     31                     32                     33
                      A                      A                      A
 Frequencies --    824.4200               830.6050               848.2066
 Red. masses --      1.4218                 1.6017                 2.2781
 Frc consts  --      0.5694                 0.6511                 0.9657
 IR Inten    --     12.9565               197.5940                44.5777

                     34                     35                     36
                      A                      A                      A
 Frequencies --    861.8208               911.5998               938.4297
 Red. masses --      1.7381                 2.5681                 5.7016
 Frc consts  --      0.7606                 1.2574                 2.9584
 IR Inten    --     14.7987                 0.5121                17.7192

                     37                     38                     39
                      A                      A                      A
 Frequencies --    969.1337               990.0861              1011.0701
 Red. masses --      1.7371                 2.1374                 4.9091
 Frc consts  --      0.9613                 1.2345                 2.9568
 IR Inten    --      7.3622                15.8059                80.6641

                     40                     41                     42
                      A                      A                      A
 Frequencies --   1028.3206              1047.3425              1082.9941
 Red. masses --      3.7731                 4.7941                 1.9545
 Frc consts  --      2.3508                 3.0984                 1.3506
 IR Inten    --     16.6750                 3.6579                10.1330

                     43                     44                     45
                      A                      A                      A
 Frequencies --   1102.1546              1112.6535              1134.4327
 Red. masses --      3.3933                 1.5762                 1.7069
 Frc consts  --      2.4286                 1.1497                 1.2942
 IR Inten    --     18.0334                45.3066                55.8551

                     46                     47                     48
                      A                      A                      A
 Frequencies --   1144.5112              1157.9159              1199.8915
 Red. masses --      2.1585                 2.2299                 1.5107
 Frc consts  --      1.6659                 1.7615                 1.2815
 IR Inten    --     33.5831               153.2027                39.3022

                     49                     50                     51
                      A                      A                      A
 Frequencies --   1249.8436              1259.9816              1279.0823
 Red. masses --      1.7852                 2.2603                 1.3832
 Frc consts  --      1.6430                 2.1142                 1.3333
 IR Inten    --     59.1835                26.2892                 4.4698

                     52                     53                     54
                      A                      A                      A
 Frequencies --   1293.1807              1307.9903              1328.6090
 Red. masses --      1.3251                 1.2720                 1.3621
 Frc consts  --      1.3057                 1.2822                 1.4166
 IR Inten    --      4.6532                 1.4313                 2.8128

                     55                     56                     57
                      A                      A                      A
 Frequencies --   1332.3656              1351.0917              1377.3410
 Red. masses --      1.4919                 1.8144                 1.7873
 Frc consts  --      1.5605                 1.9514                 1.9977
 IR Inten    --     53.1407                 6.1114                 5.0206

                     58                     59                     60
                      A                      A                      A
 Frequencies --   1383.8497              1392.2451              1393.7788
 Red. masses --      1.2345                 1.2058                 2.9360
 Frc consts  --      1.3929                 1.3771                 3.3604
 IR Inten    --     15.9946                 8.9607                11.7099

                     61                     62                     63
                      A                      A                      A
 Frequencies --   1427.8306              1481.3978              1488.9894
 Red. masses --      2.8455                 1.1085                 1.1417
 Frc consts  --      3.4179                 1.4332                 1.4913
 IR Inten    --     22.9639                 2.6448                11.0385

                     64                     65                     66
                      A                      A                      A
 Frequencies --   1501.4207              1505.6626              1524.1668
 Red. masses --      3.2352                 1.0903                 1.9071
 Frc consts  --      4.2970                 1.4563                 2.6103
 IR Inten    --     32.3816                 4.5491               213.1688

                     67                     68                     69
                      A                      A                      A
 Frequencies --   1604.3427              1664.9807              1744.0053
 Red. masses --      4.2746                 1.0895                 9.2693
 Frc consts  --      6.4825                 1.7795                16.6109
 IR Inten    --      8.5874                23.4762               167.1880

                     70                     71                     72
                      A                      A                      A
 Frequencies --   1832.4772              3028.1634              3043.0206
 Red. masses --     10.2182                 1.0592                 1.0675
 Frc consts  --     20.2164                 5.7224                 5.8240
 IR Inten    --    264.6115                14.4991                23.5709

                     73                     74                     75
                      A                      A                      A
 Frequencies --   3056.1798              3070.5217              3070.6697
 Red. masses --      1.0814                 1.0731                 1.0854
 Frc consts  --      5.9512                 5.9609                 6.0300
 IR Inten    --      2.5301                 2.3119                16.6774

                     76                     77                     78
                      A                      A                      A
 Frequencies --   3097.2914              3110.4151              3228.7698
 Red. masses --      1.1044                 1.1034                 1.0956
 Frc consts  --      6.2421                 6.2898                 6.7292
 IR Inten    --     23.9453                 3.7103                 8.8967

                     79                     80                     81
                      A                      A                      A
 Frequencies --   3239.4941              3490.0177              3566.0867
 Red. masses --      1.0973                 1.0484                 1.0933
 Frc consts  --      6.7845                 7.5238                 8.1918
 IR Inten    --      1.5261                 0.9474                 0.1893

                     82                     83                     84
                      A                      A                      A
 Frequencies --   3647.7194              3652.0642              3742.2848
 Red. masses --      1.0783                 1.0809                 1.0640
 Frc consts  --      8.4534                 8.4940                 8.7791
 IR Inten    --     27.2134               103.6213                74.3036

 - Thermochemistry -
 -------------------
 Temperature   298.150 Kelvin.  Pressure   1.00000 Atm.
 Atom     1 has atomic number  8 and mass  15.99491

 Molecular mass:   226.10659 amu.
 Principal axes and moments of inertia in atomic units:
                           1         2         3
     Eigenvalues --  1290.745267990.801908701.04719
           X            0.99610   0.04703   0.07459
           Y           -0.08649   0.35658   0.93025
           Z           -0.01716   0.93308  -0.35926
 This molecule is an asymmetric top.
 Rotational symmetry number  1.
 Warning -- assumption of classical behavior for rotation
           may cause significant error
 Rotational temperatures (Kelvin)      0.06710     0.01084     0.00995
 Rotational constants (GHZ):           1.39822     0.22585     0.20742
 Zero-point vibrational energy     641350.8 (Joules/Mol)
                                  153.28651 (Kcal/Mol)
 Warning -- explicit consideration of  23 degrees of freedom as
           vibrations may cause significant error
 Vibrational temperatures:     30.03    42.17    56.85    77.02   103.84
          (Kelvin)            130.82   135.80   182.79   207.10   275.11
                              318.44   403.30   424.53   442.56   486.53
                              526.43   557.97   603.28   637.51   749.51
                              789.10   845.68   879.67   972.25   982.31
                              996.55  1054.98  1068.73  1105.34  1118.08
                             1186.16  1195.05  1220.38  1239.97  1311.59
                             1350.19  1394.37  1424.51  1454.70  1479.52
                             1506.89  1558.19  1585.75  1600.86  1632.19
                             1646.69  1665.98  1726.37  1798.24  1812.83
                             1840.31  1860.60  1881.90  1911.57  1916.97
                             1943.92  1981.68  1991.05  2003.13  2005.33
                             2054.33  2131.40  2142.32  2160.21  2166.31
                             2192.93  2308.29  2395.53  2509.23  2636.52
                             4356.85  4378.22  4397.16  4417.79  4418.00
                             4456.31  4475.19  4645.47  4660.90  5021.35
                             5130.80  5248.25  5254.50  5384.31

 Zero-point correction=                           0.244278 (Hartree/Particle)
 Thermal correction to Energy=                    0.260493
 Thermal correction to Enthalpy=                  0.261437
 Thermal correction to Gibbs Free Energy=         0.197669
 Sum of electronic and zero-point Energies=           -796.113961
 Sum of electronic and thermal Energies=              -796.097746
 Sum of electronic and thermal Enthalpies=            -796.096801
 Sum of electronic and thermal Free Energies=         -796.160570

                     E (Thermal)             CV                S
                      KCal/Mol        Cal/Mol-Kelvin    Cal/Mol-Kelvin
 Total                  163.462             58.806            134.211
 Electronic               0.000              0.000              0.000
 Translational            0.889              2.981             42.150
 Rotational               0.889              2.981             32.862
 Vibrational            161.684             52.844             59.200
 Vibration     1          0.593              1.986              6.550
 Vibration     2          0.593              1.984              5.876
 Vibration     3          0.594              1.981              5.283
 Vibration     4          0.596              1.976              4.683
 Vibration     5          0.598              1.967              4.093
 Vibration     6          0.602              1.956              3.640
 Vibration     7          0.603              1.953              3.567
 Vibration     8          0.611              1.926              2.990
 Vibration     9          0.616              1.909              2.751
 Vibration    10          0.634              1.852              2.216
 Vibration    11          0.648              1.809              1.948
 Vibration    12          0.680              1.710              1.532
 Vibration    13          0.689              1.683              1.445
 Vibration    14          0.697              1.659              1.375
 Vibration    15          0.718              1.599              1.221
 Vibration    16          0.739              1.542              1.097
 Vibration    17          0.756              1.496              1.009
 Vibration    18          0.782              1.428              0.894
 Vibration    19          0.803              1.376              0.817
 Vibration    20          0.876              1.204              0.608
 Vibration    21          0.904              1.143              0.547
 Vibration    22          0.945              1.058              0.471
 Vibration    23          0.971              1.008              0.430

 Optimization completed.
    -- Stationary point found.
 Normal termination of Gaussian 09 at Thu Jul 29 06:23:36 2021.
